  16  16   1   0
  0.1687500E+02  0.7144797E-09  0.7144797E-09  0.5344716E-09  0.5000000E-15
  1.000000000000000E-004
  CAR 
 unknown system                          
     12.99011321    -52.26833936  301      5.23207760      1.00000000
    -52.268  0.0000E+00  0.0000E+00  0.0000E+00  0.0000E+00
    -52.051  0.0000E+00  0.0000E+00  0.0000E+00  0.0000E+00
    -51.833  0.0000E+00  0.0000E+00  0.0000E+00  0.0000E+00
    -51.616  0.0000E+00  0.0000E+00  0.0000E+00  0.0000E+00
    -51.398  0.0000E+00  0.0000E+00  0.0000E+00  0.0000E+00
    -51.181  0.0000E+00  0.0000E+00  0.0000E+00  0.0000E+00
    -50.963  0.0000E+00  0.0000E+00  0.0000E+00  0.0000E+00
    -50.746  0.0000E+00  0.0000E+00  0.0000E+00  0.0000E+00
    -50.528  0.0000E+00  0.0000E+00  0.0000E+00  0.0000E+00
    -50.311  0.0000E+00  0.0000E+00  0.0000E+00  0.0000E+00
    -50.093  0.0000E+00  0.0000E+00  0.0000E+00  0.0000E+00
    -49.876  0.0000E+00  0.0000E+00  0.0000E+00  0.0000E+00
    -49.658  0.0000E+00  0.0000E+00  0.0000E+00  0.0000E+00
    -49.440  0.7119E-06  0.7119E-06  0.1549E-06  0.1549E-06
    -49.223  0.2078E+00  0.2078E+00  0.4521E-01  0.4521E-01
    -49.005  0.2729E+00  0.2729E+00  0.1046E+00  0.1046E+00
    -48.788  0.7432E-01  0.7432E-01  0.1207E+00  0.1207E+00
    -48.570  0.2191E-02  0.2191E-02  0.1212E+00  0.1212E+00
    -48.353  0.0000E+00  0.0000E+00  0.1212E+00  0.1212E+00
    -48.135  0.0000E+00  0.0000E+00  0.1212E+00  0.1212E+00
    -47.918  0.0000E+00  0.0000E+00  0.1212E+00  0.1212E+00
    -47.700  0.0000E+00  0.0000E+00  0.1212E+00  0.1212E+00
    -47.483  0.0000E+00  0.0000E+00  0.1212E+00  0.1212E+00
    -47.265  0.0000E+00  0.0000E+00  0.1212E+00  0.1212E+00
    -47.048  0.1690E-12  0.1690E-12  0.1212E+00  0.1212E+00
    -46.830  0.2898E-01  0.2898E-01  0.1275E+00  0.1275E+00
    -46.613  0.2369E+00  0.2369E+00  0.1790E+00  0.1790E+00
    -46.395  0.1533E+00  0.1533E+00  0.2124E+00  0.2124E+00
    -46.178  0.1380E+00  0.1380E+00  0.2424E+00  0.2424E+00
    -45.960  0.4301E-05  0.4301E-05  0.2424E+00  0.2424E+00
    -45.742  0.0000E+00  0.0000E+00  0.2424E+00  0.2424E+00
    -45.525  0.0000E+00  0.0000E+00  0.2424E+00  0.2424E+00
    -45.307  0.0000E+00  0.0000E+00  0.2424E+00  0.2424E+00
    -45.090  0.0000E+00  0.0000E+00  0.2424E+00  0.2424E+00
    -44.872  0.0000E+00  0.0000E+00  0.2424E+00  0.2424E+00
    -44.655  0.0000E+00  0.0000E+00  0.2424E+00  0.2424E+00
    -44.437  0.0000E+00  0.0000E+00  0.2424E+00  0.2424E+00
    -44.220  0.0000E+00  0.0000E+00  0.2424E+00  0.2424E+00
    -44.002  0.0000E+00  0.0000E+00  0.2424E+00  0.2424E+00
    -43.785  0.0000E+00  0.0000E+00  0.2424E+00  0.2424E+00
    -43.567  0.0000E+00  0.0000E+00  0.2424E+00  0.2424E+00
    -43.350  0.0000E+00  0.0000E+00  0.2424E+00  0.2424E+00
    -43.132  0.0000E+00  0.0000E+00  0.2424E+00  0.2424E+00
    -42.915  0.0000E+00  0.0000E+00  0.2424E+00  0.2424E+00
    -42.697  0.0000E+00  0.0000E+00  0.2424E+00  0.2424E+00
    -42.480  0.0000E+00  0.0000E+00  0.2424E+00  0.2424E+00
    -42.262  0.0000E+00  0.0000E+00  0.2424E+00  0.2424E+00
    -42.045  0.0000E+00  0.0000E+00  0.2424E+00  0.2424E+00
    -41.827  0.0000E+00  0.0000E+00  0.2424E+00  0.2424E+00
    -41.609  0.0000E+00  0.0000E+00  0.2424E+00  0.2424E+00
    -41.392  0.0000E+00  0.0000E+00  0.2424E+00  0.2424E+00
    -41.174  0.0000E+00  0.0000E+00  0.2424E+00  0.2424E+00
    -40.957  0.0000E+00  0.0000E+00  0.2424E+00  0.2424E+00
    -40.739  0.0000E+00  0.0000E+00  0.2424E+00  0.2424E+00
    -40.522  0.0000E+00  0.0000E+00  0.2424E+00  0.2424E+00
    -40.304  0.0000E+00  0.0000E+00  0.2424E+00  0.2424E+00
    -40.087  0.0000E+00  0.0000E+00  0.2424E+00  0.2424E+00
    -39.869  0.0000E+00  0.0000E+00  0.2424E+00  0.2424E+00
    -39.652  0.0000E+00  0.0000E+00  0.2424E+00  0.2424E+00
    -39.434  0.0000E+00  0.0000E+00  0.2424E+00  0.2424E+00
    -39.217  0.0000E+00  0.0000E+00  0.2424E+00  0.2424E+00
    -38.999  0.0000E+00  0.0000E+00  0.2424E+00  0.2424E+00
    -38.782  0.0000E+00  0.0000E+00  0.2424E+00  0.2424E+00
    -38.564  0.0000E+00  0.0000E+00  0.2424E+00  0.2424E+00
    -38.347  0.0000E+00  0.0000E+00  0.2424E+00  0.2424E+00
    -38.129  0.0000E+00  0.0000E+00  0.2424E+00  0.2424E+00
    -37.911  0.0000E+00  0.0000E+00  0.2424E+00  0.2424E+00
    -37.694  0.0000E+00  0.0000E+00  0.2424E+00  0.2424E+00
    -37.476  0.0000E+00  0.0000E+00  0.2424E+00  0.2424E+00
    -37.259  0.0000E+00  0.0000E+00  0.2424E+00  0.2424E+00
    -37.041  0.0000E+00  0.0000E+00  0.2424E+00  0.2424E+00
    -36.824  0.0000E+00  0.0000E+00  0.2424E+00  0.2424E+00
    -36.606  0.0000E+00  0.0000E+00  0.2424E+00  0.2424E+00
    -36.389  0.0000E+00  0.0000E+00  0.2424E+00  0.2424E+00
    -36.171  0.0000E+00  0.0000E+00  0.2424E+00  0.2424E+00
    -35.954  0.0000E+00  0.0000E+00  0.2424E+00  0.2424E+00
    -35.736  0.0000E+00  0.0000E+00  0.2424E+00  0.2424E+00
    -35.519  0.0000E+00  0.0000E+00  0.2424E+00  0.2424E+00
    -35.301  0.0000E+00  0.0000E+00  0.2424E+00  0.2424E+00
    -35.084  0.0000E+00  0.0000E+00  0.2424E+00  0.2424E+00
    -34.866  0.0000E+00  0.0000E+00  0.2424E+00  0.2424E+00
    -34.649  0.0000E+00  0.0000E+00  0.2424E+00  0.2424E+00
    -34.431  0.0000E+00  0.0000E+00  0.2424E+00  0.2424E+00
    -34.214  0.0000E+00  0.0000E+00  0.2424E+00  0.2424E+00
    -33.996  0.0000E+00  0.0000E+00  0.2424E+00  0.2424E+00
    -33.778  0.0000E+00  0.0000E+00  0.2424E+00  0.2424E+00
    -33.561  0.0000E+00  0.0000E+00  0.2424E+00  0.2424E+00
    -33.343  0.0000E+00  0.0000E+00  0.2424E+00  0.2424E+00
    -33.126  0.0000E+00  0.0000E+00  0.2424E+00  0.2424E+00
    -32.908  0.0000E+00  0.0000E+00  0.2424E+00  0.2424E+00
    -32.691  0.0000E+00  0.0000E+00  0.2424E+00  0.2424E+00
    -32.473  0.0000E+00  0.0000E+00  0.2424E+00  0.2424E+00
    -32.256  0.0000E+00  0.0000E+00  0.2424E+00  0.2424E+00
    -32.038  0.0000E+00  0.0000E+00  0.2424E+00  0.2424E+00
    -31.821  0.0000E+00  0.0000E+00  0.2424E+00  0.2424E+00
    -31.603  0.0000E+00  0.0000E+00  0.2424E+00  0.2424E+00
    -31.386  0.0000E+00  0.0000E+00  0.2424E+00  0.2424E+00
    -31.168  0.0000E+00  0.0000E+00  0.2424E+00  0.2424E+00
    -30.951  0.0000E+00  0.0000E+00  0.2424E+00  0.2424E+00
    -30.733  0.0000E+00  0.0000E+00  0.2424E+00  0.2424E+00
    -30.516  0.0000E+00  0.0000E+00  0.2424E+00  0.2424E+00
    -30.298  0.0000E+00  0.0000E+00  0.2424E+00  0.2424E+00
    -30.080  0.0000E+00  0.0000E+00  0.2424E+00  0.2424E+00
    -29.863  0.0000E+00  0.0000E+00  0.2424E+00  0.2424E+00
    -29.645  0.0000E+00  0.0000E+00  0.2424E+00  0.2424E+00
    -29.428  0.0000E+00  0.0000E+00  0.2424E+00  0.2424E+00
    -29.210  0.0000E+00  0.0000E+00  0.2424E+00  0.2424E+00
    -28.993  0.0000E+00  0.0000E+00  0.2424E+00  0.2424E+00
    -28.775  0.0000E+00  0.0000E+00  0.2424E+00  0.2424E+00
    -28.558  0.0000E+00  0.0000E+00  0.2424E+00  0.2424E+00
    -28.340  0.0000E+00  0.0000E+00  0.2424E+00  0.2424E+00
    -28.123  0.0000E+00  0.0000E+00  0.2424E+00  0.2424E+00
    -27.905  0.0000E+00  0.0000E+00  0.2424E+00  0.2424E+00
    -27.688  0.0000E+00  0.0000E+00  0.2424E+00  0.2424E+00
    -27.470  0.0000E+00  0.0000E+00  0.2424E+00  0.2424E+00
    -27.253  0.0000E+00  0.0000E+00  0.2424E+00  0.2424E+00
    -27.035  0.0000E+00  0.0000E+00  0.2424E+00  0.2424E+00
    -26.818  0.0000E+00  0.0000E+00  0.2424E+00  0.2424E+00
    -26.600  0.0000E+00  0.0000E+00  0.2424E+00  0.2424E+00
    -26.382  0.0000E+00  0.0000E+00  0.2424E+00  0.2424E+00
    -26.165  0.0000E+00  0.0000E+00  0.2424E+00  0.2424E+00
    -25.947  0.0000E+00  0.0000E+00  0.2424E+00  0.2424E+00
    -25.730  0.0000E+00  0.0000E+00  0.2424E+00  0.2424E+00
    -25.512  0.0000E+00  0.0000E+00  0.2424E+00  0.2424E+00
    -25.295  0.0000E+00  0.0000E+00  0.2424E+00  0.2424E+00
    -25.077  0.0000E+00  0.0000E+00  0.2424E+00  0.2424E+00
    -24.860  0.0000E+00  0.0000E+00  0.2424E+00  0.2424E+00
    -24.642  0.0000E+00  0.0000E+00  0.2424E+00  0.2424E+00
    -24.425  0.0000E+00  0.0000E+00  0.2424E+00  0.2424E+00
    -24.207  0.0000E+00  0.0000E+00  0.2424E+00  0.2424E+00
    -23.990  0.0000E+00  0.0000E+00  0.2424E+00  0.2424E+00
    -23.772  0.0000E+00  0.0000E+00  0.2424E+00  0.2424E+00
    -23.555  0.0000E+00  0.0000E+00  0.2424E+00  0.2424E+00
    -23.337  0.0000E+00  0.0000E+00  0.2424E+00  0.2424E+00
    -23.120  0.0000E+00  0.0000E+00  0.2424E+00  0.2424E+00
    -22.902  0.0000E+00  0.0000E+00  0.2424E+00  0.2424E+00
    -22.685  0.0000E+00  0.0000E+00  0.2424E+00  0.2424E+00
    -22.467  0.0000E+00  0.0000E+00  0.2424E+00  0.2424E+00
    -22.249  0.0000E+00  0.0000E+00  0.2424E+00  0.2424E+00
    -22.032  0.0000E+00  0.0000E+00  0.2424E+00  0.2424E+00
    -21.814  0.0000E+00  0.0000E+00  0.2424E+00  0.2424E+00
    -21.597  0.0000E+00  0.0000E+00  0.2424E+00  0.2424E+00
    -21.379  0.0000E+00  0.0000E+00  0.2424E+00  0.2424E+00
    -21.162  0.0000E+00  0.0000E+00  0.2424E+00  0.2424E+00
    -20.944  0.0000E+00  0.0000E+00  0.2424E+00  0.2424E+00
    -20.727  0.0000E+00  0.0000E+00  0.2424E+00  0.2424E+00
    -20.509  0.0000E+00  0.0000E+00  0.2424E+00  0.2424E+00
    -20.292  0.0000E+00  0.0000E+00  0.2424E+00  0.2424E+00
    -20.074  0.0000E+00  0.0000E+00  0.2424E+00  0.2424E+00
    -19.857  0.0000E+00  0.0000E+00  0.2424E+00  0.2424E+00
    -19.639  0.0000E+00  0.0000E+00  0.2424E+00  0.2424E+00
    -19.422  0.0000E+00  0.0000E+00  0.2424E+00  0.2424E+00
    -19.204  0.0000E+00  0.0000E+00  0.2424E+00  0.2424E+00
    -18.987  0.0000E+00  0.0000E+00  0.2424E+00  0.2424E+00
    -18.769  0.0000E+00  0.0000E+00  0.2424E+00  0.2424E+00
    -18.551  0.0000E+00  0.0000E+00  0.2424E+00  0.2424E+00
    -18.334  0.0000E+00  0.0000E+00  0.2424E+00  0.2424E+00
    -18.116  0.0000E+00  0.0000E+00  0.2424E+00  0.2424E+00
    -17.899  0.0000E+00  0.0000E+00  0.2424E+00  0.2424E+00
    -17.681  0.0000E+00  0.0000E+00  0.2424E+00  0.2424E+00
    -17.464  0.0000E+00  0.0000E+00  0.2424E+00  0.2424E+00
    -17.246  0.0000E+00  0.0000E+00  0.2424E+00  0.2424E+00
    -17.029  0.0000E+00  0.0000E+00  0.2424E+00  0.2424E+00
    -16.811  0.0000E+00  0.0000E+00  0.2424E+00  0.2424E+00
    -16.594  0.0000E+00  0.0000E+00  0.2424E+00  0.2424E+00
    -16.376  0.0000E+00  0.0000E+00  0.2424E+00  0.2424E+00
    -16.159  0.0000E+00  0.0000E+00  0.2424E+00  0.2424E+00
    -15.941  0.0000E+00  0.0000E+00  0.2424E+00  0.2424E+00
    -15.724  0.0000E+00  0.0000E+00  0.2424E+00  0.2424E+00
    -15.506  0.0000E+00  0.0000E+00  0.2424E+00  0.2424E+00
    -15.289  0.0000E+00  0.0000E+00  0.2424E+00  0.2424E+00
    -15.071  0.0000E+00  0.0000E+00  0.2424E+00  0.2424E+00
    -14.853  0.0000E+00  0.0000E+00  0.2424E+00  0.2424E+00
    -14.636  0.0000E+00  0.0000E+00  0.2424E+00  0.2424E+00
    -14.418  0.0000E+00  0.0000E+00  0.2424E+00  0.2424E+00
    -14.201  0.0000E+00  0.0000E+00  0.2424E+00  0.2424E+00
    -13.983  0.0000E+00  0.0000E+00  0.2424E+00  0.2424E+00
    -13.766  0.0000E+00  0.0000E+00  0.2424E+00  0.2424E+00
    -13.548  0.0000E+00  0.0000E+00  0.2424E+00  0.2424E+00
    -13.331  0.0000E+00  0.0000E+00  0.2424E+00  0.2424E+00
    -13.113  0.0000E+00  0.0000E+00  0.2424E+00  0.2424E+00
    -12.896  0.0000E+00  0.0000E+00  0.2424E+00  0.2424E+00
    -12.678  0.0000E+00  0.0000E+00  0.2424E+00  0.2424E+00
    -12.461  0.0000E+00  0.0000E+00  0.2424E+00  0.2424E+00
    -12.243  0.0000E+00  0.0000E+00  0.2424E+00  0.2424E+00
    -12.026  0.0000E+00  0.0000E+00  0.2424E+00  0.2424E+00
    -11.808  0.0000E+00  0.0000E+00  0.2424E+00  0.2424E+00
    -11.591  0.0000E+00  0.0000E+00  0.2424E+00  0.2424E+00
    -11.373  0.0000E+00  0.0000E+00  0.2424E+00  0.2424E+00
    -11.156  0.0000E+00  0.0000E+00  0.2424E+00  0.2424E+00
    -10.938  0.0000E+00  0.0000E+00  0.2424E+00  0.2424E+00
    -10.720  0.0000E+00  0.0000E+00  0.2424E+00  0.2424E+00
    -10.503  0.0000E+00  0.0000E+00  0.2424E+00  0.2424E+00
    -10.285  0.1108E-07  0.1108E-07  0.2424E+00  0.2424E+00
    -10.068  0.1556E-02  0.1556E-02  0.2428E+00  0.2428E+00
     -9.850  0.8361E-02  0.8361E-02  0.2446E+00  0.2446E+00
     -9.633  0.1578E-01  0.1578E-01  0.2480E+00  0.2480E+00
     -9.415  0.1882E-01  0.1882E-01  0.2521E+00  0.2521E+00
     -9.198  0.1875E-01  0.1875E-01  0.2562E+00  0.2562E+00
     -8.980  0.2241E-01  0.2241E-01  0.2611E+00  0.2611E+00
     -8.763  0.2390E-01  0.2390E-01  0.2663E+00  0.2663E+00
     -8.545  0.2674E-01  0.2674E-01  0.2721E+00  0.2721E+00
     -8.328  0.4426E-01  0.4426E-01  0.2817E+00  0.2817E+00
     -8.110  0.3730E-01  0.3730E-01  0.2898E+00  0.2898E+00
     -7.893  0.5067E-01  0.5067E-01  0.3008E+00  0.3008E+00
     -7.675  0.4357E-01  0.4357E-01  0.3103E+00  0.3103E+00
     -7.458  0.4440E-01  0.4440E-01  0.3200E+00  0.3200E+00
     -7.240  0.1485E-01  0.1485E-01  0.3232E+00  0.3232E+00
     -7.022  0.1133E-03  0.1133E-03  0.3232E+00  0.3232E+00
     -6.805  0.0000E+00  0.0000E+00  0.3232E+00  0.3232E+00
     -6.587  0.0000E+00  0.0000E+00  0.3232E+00  0.3232E+00
     -6.370  0.0000E+00  0.0000E+00  0.3232E+00  0.3232E+00
     -6.152  0.0000E+00  0.0000E+00  0.3232E+00  0.3232E+00
     -5.935  0.0000E+00  0.0000E+00  0.3232E+00  0.3232E+00
     -5.717  0.0000E+00  0.0000E+00  0.3232E+00  0.3232E+00
     -5.500  0.0000E+00  0.0000E+00  0.3232E+00  0.3232E+00
     -5.282  0.0000E+00  0.0000E+00  0.3232E+00  0.3232E+00
     -5.065  0.0000E+00  0.0000E+00  0.3232E+00  0.3232E+00
     -4.847  0.0000E+00  0.0000E+00  0.3232E+00  0.3232E+00
     -4.630  0.0000E+00  0.0000E+00  0.3232E+00  0.3232E+00
     -4.412  0.0000E+00  0.0000E+00  0.3232E+00  0.3232E+00
     -4.195  0.0000E+00  0.0000E+00  0.3232E+00  0.3232E+00
     -3.977  0.0000E+00  0.0000E+00  0.3232E+00  0.3232E+00
     -3.760  0.0000E+00  0.0000E+00  0.3232E+00  0.3232E+00
     -3.542  0.0000E+00  0.0000E+00  0.3232E+00  0.3232E+00
     -3.324  0.0000E+00  0.0000E+00  0.3232E+00  0.3232E+00
     -3.107  0.0000E+00  0.0000E+00  0.3232E+00  0.3232E+00
     -2.889  0.0000E+00  0.0000E+00  0.3232E+00  0.3232E+00
     -2.672  0.0000E+00  0.0000E+00  0.3232E+00  0.3232E+00
     -2.454  0.0000E+00  0.0000E+00  0.3232E+00  0.3232E+00
     -2.237  0.0000E+00  0.0000E+00  0.3232E+00  0.3232E+00
     -2.019  0.0000E+00  0.0000E+00  0.3232E+00  0.3232E+00
     -1.802  0.4676E-18  0.4676E-18  0.3232E+00  0.3232E+00
     -1.584  0.2858E-04  0.2858E-04  0.3232E+00  0.3232E+00
     -1.367  0.9293E-02  0.9293E-02  0.3253E+00  0.3253E+00
     -1.149  0.2772E-01  0.2772E-01  0.3313E+00  0.3313E+00
     -0.932  0.5364E-01  0.5364E-01  0.3430E+00  0.3430E+00
     -0.714  0.6819E-01  0.6819E-01  0.3578E+00  0.3578E+00
     -0.497  0.6421E-01  0.6421E-01  0.3718E+00  0.3718E+00
     -0.279  0.5565E-01  0.5565E-01  0.3839E+00  0.3839E+00
     -0.062  0.3186E-01  0.3186E-01  0.3908E+00  0.3908E+00
      0.156  0.3153E-01  0.3153E-01  0.3977E+00  0.3977E+00
      0.373  0.4022E-01  0.4022E-01  0.4064E+00  0.4064E+00
      0.591  0.3821E-01  0.3821E-01  0.4147E+00  0.4147E+00
      0.809  0.3351E-01  0.3351E-01  0.4220E+00  0.4220E+00
      1.026  0.4703E-01  0.4703E-01  0.4322E+00  0.4322E+00
      1.244  0.7496E-01  0.7496E-01  0.4485E+00  0.4485E+00
      1.461  0.1011E+00  0.1011E+00  0.4705E+00  0.4705E+00
      1.679  0.9747E-01  0.9747E-01  0.4917E+00  0.4917E+00
      1.896  0.1042E+00  0.1042E+00  0.5144E+00  0.5144E+00
      2.114  0.7558E-01  0.7558E-01  0.5308E+00  0.5308E+00
      2.331  0.8270E-01  0.8270E-01  0.5488E+00  0.5488E+00
      2.549  0.8244E-01  0.8244E-01  0.5668E+00  0.5668E+00
      2.766  0.9940E-01  0.9940E-01  0.5884E+00  0.5884E+00
      2.984  0.9340E-01  0.9340E-01  0.6087E+00  0.6087E+00
      3.201  0.1034E+00  0.1034E+00  0.6312E+00  0.6312E+00
      3.419  0.1375E+00  0.1375E+00  0.6611E+00  0.6611E+00
      3.636  0.1247E+00  0.1247E+00  0.6882E+00  0.6882E+00
      3.854  0.1107E+00  0.1107E+00  0.7123E+00  0.7123E+00
      4.071  0.9200E-01  0.9200E-01  0.7323E+00  0.7323E+00
      4.289  0.7463E-01  0.7463E-01  0.7486E+00  0.7486E+00
      4.507  0.6576E-01  0.6576E-01  0.7629E+00  0.7629E+00
      4.724  0.4213E-01  0.4213E-01  0.7720E+00  0.7720E+00
      4.942  0.6268E-01  0.6268E-01  0.7857E+00  0.7857E+00
      5.159  0.7722E-01  0.7722E-01  0.8025E+00  0.8025E+00
      5.377  0.6985E-01  0.6985E-01  0.8177E+00  0.8177E+00
      5.594  0.9424E-01  0.9424E-01  0.8382E+00  0.8382E+00
      5.812  0.1070E+00  0.1070E+00  0.8615E+00  0.8615E+00
      6.029  0.9355E-01  0.9355E-01  0.8818E+00  0.8818E+00
      6.247  0.7991E-01  0.7991E-01  0.8992E+00  0.8992E+00
      6.464  0.8237E-01  0.8237E-01  0.9171E+00  0.9171E+00
      6.682  0.8078E-01  0.8078E-01  0.9347E+00  0.9347E+00
      6.899  0.8237E-01  0.8237E-01  0.9526E+00  0.9526E+00
      7.117  0.2609E-01  0.2609E-01  0.9583E+00  0.9583E+00
      7.334  0.1525E-01  0.1525E-01  0.9616E+00  0.9616E+00
      7.552  0.1677E-01  0.1677E-01  0.9652E+00  0.9652E+00
      7.769  0.1695E-01  0.1695E-01  0.9689E+00  0.9689E+00
      7.987  0.1046E-01  0.1046E-01  0.9712E+00  0.9712E+00
      8.204  0.7984E-02  0.7983E-02  0.9729E+00  0.9729E+00
      8.422  0.1206E-01  0.1206E-01  0.9756E+00  0.9756E+00
      8.640  0.1555E-01  0.1555E-01  0.9789E+00  0.9789E+00
      8.857  0.2315E-01  0.2315E-01  0.9840E+00  0.9840E+00
      9.075  0.3083E-01  0.3085E-01  0.9907E+00  0.9907E+00
      9.292  0.3763E-01  0.3756E-01  0.9989E+00  0.9989E+00
      9.510  0.2877E-01  0.2890E-01  0.1005E+01  0.1005E+01
      9.727  0.1464E-01  0.1453E-01  0.1008E+01  0.1008E+01
      9.945  0.6814E-02  0.6910E-02  0.1010E+01  0.1010E+01
     10.162  0.1432E-02  0.1370E-02  0.1010E+01  0.1010E+01
     10.380  0.1400E-07  0.3803E-07  0.1010E+01  0.1010E+01
     10.597  0.0000E+00  0.0000E+00  0.1010E+01  0.1010E+01
     10.815  0.0000E+00  0.0000E+00  0.1010E+01  0.1010E+01
     11.032  0.0000E+00  0.0000E+00  0.1010E+01  0.1010E+01
     11.250  0.0000E+00  0.0000E+00  0.1010E+01  0.1010E+01
     11.467  0.0000E+00  0.0000E+00  0.1010E+01  0.1010E+01
     11.685  0.0000E+00  0.0000E+00  0.1010E+01  0.1010E+01
     11.902  0.0000E+00  0.0000E+00  0.1010E+01  0.1010E+01
     12.120  0.0000E+00  0.0000E+00  0.1010E+01  0.1010E+01
     12.338  0.0000E+00  0.0000E+00  0.1010E+01  0.1010E+01
     12.555  0.0000E+00  0.0000E+00  0.1010E+01  0.1010E+01
     12.773  0.0000E+00  0.0000E+00  0.1010E+01  0.1010E+01
     12.990  0.0000E+00  0.0000E+00  0.1010E+01  0.1010E+01
     12.99011321    -52.26833936  301      5.23207760      1.00000000
    -52.268  0.0000E+00  0.0000E+00  0.0000E+00  0.0000E+00  0.0000E+00  0.0000E+00  0.0000E+00  0.0000E+00  0.0000E+00  0.0000E+00  0.0000E+00  0.0000E+00  0.0000E+00  0.0000E+00  0.0000E+00  0.0000E+00  0.0000E+00  0.0000E+00
    -52.051  0.0000E+00  0.0000E+00  0.0000E+00  0.0000E+00  0.0000E+00  0.0000E+00  0.0000E+00  0.0000E+00  0.0000E+00  0.0000E+00  0.0000E+00  0.0000E+00  0.0000E+00  0.0000E+00  0.0000E+00  0.0000E+00  0.0000E+00  0.0000E+00
    -51.833  0.0000E+00  0.0000E+00  0.0000E+00  0.0000E+00  0.0000E+00  0.0000E+00  0.0000E+00  0.0000E+00  0.0000E+00  0.0000E+00  0.0000E+00  0.0000E+00  0.0000E+00  0.0000E+00  0.0000E+00  0.0000E+00  0.0000E+00  0.0000E+00
    -51.616  0.0000E+00  0.0000E+00  0.0000E+00  0.0000E+00  0.0000E+00  0.0000E+00  0.0000E+00  0.0000E+00  0.0000E+00  0.0000E+00  0.0000E+00  0.0000E+00  0.0000E+00  0.0000E+00  0.0000E+00  0.0000E+00  0.0000E+00  0.0000E+00
    -51.398  0.0000E+00  0.0000E+00  0.0000E+00  0.0000E+00  0.0000E+00  0.0000E+00  0.0000E+00  0.0000E+00  0.0000E+00  0.0000E+00  0.0000E+00  0.0000E+00  0.0000E+00  0.0000E+00  0.0000E+00  0.0000E+00  0.0000E+00  0.0000E+00
    -51.181  0.0000E+00  0.0000E+00  0.0000E+00  0.0000E+00  0.0000E+00  0.0000E+00  0.0000E+00  0.0000E+00  0.0000E+00  0.0000E+00  0.0000E+00  0.0000E+00  0.0000E+00  0.0000E+00  0.0000E+00  0.0000E+00  0.0000E+00  0.0000E+00
    -50.963  0.0000E+00  0.0000E+00  0.0000E+00  0.0000E+00  0.0000E+00  0.0000E+00  0.0000E+00  0.0000E+00  0.0000E+00  0.0000E+00  0.0000E+00  0.0000E+00  0.0000E+00  0.0000E+00  0.0000E+00  0.0000E+00  0.0000E+00  0.0000E+00
    -50.746  0.0000E+00  0.0000E+00  0.0000E+00  0.0000E+00  0.0000E+00  0.0000E+00  0.0000E+00  0.0000E+00  0.0000E+00  0.0000E+00  0.0000E+00  0.0000E+00  0.0000E+00  0.0000E+00  0.0000E+00  0.0000E+00  0.0000E+00  0.0000E+00
    -50.528  0.0000E+00  0.0000E+00  0.0000E+00  0.0000E+00  0.0000E+00  0.0000E+00  0.0000E+00  0.0000E+00  0.0000E+00  0.0000E+00  0.0000E+00  0.0000E+00  0.0000E+00  0.0000E+00  0.0000E+00  0.0000E+00  0.0000E+00  0.0000E+00
    -50.311  0.0000E+00  0.0000E+00  0.0000E+00  0.0000E+00  0.0000E+00  0.0000E+00  0.0000E+00  0.0000E+00  0.0000E+00  0.0000E+00  0.0000E+00  0.0000E+00  0.0000E+00  0.0000E+00  0.0000E+00  0.0000E+00  0.0000E+00  0.0000E+00
    -50.093  0.0000E+00  0.0000E+00  0.0000E+00  0.0000E+00  0.0000E+00  0.0000E+00  0.0000E+00  0.0000E+00  0.0000E+00  0.0000E+00  0.0000E+00  0.0000E+00  0.0000E+00  0.0000E+00  0.0000E+00  0.0000E+00  0.0000E+00  0.0000E+00
    -49.876  0.0000E+00  0.0000E+00  0.0000E+00  0.0000E+00  0.0000E+00  0.0000E+00  0.0000E+00  0.0000E+00  0.0000E+00  0.0000E+00  0.0000E+00  0.0000E+00  0.0000E+00  0.0000E+00  0.0000E+00  0.0000E+00  0.0000E+00  0.0000E+00
    -49.658  0.0000E+00  0.0000E+00  0.0000E+00  0.0000E+00  0.0000E+00  0.0000E+00  0.0000E+00  0.0000E+00  0.0000E+00  0.0000E+00  0.0000E+00  0.0000E+00  0.0000E+00  0.0000E+00  0.0000E+00  0.0000E+00  0.0000E+00  0.0000E+00
    -49.440  0.6579E-10  0.8368E-12  0.3089E-06  0.5384E-10  0.1611E-05  0.6982E-11  0.1559E-04  0.3523E-10  0.9130E-12  0.2201E-11  0.8216E-15  0.2985E-12  0.3097E-10  0.2515E-12  0.3931E-11  0.1911E-14  0.9287E-10  0.1022E-11
    -49.223  0.3458E-04  0.2770E-05  0.9890E+00  0.1765E-03  0.2924E+01  0.1435E-04  0.1206E+01  0.2689E-05  0.3871E-05  0.1734E-06  0.3820E-09  0.5567E-06  0.1627E-04  0.8874E-06  0.1176E-04  0.9261E-09  0.4877E-04  0.3161E-05
    -49.005  0.1598E-03  0.8011E-05  0.3588E+01  0.5598E-03  0.1654E+01  0.4076E-05  0.1485E+01  0.2715E-05  0.1454E-04  0.1883E-06  0.7893E-09  0.1271E-06  0.7514E-04  0.3174E-05  0.6525E-05  0.4187E-09  0.2253E-03  0.1000E-04
    -48.788  0.9862E-04  0.8769E-08  0.1500E-02  0.4284E-06  0.3239E-03  0.3670E-08  0.1834E+01  0.1558E-05  0.4453E-08  0.1137E-06  0.4098E-09  0.5309E-10  0.4634E-04  0.3393E-08  0.1110E-08  0.1293E-09  0.1390E-03  0.4328E-08
    -48.570  0.4557E-06  0.2515E-10  0.4151E-11  0.1048E-08  0.7289E-13  0.1464E-10  0.5416E-01  0.3765E-07  0.4034E-12  0.2863E-08  0.2773E-11  0.1148E-11  0.2138E-06  0.9210E-11  0.1127E-12  0.6143E-11  0.6412E-06  0.1336E-11
    -48.353  0.0000E+00  0.0000E+00  0.0000E+00  0.0000E+00  0.0000E+00  0.0000E+00  0.0000E+00  0.0000E+00  0.0000E+00  0.0000E+00  0.0000E+00  0.0000E+00  0.0000E+00  0.0000E+00  0.0000E+00  0.0000E+00  0.0000E+00  0.0000E+00
    -48.135  0.0000E+00  0.0000E+00  0.0000E+00  0.0000E+00  0.0000E+00  0.0000E+00  0.0000E+00  0.0000E+00  0.0000E+00  0.0000E+00  0.0000E+00  0.0000E+00  0.0000E+00  0.0000E+00  0.0000E+00  0.0000E+00  0.0000E+00  0.0000E+00
    -47.918  0.0000E+00  0.0000E+00  0.0000E+00  0.0000E+00  0.0000E+00  0.0000E+00  0.0000E+00  0.0000E+00  0.0000E+00  0.0000E+00  0.0000E+00  0.0000E+00  0.0000E+00  0.0000E+00  0.0000E+00  0.0000E+00  0.0000E+00  0.0000E+00
    -47.700  0.0000E+00  0.0000E+00  0.0000E+00  0.0000E+00  0.0000E+00  0.0000E+00  0.0000E+00  0.0000E+00  0.0000E+00  0.0000E+00  0.0000E+00  0.0000E+00  0.0000E+00  0.0000E+00  0.0000E+00  0.0000E+00  0.0000E+00  0.0000E+00
    -47.483  0.0000E+00  0.0000E+00  0.0000E+00  0.0000E+00  0.0000E+00  0.0000E+00  0.0000E+00  0.0000E+00  0.0000E+00  0.0000E+00  0.0000E+00  0.0000E+00  0.0000E+00  0.0000E+00  0.0000E+00  0.0000E+00  0.0000E+00  0.0000E+00
    -47.265  0.0000E+00  0.0000E+00  0.0000E+00  0.0000E+00  0.0000E+00  0.0000E+00  0.0000E+00  0.0000E+00  0.0000E+00  0.0000E+00  0.0000E+00  0.0000E+00  0.0000E+00  0.0000E+00  0.0000E+00  0.0000E+00  0.0000E+00  0.0000E+00
    -47.048  0.8273E-18  0.1048E-16  0.5248E-16  0.2331E-12  0.1097E-17  0.2936E-12  0.1011E-16  0.3630E-11  0.7125E-18  0.9709E-18  0.9746E-19  0.3462E-21  0.2659E-18  0.4929E-17  0.4302E-21  0.1188E-17  0.9797E-18  0.1484E-16
    -46.830  0.8734E-06  0.2001E-05  0.5725E-04  0.2464E+00  0.1107E-05  0.2930E+00  0.5264E-06  0.1745E+00  0.3455E-07  0.1132E-05  0.9527E-07  0.7733E-10  0.2816E-06  0.9400E-06  0.4421E-10  0.1345E-05  0.1013E-05  0.2830E-05
    -46.613  0.6595E-05  0.1229E-03  0.4375E-03  0.1863E+01  0.8255E-05  0.2175E+01  0.4731E-05  0.1798E+01  0.3186E-06  0.8747E-05  0.7023E-06  0.2549E-08  0.2129E-05  0.5779E-04  0.3618E-09  0.1030E-04  0.7603E-05  0.1739E-03
    -46.395  0.3824E-05  0.1743E-03  0.1973E-03  0.1317E+01  0.1421E-05  0.1132E+01  0.2104E-05  0.1333E+01  0.1517E-06  0.6343E-05  0.8916E-07  0.3402E-08  0.1569E-05  0.8191E-04  0.1964E-09  0.5474E-05  0.4818E-05  0.2466E-03
    -46.178  0.3310E-05  0.4676E-04  0.1731E-03  0.1153E+01  0.1237E-05  0.9785E+00  0.1291E-05  0.1275E+01  0.9988E-07  0.5412E-05  0.7658E-07  0.1025E-08  0.1358E-05  0.2196E-04  0.1808E-09  0.4638E-05  0.4193E-05  0.6614E-04
    -45.960  0.2355E-13  0.5465E-09  0.8844E-12  0.2264E-13  0.2344E-15  0.1117E-13  0.8528E-10  0.1064E-03  0.7436E-11  0.5681E-15  0.1277E-14  0.1047E-13  0.8683E-14  0.2571E-09  0.1013E-13  0.4313E-15  0.7960E-14  0.7737E-09
    -45.742  0.0000E+00  0.0000E+00  0.0000E+00  0.0000E+00  0.0000E+00  0.0000E+00  0.0000E+00  0.0000E+00  0.0000E+00  0.0000E+00  0.0000E+00  0.0000E+00  0.0000E+00  0.0000E+00  0.0000E+00  0.0000E+00  0.0000E+00  0.0000E+00
    -45.525  0.0000E+00  0.0000E+00  0.0000E+00  0.0000E+00  0.0000E+00  0.0000E+00  0.0000E+00  0.0000E+00  0.0000E+00  0.0000E+00  0.0000E+00  0.0000E+00  0.0000E+00  0.0000E+00  0.0000E+00  0.0000E+00  0.0000E+00  0.0000E+00
    -45.307  0.0000E+00  0.0000E+00  0.0000E+00  0.0000E+00  0.0000E+00  0.0000E+00  0.0000E+00  0.0000E+00  0.0000E+00  0.0000E+00  0.0000E+00  0.0000E+00  0.0000E+00  0.0000E+00  0.0000E+00  0.0000E+00  0.0000E+00  0.0000E+00
    -45.090  0.0000E+00  0.0000E+00  0.0000E+00  0.0000E+00  0.0000E+00  0.0000E+00  0.0000E+00  0.0000E+00  0.0000E+00  0.0000E+00  0.0000E+00  0.0000E+00  0.0000E+00  0.0000E+00  0.0000E+00  0.0000E+00  0.0000E+00  0.0000E+00
    -44.872  0.0000E+00  0.0000E+00  0.0000E+00  0.0000E+00  0.0000E+00  0.0000E+00  0.0000E+00  0.0000E+00  0.0000E+00  0.0000E+00  0.0000E+00  0.0000E+00  0.0000E+00  0.0000E+00  0.0000E+00  0.0000E+00  0.0000E+00  0.0000E+00
    -44.655  0.0000E+00  0.0000E+00  0.0000E+00  0.0000E+00  0.0000E+00  0.0000E+00  0.0000E+00  0.0000E+00  0.0000E+00  0.0000E+00  0.0000E+00  0.0000E+00  0.0000E+00  0.0000E+00  0.0000E+00  0.0000E+00  0.0000E+00  0.0000E+00
    -44.437  0.0000E+00  0.0000E+00  0.0000E+00  0.0000E+00  0.0000E+00  0.0000E+00  0.0000E+00  0.0000E+00  0.0000E+00  0.0000E+00  0.0000E+00  0.0000E+00  0.0000E+00  0.0000E+00  0.0000E+00  0.0000E+00  0.0000E+00  0.0000E+00
    -44.220  0.0000E+00  0.0000E+00  0.0000E+00  0.0000E+00  0.0000E+00  0.0000E+00  0.0000E+00  0.0000E+00  0.0000E+00  0.0000E+00  0.0000E+00  0.0000E+00  0.0000E+00  0.0000E+00  0.0000E+00  0.0000E+00  0.0000E+00  0.0000E+00
    -44.002  0.0000E+00  0.0000E+00  0.0000E+00  0.0000E+00  0.0000E+00  0.0000E+00  0.0000E+00  0.0000E+00  0.0000E+00  0.0000E+00  0.0000E+00  0.0000E+00  0.0000E+00  0.0000E+00  0.0000E+00  0.0000E+00  0.0000E+00  0.0000E+00
    -43.785  0.0000E+00  0.0000E+00  0.0000E+00  0.0000E+00  0.0000E+00  0.0000E+00  0.0000E+00  0.0000E+00  0.0000E+00  0.0000E+00  0.0000E+00  0.0000E+00  0.0000E+00  0.0000E+00  0.0000E+00  0.0000E+00  0.0000E+00  0.0000E+00
    -43.567  0.0000E+00  0.0000E+00  0.0000E+00  0.0000E+00  0.0000E+00  0.0000E+00  0.0000E+00  0.0000E+00  0.0000E+00  0.0000E+00  0.0000E+00  0.0000E+00  0.0000E+00  0.0000E+00  0.0000E+00  0.0000E+00  0.0000E+00  0.0000E+00
    -43.350  0.0000E+00  0.0000E+00  0.0000E+00  0.0000E+00  0.0000E+00  0.0000E+00  0.0000E+00  0.0000E+00  0.0000E+00  0.0000E+00  0.0000E+00  0.0000E+00  0.0000E+00  0.0000E+00  0.0000E+00  0.0000E+00  0.0000E+00  0.0000E+00
    -43.132  0.0000E+00  0.0000E+00  0.0000E+00  0.0000E+00  0.0000E+00  0.0000E+00  0.0000E+00  0.0000E+00  0.0000E+00  0.0000E+00  0.0000E+00  0.0000E+00  0.0000E+00  0.0000E+00  0.0000E+00  0.0000E+00  0.0000E+00  0.0000E+00
    -42.915  0.0000E+00  0.0000E+00  0.0000E+00  0.0000E+00  0.0000E+00  0.0000E+00  0.0000E+00  0.0000E+00  0.0000E+00  0.0000E+00  0.0000E+00  0.0000E+00  0.0000E+00  0.0000E+00  0.0000E+00  0.0000E+00  0.0000E+00  0.0000E+00
    -42.697  0.0000E+00  0.0000E+00  0.0000E+00  0.0000E+00  0.0000E+00  0.0000E+00  0.0000E+00  0.0000E+00  0.0000E+00  0.0000E+00  0.0000E+00  0.0000E+00  0.0000E+00  0.0000E+00  0.0000E+00  0.0000E+00  0.0000E+00  0.0000E+00
    -42.480  0.0000E+00  0.0000E+00  0.0000E+00  0.0000E+00  0.0000E+00  0.0000E+00  0.0000E+00  0.0000E+00  0.0000E+00  0.0000E+00  0.0000E+00  0.0000E+00  0.0000E+00  0.0000E+00  0.0000E+00  0.0000E+00  0.0000E+00  0.0000E+00
    -42.262  0.0000E+00  0.0000E+00  0.0000E+00  0.0000E+00  0.0000E+00  0.0000E+00  0.0000E+00  0.0000E+00  0.0000E+00  0.0000E+00  0.0000E+00  0.0000E+00  0.0000E+00  0.0000E+00  0.0000E+00  0.0000E+00  0.0000E+00  0.0000E+00
    -42.045  0.0000E+00  0.0000E+00  0.0000E+00  0.0000E+00  0.0000E+00  0.0000E+00  0.0000E+00  0.0000E+00  0.0000E+00  0.0000E+00  0.0000E+00  0.0000E+00  0.0000E+00  0.0000E+00  0.0000E+00  0.0000E+00  0.0000E+00  0.0000E+00
    -41.827  0.0000E+00  0.0000E+00  0.0000E+00  0.0000E+00  0.0000E+00  0.0000E+00  0.0000E+00  0.0000E+00  0.0000E+00  0.0000E+00  0.0000E+00  0.0000E+00  0.0000E+00  0.0000E+00  0.0000E+00  0.0000E+00  0.0000E+00  0.0000E+00
    -41.609  0.0000E+00  0.0000E+00  0.0000E+00  0.0000E+00  0.0000E+00  0.0000E+00  0.0000E+00  0.0000E+00  0.0000E+00  0.0000E+00  0.0000E+00  0.0000E+00  0.0000E+00  0.0000E+00  0.0000E+00  0.0000E+00  0.0000E+00  0.0000E+00
    -41.392  0.0000E+00  0.0000E+00  0.0000E+00  0.0000E+00  0.0000E+00  0.0000E+00  0.0000E+00  0.0000E+00  0.0000E+00  0.0000E+00  0.0000E+00  0.0000E+00  0.0000E+00  0.0000E+00  0.0000E+00  0.0000E+00  0.0000E+00  0.0000E+00