  16  16   1   0
  0.1687500E+02  0.7214054E-09  0.7214054E-09  0.5262138E-09  0.5000000E-15
  1.000000000000000E-004
  CAR 
 unknown system                          
     12.93219967    -52.26354784  301      5.23365525      1.00000000
    -52.264  0.0000E+00  0.0000E+00  0.0000E+00  0.0000E+00
    -52.046  0.0000E+00  0.0000E+00  0.0000E+00  0.0000E+00
    -51.829  0.0000E+00  0.0000E+00  0.0000E+00  0.0000E+00
    -51.612  0.0000E+00  0.0000E+00  0.0000E+00  0.0000E+00
    -51.394  0.0000E+00  0.0000E+00  0.0000E+00  0.0000E+00
    -51.177  0.0000E+00  0.0000E+00  0.0000E+00  0.0000E+00
    -50.960  0.0000E+00  0.0000E+00  0.0000E+00  0.0000E+00
    -50.742  0.0000E+00  0.0000E+00  0.0000E+00  0.0000E+00
    -50.525  0.0000E+00  0.0000E+00  0.0000E+00  0.0000E+00
    -50.308  0.0000E+00  0.0000E+00  0.0000E+00  0.0000E+00
    -50.090  0.0000E+00  0.0000E+00  0.0000E+00  0.0000E+00
    -49.873  0.0000E+00  0.0000E+00  0.0000E+00  0.0000E+00
    -49.656  0.0000E+00  0.0000E+00  0.0000E+00  0.0000E+00
    -49.438  0.9367E-06  0.9367E-06  0.2036E-06  0.2036E-06
    -49.221  0.2184E+00  0.2184E+00  0.4747E-01  0.4747E-01
    -49.004  0.2656E+00  0.2656E+00  0.1052E+00  0.1052E+00
    -48.786  0.7291E-01  0.7291E-01  0.1210E+00  0.1210E+00
    -48.569  0.8725E-03  0.8725E-03  0.1212E+00  0.1212E+00
    -48.352  0.0000E+00  0.0000E+00  0.1212E+00  0.1212E+00
    -48.134  0.0000E+00  0.0000E+00  0.1212E+00  0.1212E+00
    -47.917  0.0000E+00  0.0000E+00  0.1212E+00  0.1212E+00
    -47.700  0.0000E+00  0.0000E+00  0.1212E+00  0.1212E+00
    -47.483  0.0000E+00  0.0000E+00  0.1212E+00  0.1212E+00
    -47.265  0.0000E+00  0.0000E+00  0.1212E+00  0.1212E+00
    -47.048  0.8596E-13  0.8596E-13  0.1212E+00  0.1212E+00
    -46.831  0.3174E-01  0.3174E-01  0.1281E+00  0.1281E+00
    -46.613  0.2340E+00  0.2340E+00  0.1790E+00  0.1790E+00
    -46.396  0.1775E+00  0.1775E+00  0.2176E+00  0.2176E+00
    -46.179  0.1144E+00  0.1144E+00  0.2424E+00  0.2424E+00
    -45.961  0.1615E-05  0.1615E-05  0.2424E+00  0.2424E+00
    -45.744  0.0000E+00  0.0000E+00  0.2424E+00  0.2424E+00
    -45.527  0.0000E+00  0.0000E+00  0.2424E+00  0.2424E+00
    -45.309  0.0000E+00  0.0000E+00  0.2424E+00  0.2424E+00
    -45.092  0.0000E+00  0.0000E+00  0.2424E+00  0.2424E+00
    -44.875  0.0000E+00  0.0000E+00  0.2424E+00  0.2424E+00
    -44.657  0.0000E+00  0.0000E+00  0.2424E+00  0.2424E+00
    -44.440  0.0000E+00  0.0000E+00  0.2424E+00  0.2424E+00
    -44.223  0.0000E+00  0.0000E+00  0.2424E+00  0.2424E+00
    -44.005  0.0000E+00  0.0000E+00  0.2424E+00  0.2424E+00
    -43.788  0.0000E+00  0.0000E+00  0.2424E+00  0.2424E+00
    -43.571  0.0000E+00  0.0000E+00  0.2424E+00  0.2424E+00
    -43.353  0.0000E+00  0.0000E+00  0.2424E+00  0.2424E+00
    -43.136  0.0000E+00  0.0000E+00  0.2424E+00  0.2424E+00
    -42.919  0.0000E+00  0.0000E+00  0.2424E+00  0.2424E+00
    -42.702  0.0000E+00  0.0000E+00  0.2424E+00  0.2424E+00
    -42.484  0.0000E+00  0.0000E+00  0.2424E+00  0.2424E+00
    -42.267  0.0000E+00  0.0000E+00  0.2424E+00  0.2424E+00
    -42.050  0.0000E+00  0.0000E+00  0.2424E+00  0.2424E+00
    -41.832  0.0000E+00  0.0000E+00  0.2424E+00  0.2424E+00
    -41.615  0.0000E+00  0.0000E+00  0.2424E+00  0.2424E+00
    -41.398  0.0000E+00  0.0000E+00  0.2424E+00  0.2424E+00
    -41.180  0.0000E+00  0.0000E+00  0.2424E+00  0.2424E+00
    -40.963  0.0000E+00  0.0000E+00  0.2424E+00  0.2424E+00
    -40.746  0.0000E+00  0.0000E+00  0.2424E+00  0.2424E+00
    -40.528  0.0000E+00  0.0000E+00  0.2424E+00  0.2424E+00
    -40.311  0.0000E+00  0.0000E+00  0.2424E+00  0.2424E+00
    -40.094  0.0000E+00  0.0000E+00  0.2424E+00  0.2424E+00
    -39.876  0.0000E+00  0.0000E+00  0.2424E+00  0.2424E+00
    -39.659  0.0000E+00  0.0000E+00  0.2424E+00  0.2424E+00
    -39.442  0.0000E+00  0.0000E+00  0.2424E+00  0.2424E+00
    -39.224  0.0000E+00  0.0000E+00  0.2424E+00  0.2424E+00
    -39.007  0.0000E+00  0.0000E+00  0.2424E+00  0.2424E+00
    -38.790  0.0000E+00  0.0000E+00  0.2424E+00  0.2424E+00
    -38.572  0.0000E+00  0.0000E+00  0.2424E+00  0.2424E+00
    -38.355  0.0000E+00  0.0000E+00  0.2424E+00  0.2424E+00
    -38.138  0.0000E+00  0.0000E+00  0.2424E+00  0.2424E+00
    -37.920  0.0000E+00  0.0000E+00  0.2424E+00  0.2424E+00
    -37.703  0.0000E+00  0.0000E+00  0.2424E+00  0.2424E+00
    -37.486  0.0000E+00  0.0000E+00  0.2424E+00  0.2424E+00
    -37.269  0.0000E+00  0.0000E+00  0.2424E+00  0.2424E+00
    -37.051  0.0000E+00  0.0000E+00  0.2424E+00  0.2424E+00
    -36.834  0.0000E+00  0.0000E+00  0.2424E+00  0.2424E+00
    -36.617  0.0000E+00  0.0000E+00  0.2424E+00  0.2424E+00
    -36.399  0.0000E+00  0.0000E+00  0.2424E+00  0.2424E+00
    -36.182  0.0000E+00  0.0000E+00  0.2424E+00  0.2424E+00
    -35.965  0.0000E+00  0.0000E+00  0.2424E+00  0.2424E+00
    -35.747  0.0000E+00  0.0000E+00  0.2424E+00  0.2424E+00
    -35.530  0.0000E+00  0.0000E+00  0.2424E+00  0.2424E+00
    -35.313  0.0000E+00  0.0000E+00  0.2424E+00  0.2424E+00
    -35.095  0.0000E+00  0.0000E+00  0.2424E+00  0.2424E+00
    -34.878  0.0000E+00  0.0000E+00  0.2424E+00  0.2424E+00
    -34.661  0.0000E+00  0.0000E+00  0.2424E+00  0.2424E+00
    -34.443  0.0000E+00  0.0000E+00  0.2424E+00  0.2424E+00
    -34.226  0.0000E+00  0.0000E+00  0.2424E+00  0.2424E+00
    -34.009  0.0000E+00  0.0000E+00  0.2424E+00  0.2424E+00
    -33.791  0.0000E+00  0.0000E+00  0.2424E+00  0.2424E+00
    -33.574  0.0000E+00  0.0000E+00  0.2424E+00  0.2424E+00
    -33.357  0.0000E+00  0.0000E+00  0.2424E+00  0.2424E+00
    -33.139  0.0000E+00  0.0000E+00  0.2424E+00  0.2424E+00
    -32.922  0.0000E+00  0.0000E+00  0.2424E+00  0.2424E+00
    -32.705  0.0000E+00  0.0000E+00  0.2424E+00  0.2424E+00
    -32.488  0.0000E+00  0.0000E+00  0.2424E+00  0.2424E+00
    -32.270  0.0000E+00  0.0000E+00  0.2424E+00  0.2424E+00
    -32.053  0.0000E+00  0.0000E+00  0.2424E+00  0.2424E+00
    -31.836  0.0000E+00  0.0000E+00  0.2424E+00  0.2424E+00
    -31.618  0.0000E+00  0.0000E+00  0.2424E+00  0.2424E+00
    -31.401  0.0000E+00  0.0000E+00  0.2424E+00  0.2424E+00
    -31.184  0.0000E+00  0.0000E+00  0.2424E+00  0.2424E+00
    -30.966  0.0000E+00  0.0000E+00  0.2424E+00  0.2424E+00
    -30.749  0.0000E+00  0.0000E+00  0.2424E+00  0.2424E+00
    -30.532  0.0000E+00  0.0000E+00  0.2424E+00  0.2424E+00
    -30.314  0.0000E+00  0.0000E+00  0.2424E+00  0.2424E+00
    -30.097  0.0000E+00  0.0000E+00  0.2424E+00  0.2424E+00
    -29.880  0.0000E+00  0.0000E+00  0.2424E+00  0.2424E+00
    -29.662  0.0000E+00  0.0000E+00  0.2424E+00  0.2424E+00
    -29.445  0.0000E+00  0.0000E+00  0.2424E+00  0.2424E+00
    -29.228  0.0000E+00  0.0000E+00  0.2424E+00  0.2424E+00
    -29.010  0.0000E+00  0.0000E+00  0.2424E+00  0.2424E+00
    -28.793  0.0000E+00  0.0000E+00  0.2424E+00  0.2424E+00
    -28.576  0.0000E+00  0.0000E+00  0.2424E+00  0.2424E+00
    -28.358  0.0000E+00  0.0000E+00  0.2424E+00  0.2424E+00
    -28.141  0.0000E+00  0.0000E+00  0.2424E+00  0.2424E+00
    -27.924  0.0000E+00  0.0000E+00  0.2424E+00  0.2424E+00
    -27.706  0.0000E+00  0.0000E+00  0.2424E+00  0.2424E+00
    -27.489  0.0000E+00  0.0000E+00  0.2424E+00  0.2424E+00
    -27.272  0.0000E+00  0.0000E+00  0.2424E+00  0.2424E+00
    -27.055  0.0000E+00  0.0000E+00  0.2424E+00  0.2424E+00
    -26.837  0.0000E+00  0.0000E+00  0.2424E+00  0.2424E+00
    -26.620  0.0000E+00  0.0000E+00  0.2424E+00  0.2424E+00
    -26.403  0.0000E+00  0.0000E+00  0.2424E+00  0.2424E+00
    -26.185  0.0000E+00  0.0000E+00  0.2424E+00  0.2424E+00
    -25.968  0.0000E+00  0.0000E+00  0.2424E+00  0.2424E+00
    -25.751  0.0000E+00  0.0000E+00  0.2424E+00  0.2424E+00
    -25.533  0.0000E+00  0.0000E+00  0.2424E+00  0.2424E+00
    -25.316  0.0000E+00  0.0000E+00  0.2424E+00  0.2424E+00
    -25.099  0.0000E+00  0.0000E+00  0.2424E+00  0.2424E+00
    -24.881  0.0000E+00  0.0000E+00  0.2424E+00  0.2424E+00
    -24.664  0.0000E+00  0.0000E+00  0.2424E+00  0.2424E+00
    -24.447  0.0000E+00  0.0000E+00  0.2424E+00  0.2424E+00
    -24.229  0.0000E+00  0.0000E+00  0.2424E+00  0.2424E+00
    -24.012  0.0000E+00  0.0000E+00  0.2424E+00  0.2424E+00
    -23.795  0.0000E+00  0.0000E+00  0.2424E+00  0.2424E+00
    -23.577  0.0000E+00  0.0000E+00  0.2424E+00  0.2424E+00
    -23.360  0.0000E+00  0.0000E+00  0.2424E+00  0.2424E+00
    -23.143  0.0000E+00  0.0000E+00  0.2424E+00  0.2424E+00
    -22.925  0.0000E+00  0.0000E+00  0.2424E+00  0.2424E+00
    -22.708  0.0000E+00  0.0000E+00  0.2424E+00  0.2424E+00
    -22.491  0.0000E+00  0.0000E+00  0.2424E+00  0.2424E+00
    -22.274  0.0000E+00  0.0000E+00  0.2424E+00  0.2424E+00
    -22.056  0.0000E+00  0.0000E+00  0.2424E+00  0.2424E+00
    -21.839  0.0000E+00  0.0000E+00  0.2424E+00  0.2424E+00
    -21.622  0.0000E+00  0.0000E+00  0.2424E+00  0.2424E+00
    -21.404  0.0000E+00  0.0000E+00  0.2424E+00  0.2424E+00
    -21.187  0.0000E+00  0.0000E+00  0.2424E+00  0.2424E+00
    -20.970  0.0000E+00  0.0000E+00  0.2424E+00  0.2424E+00
    -20.752  0.0000E+00  0.0000E+00  0.2424E+00  0.2424E+00
    -20.535  0.0000E+00  0.0000E+00  0.2424E+00  0.2424E+00
    -20.318  0.0000E+00  0.0000E+00  0.2424E+00  0.2424E+00
    -20.100  0.0000E+00  0.0000E+00  0.2424E+00  0.2424E+00
    -19.883  0.0000E+00  0.0000E+00  0.2424E+00  0.2424E+00
    -19.666  0.0000E+00  0.0000E+00  0.2424E+00  0.2424E+00
    -19.448  0.0000E+00  0.0000E+00  0.2424E+00  0.2424E+00
    -19.231  0.0000E+00  0.0000E+00  0.2424E+00  0.2424E+00
    -19.014  0.0000E+00  0.0000E+00  0.2424E+00  0.2424E+00
    -18.796  0.0000E+00  0.0000E+00  0.2424E+00  0.2424E+00
    -18.579  0.0000E+00  0.0000E+00  0.2424E+00  0.2424E+00
    -18.362  0.0000E+00  0.0000E+00  0.2424E+00  0.2424E+00
    -18.144  0.0000E+00  0.0000E+00  0.2424E+00  0.2424E+00
    -17.927  0.0000E+00  0.0000E+00  0.2424E+00  0.2424E+00
    -17.710  0.0000E+00  0.0000E+00  0.2424E+00  0.2424E+00
    -17.492  0.0000E+00  0.0000E+00  0.2424E+00  0.2424E+00
    -17.275  0.0000E+00  0.0000E+00  0.2424E+00  0.2424E+00
    -17.058  0.0000E+00  0.0000E+00  0.2424E+00  0.2424E+00
    -16.841  0.0000E+00  0.0000E+00  0.2424E+00  0.2424E+00
    -16.623  0.0000E+00  0.0000E+00  0.2424E+00  0.2424E+00
    -16.406  0.0000E+00  0.0000E+00  0.2424E+00  0.2424E+00
    -16.189  0.0000E+00  0.0000E+00  0.2424E+00  0.2424E+00
    -15.971  0.0000E+00  0.0000E+00  0.2424E+00  0.2424E+00
    -15.754  0.0000E+00  0.0000E+00  0.2424E+00  0.2424E+00
    -15.537  0.0000E+00  0.0000E+00  0.2424E+00  0.2424E+00
    -15.319  0.0000E+00  0.0000E+00  0.2424E+00  0.2424E+00
    -15.102  0.0000E+00  0.0000E+00  0.2424E+00  0.2424E+00
    -14.885  0.0000E+00  0.0000E+00  0.2424E+00  0.2424E+00
    -14.667  0.0000E+00  0.0000E+00  0.2424E+00  0.2424E+00
    -14.450  0.0000E+00  0.0000E+00  0.2424E+00  0.2424E+00
    -14.233  0.0000E+00  0.0000E+00  0.2424E+00  0.2424E+00
    -14.015  0.0000E+00  0.0000E+00  0.2424E+00  0.2424E+00
    -13.798  0.0000E+00  0.0000E+00  0.2424E+00  0.2424E+00
    -13.581  0.0000E+00  0.0000E+00  0.2424E+00  0.2424E+00
    -13.363  0.0000E+00  0.0000E+00  0.2424E+00  0.2424E+00
    -13.146  0.0000E+00  0.0000E+00  0.2424E+00  0.2424E+00
    -12.929  0.0000E+00  0.0000E+00  0.2424E+00  0.2424E+00
    -12.711  0.0000E+00  0.0000E+00  0.2424E+00  0.2424E+00
    -12.494  0.0000E+00  0.0000E+00  0.2424E+00  0.2424E+00
    -12.277  0.0000E+00  0.0000E+00  0.2424E+00  0.2424E+00
    -12.060  0.0000E+00  0.0000E+00  0.2424E+00  0.2424E+00
    -11.842  0.0000E+00  0.0000E+00  0.2424E+00  0.2424E+00
    -11.625  0.0000E+00  0.0000E+00  0.2424E+00  0.2424E+00
    -11.408  0.0000E+00  0.0000E+00  0.2424E+00  0.2424E+00
    -11.190  0.0000E+00  0.0000E+00  0.2424E+00  0.2424E+00
    -10.973  0.0000E+00  0.0000E+00  0.2424E+00  0.2424E+00
    -10.756  0.0000E+00  0.0000E+00  0.2424E+00  0.2424E+00
    -10.538  0.0000E+00  0.0000E+00  0.2424E+00  0.2424E+00
    -10.321  0.1603E-09  0.1603E-09  0.2424E+00  0.2424E+00
    -10.104  0.8006E-03  0.8006E-03  0.2426E+00  0.2426E+00
     -9.886  0.7593E-02  0.7593E-02  0.2442E+00  0.2442E+00
     -9.669  0.1475E-01  0.1475E-01  0.2475E+00  0.2475E+00
     -9.452  0.1786E-01  0.1786E-01  0.2513E+00  0.2513E+00
     -9.234  0.1863E-01  0.1863E-01  0.2554E+00  0.2554E+00
     -9.017  0.2200E-01  0.2200E-01  0.2602E+00  0.2602E+00
     -8.800  0.2169E-01  0.2169E-01  0.2649E+00  0.2649E+00
     -8.582  0.2671E-01  0.2671E-01  0.2707E+00  0.2707E+00
     -8.365  0.4039E-01  0.4039E-01  0.2795E+00  0.2795E+00
     -8.148  0.3622E-01  0.3622E-01  0.2873E+00  0.2873E+00
     -7.930  0.4886E-01  0.4886E-01  0.2979E+00  0.2979E+00
     -7.713  0.4775E-01  0.4775E-01  0.3083E+00  0.3083E+00
     -7.496  0.4778E-01  0.4778E-01  0.3187E+00  0.3187E+00
     -7.278  0.2019E-01  0.2019E-01  0.3231E+00  0.3231E+00
     -7.061  0.6237E-03  0.6237E-03  0.3232E+00  0.3232E+00
     -6.844  0.0000E+00  0.0000E+00  0.3232E+00  0.3232E+00
     -6.627  0.0000E+00  0.0000E+00  0.3232E+00  0.3232E+00
     -6.409  0.0000E+00  0.0000E+00  0.3232E+00  0.3232E+00
     -6.192  0.0000E+00  0.0000E+00  0.3232E+00  0.3232E+00
     -5.975  0.0000E+00  0.0000E+00  0.3232E+00  0.3232E+00
     -5.757  0.0000E+00  0.0000E+00  0.3232E+00  0.3232E+00
     -5.540  0.0000E+00  0.0000E+00  0.3232E+00  0.3232E+00
     -5.323  0.0000E+00  0.0000E+00  0.3232E+00  0.3232E+00
     -5.105  0.0000E+00  0.0000E+00  0.3232E+00  0.3232E+00
     -4.888  0.0000E+00  0.0000E+00  0.3232E+00  0.3232E+00
     -4.671  0.0000E+00  0.0000E+00  0.3232E+00  0.3232E+00
     -4.453  0.0000E+00  0.0000E+00  0.3232E+00  0.3232E+00
     -4.236  0.0000E+00  0.0000E+00  0.3232E+00  0.3232E+00
     -4.019  0.0000E+00  0.0000E+00  0.3232E+00  0.3232E+00
     -3.801  0.0000E+00  0.0000E+00  0.3232E+00  0.3232E+00
     -3.584  0.0000E+00  0.0000E+00  0.3232E+00  0.3232E+00
     -3.367  0.0000E+00  0.0000E+00  0.3232E+00  0.3232E+00
     -3.149  0.0000E+00  0.0000E+00  0.3232E+00  0.3232E+00
     -2.932  0.0000E+00  0.0000E+00  0.3232E+00  0.3232E+00
     -2.715  0.0000E+00  0.0000E+00  0.3232E+00  0.3232E+00
     -2.497  0.0000E+00  0.0000E+00  0.3232E+00  0.3232E+00
     -2.280  0.0000E+00  0.0000E+00  0.3232E+00  0.3232E+00
     -2.063  0.0000E+00  0.0000E+00  0.3232E+00  0.3232E+00
     -1.846  0.0000E+00  0.0000E+00  0.3232E+00  0.3232E+00
     -1.628  0.7143E-06  0.7143E-06  0.3232E+00  0.3232E+00
     -1.411  0.4907E-02  0.4907E-02  0.3243E+00  0.3243E+00
     -1.194  0.2323E-01  0.2323E-01  0.3293E+00  0.3293E+00
     -0.976  0.4809E-01  0.4809E-01  0.3398E+00  0.3398E+00
     -0.759  0.7034E-01  0.7034E-01  0.3551E+00  0.3551E+00
     -0.542  0.6099E-01  0.6099E-01  0.3683E+00  0.3683E+00
     -0.324  0.6135E-01  0.6135E-01  0.3817E+00  0.3817E+00
     -0.107  0.3570E-01  0.3570E-01  0.3894E+00  0.3894E+00
      0.110  0.2968E-01  0.2968E-01  0.3959E+00  0.3959E+00
      0.328  0.3588E-01  0.3588E-01  0.4037E+00  0.4037E+00
      0.545  0.3937E-01  0.3937E-01  0.4122E+00  0.4122E+00
      0.762  0.3730E-01  0.3730E-01  0.4203E+00  0.4203E+00
      0.980  0.3879E-01  0.3879E-01  0.4288E+00  0.4288E+00
      1.197  0.7388E-01  0.7388E-01  0.4448E+00  0.4448E+00
      1.414  0.9651E-01  0.9651E-01  0.4658E+00  0.4658E+00
      1.632  0.8861E-01  0.8861E-01  0.4851E+00  0.4851E+00
      1.849  0.1118E+00  0.1118E+00  0.5094E+00  0.5094E+00
      2.066  0.7609E-01  0.7609E-01  0.5259E+00  0.5259E+00
      2.284  0.8406E-01  0.8406E-01  0.5442E+00  0.5442E+00
      2.501  0.7724E-01  0.7724E-01  0.5609E+00  0.5609E+00
      2.718  0.1032E+00  0.1032E+00  0.5834E+00  0.5834E+00
      2.936  0.9835E-01  0.9835E-01  0.6047E+00  0.6047E+00
      3.153  0.9835E-01  0.9835E-01  0.6261E+00  0.6261E+00
      3.370  0.1382E+00  0.1382E+00  0.6562E+00  0.6562E+00
      3.587  0.1309E+00  0.1309E+00  0.6846E+00  0.6846E+00
      3.805  0.1047E+00  0.1047E+00  0.7073E+00  0.7073E+00
      4.022  0.9547E-01  0.9547E-01  0.7281E+00  0.7281E+00
      4.239  0.7733E-01  0.7733E-01  0.7449E+00  0.7449E+00
      4.457  0.6870E-01  0.6870E-01  0.7598E+00  0.7598E+00
      4.674  0.4650E-01  0.4650E-01  0.7699E+00  0.7699E+00
      4.891  0.5556E-01  0.5556E-01  0.7820E+00  0.7820E+00
      5.109  0.7578E-01  0.7578E-01  0.7985E+00  0.7985E+00
      5.326  0.7548E-01  0.7548E-01  0.8149E+00  0.8149E+00
      5.543  0.8347E-01  0.8347E-01  0.8330E+00  0.8330E+00
      5.761  0.1109E+00  0.1109E+00  0.8571E+00  0.8571E+00
      5.978  0.9569E-01  0.9569E-01  0.8779E+00  0.8779E+00
      6.195  0.8308E-01  0.8308E-01  0.8960E+00  0.8960E+00
      6.413  0.8236E-01  0.8236E-01  0.9139E+00  0.9139E+00
      6.630  0.7923E-01  0.7922E-01  0.9311E+00  0.9311E+00
      6.847  0.9218E-01  0.9218E-01  0.9511E+00  0.9511E+00
      7.065  0.3004E-01  0.3004E-01  0.9577E+00  0.9577E+00
      7.282  0.1572E-01  0.1572E-01  0.9611E+00  0.9611E+00
      7.499  0.1654E-01  0.1654E-01  0.9647E+00  0.9647E+00
      7.717  0.1812E-01  0.1812E-01  0.9686E+00  0.9686E+00
      7.934  0.1087E-01  0.1087E-01  0.9710E+00  0.9710E+00
      8.151  0.7548E-02  0.7548E-02  0.9726E+00  0.9726E+00
      8.368  0.1170E-01  0.1170E-01  0.9751E+00  0.9751E+00
      8.586  0.1555E-01  0.1555E-01  0.9785E+00  0.9785E+00
      8.803  0.2177E-01  0.2173E-01  0.9833E+00  0.9833E+00
      9.020  0.3032E-01  0.3030E-01  0.9898E+00  0.9898E+00
      9.238  0.3749E-01  0.3738E-01  0.9980E+00  0.9980E+00
      9.455  0.3111E-01  0.3115E-01  0.1005E+01  0.1005E+01
      9.672  0.1540E-01  0.1555E-01  0.1008E+01  0.1008E+01
      9.890  0.7096E-02  0.7341E-02  0.1010E+01  0.1010E+01
     10.107  0.2095E-02  0.1832E-02  0.1010E+01  0.1010E+01
     10.324  0.4769E-07  0.3866E-07  0.1010E+01  0.1010E+01
     10.542  0.0000E+00  0.0000E+00  0.1010E+01  0.1010E+01
     10.759  0.0000E+00  0.0000E+00  0.1010E+01  0.1010E+01
     10.976  0.0000E+00  0.0000E+00  0.1010E+01  0.1010E+01
     11.194  0.0000E+00  0.0000E+00  0.1010E+01  0.1010E+01
     11.411  0.0000E+00  0.0000E+00  0.1010E+01  0.1010E+01
     11.628  0.0000E+00  0.0000E+00  0.1010E+01  0.1010E+01
     11.846  0.0000E+00  0.0000E+00  0.1010E+01  0.1010E+01
     12.063  0.0000E+00  0.0000E+00  0.1010E+01  0.1010E+01
     12.280  0.0000E+00  0.0000E+00  0.1010E+01  0.1010E+01
     12.498  0.0000E+00  0.0000E+00  0.1010E+01  0.1010E+01
     12.715  0.0000E+00  0.0000E+00  0.1010E+01  0.1010E+01
     12.932  0.0000E+00  0.0000E+00  0.1010E+01  0.1010E+01
     12.93219967    -52.26354784  301      5.23365525      1.00000000
    -52.264  0.0000E+00  0.0000E+00  0.0000E+00  0.0000E+00  0.0000E+00  0.0000E+00  0.0000E+00  0.0000E+00  0.0000E+00  0.0000E+00  0.0000E+00  0.0000E+00  0.0000E+00  0.0000E+00  0.0000E+00  0.0000E+00  0.0000E+00  0.0000E+00
    -52.046  0.0000E+00  0.0000E+00  0.0000E+00  0.0000E+00  0.0000E+00  0.0000E+00  0.0000E+00  0.0000E+00  0.0000E+00  0.0000E+00  0.0000E+00  0.0000E+00  0.0000E+00  0.0000E+00  0.0000E+00  0.0000E+00  0.0000E+00  0.0000E+00
    -51.829  0.0000E+00  0.0000E+00  0.0000E+00  0.0000E+00  0.0000E+00  0.0000E+00  0.0000E+00  0.0000E+00  0.0000E+00  0.0000E+00  0.0000E+00  0.0000E+00  0.0000E+00  0.0000E+00  0.0000E+00  0.0000E+00  0.0000E+00  0.0000E+00
    -51.612  0.0000E+00  0.0000E+00  0.0000E+00  0.0000E+00  0.0000E+00  0.0000E+00  0.0000E+00  0.0000E+00  0.0000E+00  0.0000E+00  0.0000E+00  0.0000E+00  0.0000E+00  0.0000E+00  0.0000E+00  0.0000E+00  0.0000E+00  0.0000E+00
    -51.394  0.0000E+00  0.0000E+00  0.0000E+00  0.0000E+00  0.0000E+00  0.0000E+00  0.0000E+00  0.0000E+00  0.0000E+00  0.0000E+00  0.0000E+00  0.0000E+00  0.0000E+00  0.0000E+00  0.0000E+00  0.0000E+00  0.0000E+00  0.0000E+00
    -51.177  0.0000E+00  0.0000E+00  0.0000E+00  0.0000E+00  0.0000E+00  0.0000E+00  0.0000E+00  0.0000E+00  0.0000E+00  0.0000E+00  0.0000E+00  0.0000E+00  0.0000E+00  0.0000E+00  0.0000E+00  0.0000E+00  0.0000E+00  0.0000E+00
    -50.960  0.0000E+00  0.0000E+00  0.0000E+00  0.0000E+00  0.0000E+00  0.0000E+00  0.0000E+00  0.0000E+00  0.0000E+00  0.0000E+00  0.0000E+00  0.0000E+00  0.0000E+00  0.0000E+00  0.0000E+00  0.0000E+00  0.0000E+00  0.0000E+00
    -50.742  0.0000E+00  0.0000E+00  0.0000E+00  0.0000E+00  0.0000E+00  0.0000E+00  0.0000E+00  0.0000E+00  0.0000E+00  0.0000E+00  0.0000E+00  0.0000E+00  0.0000E+00  0.0000E+00  0.0000E+00  0.0000E+00  0.0000E+00  0.0000E+00
    -50.525  0.0000E+00  0.0000E+00  0.0000E+00  0.0000E+00  0.0000E+00  0.0000E+00  0.0000E+00  0.0000E+00  0.0000E+00  0.0000E+00  0.0000E+00  0.0000E+00  0.0000E+00  0.0000E+00  0.0000E+00  0.0000E+00  0.0000E+00  0.0000E+00
    -50.308  0.0000E+00  0.0000E+00  0.0000E+00  0.0000E+00  0.0000E+00  0.0000E+00  0.0000E+00  0.0000E+00  0.0000E+00  0.0000E+00  0.0000E+00  0.0000E+00  0.0000E+00  0.0000E+00  0.0000E+00  0.0000E+00  0.0000E+00  0.0000E+00
    -50.090  0.0000E+00  0.0000E+00  0.0000E+00  0.0000E+00  0.0000E+00  0.0000E+00  0.0000E+00  0.0000E+00  0.0000E+00  0.0000E+00  0.0000E+00  0.0000E+00  0.0000E+00  0.0000E+00  0.0000E+00  0.0000E+00  0.0000E+00  0.0000E+00
    -49.873  0.0000E+00  0.0000E+00  0.0000E+00  0.0000E+00  0.0000E+00  0.0000E+00  0.0000E+00  0.0000E+00  0.0000E+00  0.0000E+00  0.0000E+00  0.0000E+00  0.0000E+00  0.0000E+00  0.0000E+00  0.0000E+00  0.0000E+00  0.0000E+00
    -49.656  0.0000E+00  0.0000E+00  0.0000E+00  0.0000E+00  0.0000E+00  0.0000E+00  0.0000E+00  0.0000E+00  0.0000E+00  0.0000E+00  0.0000E+00  0.0000E+00  0.0000E+00  0.0000E+00  0.0000E+00  0.0000E+00  0.0000E+00  0.0000E+00
    -49.438  0.6565E-10  0.3152E-11  0.9992E-06  0.2030E-09  0.5912E-05  0.2786E-10  0.1614E-04  0.4224E-10  0.2776E-11  0.2634E-11  0.4597E-15  0.1228E-11  0.3084E-10  0.9553E-12  0.1367E-10  0.3654E-14  0.9242E-10  0.3860E-11
    -49.221  0.3385E-04  0.3098E-05  0.9512E+00  0.1976E-03  0.3200E+01  0.1681E-04  0.1229E+01  0.3155E-05  0.3427E-05  0.2005E-06  0.1979E-09  0.6793E-06  0.1589E-04  0.1007E-05  0.1189E-04  0.1012E-08  0.4764E-04  0.3552E-05
    -49.004  0.1547E-03  0.9450E-05  0.3630E+01  0.6615E-03  0.1383E+01  0.3848E-05  0.1533E+01  0.3184E-05  0.1356E-04  0.2174E-06  0.7058E-09  0.1050E-06  0.7255E-04  0.3781E-05  0.4964E-05  0.3735E-09  0.2176E-03  0.1189E-04
    -48.786  0.8502E-04  0.7445E-08  0.7698E-03  0.3386E-06  0.1408E-03  0.3171E-08  0.1800E+01  0.1797E-05  0.2054E-08  0.1333E-06  0.3890E-09  0.3858E-10  0.3983E-04  0.2799E-08  0.4334E-09  0.1659E-09  0.1195E-03  0.2663E-08
    -48.569  0.1526E-06  0.9620E-11  0.1978E-11  0.4022E-09  0.2833E-13  0.5316E-11  0.2157E-01  0.1800E-07  0.1141E-12  0.1401E-08  0.7830E-12  0.2331E-12  0.7150E-07  0.3458E-11  0.5157E-13  0.2635E-11  0.2144E-06  0.3259E-12
    -48.352  0.0000E+00  0.0000E+00  0.0000E+00  0.0000E+00  0.0000E+00  0.0000E+00  0.0000E+00  0.0000E+00  0.0000E+00  0.0000E+00  0.0000E+00  0.0000E+00  0.0000E+00  0.0000E+00  0.0000E+00  0.0000E+00  0.0000E+00  0.0000E+00
    -48.134  0.0000E+00  0.0000E+00  0.0000E+00  0.0000E+00  0.0000E+00  0.0000E+00  0.0000E+00  0.0000E+00  0.0000E+00  0.0000E+00  0.0000E+00  0.0000E+00  0.0000E+00  0.0000E+00  0.0000E+00  0.0000E+00  0.0000E+00  0.0000E+00
    -47.917  0.0000E+00  0.0000E+00  0.0000E+00  0.0000E+00  0.0000E+00  0.0000E+00  0.0000E+00  0.0000E+00  0.0000E+00  0.0000E+00  0.0000E+00  0.0000E+00  0.0000E+00  0.0000E+00  0.0000E+00  0.0000E+00  0.0000E+00  0.0000E+00
    -47.700  0.0000E+00  0.0000E+00  0.0000E+00  0.0000E+00  0.0000E+00  0.0000E+00  0.0000E+00  0.0000E+00  0.0000E+00  0.0000E+00  0.0000E+00  0.0000E+00  0.0000E+00  0.0000E+00  0.0000E+00  0.0000E+00  0.0000E+00  0.0000E+00
    -47.483  0.0000E+00  0.0000E+00  0.0000E+00  0.0000E+00  0.0000E+00  0.0000E+00  0.0000E+00  0.0000E+00  0.0000E+00  0.0000E+00  0.0000E+00  0.0000E+00  0.0000E+00  0.0000E+00  0.0000E+00  0.0000E+00  0.0000E+00  0.0000E+00
    -47.265  0.0000E+00  0.0000E+00  0.0000E+00  0.0000E+00  0.0000E+00  0.0000E+00  0.0000E+00  0.0000E+00  0.0000E+00  0.0000E+00  0.0000E+00  0.0000E+00  0.0000E+00  0.0000E+00  0.0000E+00  0.0000E+00  0.0000E+00  0.0000E+00
    -47.048  0.2377E-17  0.2189E-17  0.1498E-15  0.5788E-12  0.3024E-17  0.7300E-12  0.2695E-17  0.8079E-12  0.1871E-18  0.2231E-17  0.2781E-18  0.9302E-22  0.7803E-18  0.1021E-17  0.1644E-21  0.2746E-17  0.2831E-17  0.3076E-17
    -46.831  0.1217E-05  0.1315E-05  0.7980E-04  0.2979E+00  0.1494E-05  0.3555E+00  0.4690E-06  0.1284E+00  0.2976E-07  0.1259E-05  0.1319E-06  0.4449E-10  0.4009E-06  0.6141E-06  0.4956E-10  0.1506E-05  0.1422E-05  0.1850E-05
    -46.613  0.7366E-05  0.1144E-03  0.4898E-03  0.1807E+01  0.8958E-05  0.2121E+01  0.5555E-05  0.1837E+01  0.3778E-06  0.7792E-05  0.7798E-06  0.2321E-08  0.2429E-05  0.5347E-04  0.3935E-09  0.9249E-05  0.8552E-05  0.1610E-03
    -46.396  0.5451E-05  0.1674E-03  0.2821E-03  0.1610E+01  0.2059E-05  0.1376E+01  0.2578E-05  0.1393E+01  0.1868E-06  0.7087E-05  0.1262E-06  0.3452E-08  0.2222E-05  0.7837E-04  0.2524E-09  0.6097E-05  0.6792E-05  0.2359E-03
    -46.179  0.2900E-05  0.4014E-04  0.1524E-03  0.8675E+00  0.1104E-05  0.7314E+00  0.1426E-05  0.1226E+01  0.1153E-06  0.3723E-05  0.6669E-07  0.8703E-09  0.1182E-05  0.1878E-04  0.1658E-09  0.3180E-05  0.3634E-05  0.5655E-04
    -45.961  0.9872E-14  0.1861E-09  0.3482E-12  0.1012E-13  0.6767E-16  0.4713E-14  0.3848E-10  0.3995E-04  0.3435E-11  0.2673E-15  0.1365E-15  0.3609E-14  0.2960E-14  0.8685E-10  0.3059E-14  0.1096E-15  0.1770E-14  0.2616E-09
    -45.744  0.0000E+00  0.0000E+00  0.0000E+00  0.0000E+00  0.0000E+00  0.0000E+00  0.0000E+00  0.0000E+00  0.0000E+00  0.0000E+00  0.0000E+00  0.0000E+00  0.0000E+00  0.0000E+00  0.0000E+00  0.0000E+00  0.0000E+00  0.0000E+00
    -45.527  0.0000E+00  0.0000E+00  0.0000E+00  0.0000E+00  0.0000E+00  0.0000E+00  0.0000E+00  0.0000E+00  0.0000E+00  0.0000E+00  0.0000E+00  0.0000E+00  0.0000E+00  0.0000E+00  0.0000E+00  0.0000E+00  0.0000E+00  0.0000E+00
    -45.309  0.0000E+00  0.0000E+00  0.0000E+00  0.0000E+00  0.0000E+00  0.0000E+00  0.0000E+00  0.0000E+00  0.0000E+00  0.0000E+00  0.0000E+00  0.0000E+00  0.0000E+00  0.0000E+00  0.0000E+00  0.0000E+00  0.0000E+00  0.0000E+00
    -45.092  0.0000E+00  0.0000E+00  0.0000E+00  0.0000E+00  0.0000E+00  0.0000E+00  0.0000E+00  0.0000E+00  0.0000E+00  0.0000E+00  0.0000E+00  0.0000E+00  0.0000E+00  0.0000E+00  0.0000E+00  0.0000E+00  0.0000E+00  0.0000E+00
    -44.875  0.0000E+00  0.0000E+00  0.0000E+00  0.0000E+00  0.0000E+00  0.0000E+00  0.0000E+00  0.0000E+00  0.0000E+00  0.0000E+00  0.0000E+00  0.0000E+00  0.0000E+00  0.0000E+00  0.0000E+00  0.0000E+00  0.0000E+00  0.0000E+00
    -44.657  0.0000E+00  0.0000E+00  0.0000E+00  0.0000E+00  0.0000E+00  0.0000E+00  0.0000E+00  0.0000E+00  0.0000E+00  0.0000E+00  0.0000E+00  0.0000E+00  0.0000E+00  0.0000E+00  0.0000E+00  0.0000E+00  0.0000E+00  0.0000E+00
    -44.440  0.0000E+00  0.0000E+00  0.0000E+00  0.0000E+00  0.0000E+00  0.0000E+00  0.0000E+00  0.0000E+00  0.0000E+00  0.0000E+00  0.0000E+00  0.0000E+00  0.0000E+00  0.0000E+00  0.0000E+00  0.0000E+00  0.0000E+00  0.0000E+00
    -44.223  0.0000E+00  0.0000E+00  0.0000E+00  0.0000E+00  0.0000E+00  0.0000E+00  0.0000E+00  0.0000E+00  0.0000E+00  0.0000E+00  0.0000E+00  0.0000E+00  0.0000E+00  0.0000E+00  0.0000E+00  0.0000E+00  0.0000E+00  0.0000E+00
    -44.005  0.0000E+00  0.0000E+00  0.0000E+00  0.0000E+00  0.0000E+00  0.0000E+00  0.0000E+00  0.0000E+00  0.0000E+00  0.0000E+00  0.0000E+00  0.0000E+00  0.0000E+00  0.0000E+00  0.0000E+00  0.0000E+00  0.0000E+00  0.0000E+00
    -43.788  0.0000E+00  0.0000E+00  0.0000E+00  0.0000E+00  0.0000E+00  0.0000E+00  0.0000E+00  0.0000E+00  0.0000E+00  0.0000E+00  0.0000E+00  0.0000E+00  0.0000E+00  0.0000E+00  0.0000E+00  0.0000E+00  0.0000E+00  0.0000E+00
    -43.571  0.0000E+00  0.0000E+00  0.0000E+00  0.0000E+00  0.0000E+00  0.0000E+00  0.0000E+00  0.0000E+00  0.0000E+00  0.0000E+00  0.0000E+00  0.0000E+00  0.0000E+00  0.0000E+00  0.0000E+00  0.0000E+00  0.0000E+00  0.0000E+00
    -43.353  0.0000E+00  0.0000E+00  0.0000E+00  0.0000E+00  0.0000E+00  0.0000E+00  0.0000E+00  0.0000E+00  0.0000E+00  0.0000E+00  0.0000E+00  0.0000E+00  0.0000E+00  0.0000E+00  0.0000E+00  0.0000E+00  0.0000E+00  0.0000E+00
    -43.136  0.0000E+00  0.0000E+00  0.0000E+00  0.0000E+00  0.0000E+00  0.0000E+00  0.0000E+00  0.0000E+00  0.0000E+00  0.0000E+00  0.0000E+00  0.0000E+00  0.0000E+00  0.0000E+00  0.0000E+00  0.0000E+00  0.0000E+00  0.0000E+00
    -42.919  0.0000E+00  0.0000E+00  0.0000E+00  0.0000E+00  0.0000E+00  0.0000E+00  0.0000E+00  0.0000E+00  0.0000E+00  0.0000E+00  0.0000E+00  0.0000E+00  0.0000E+00  0.0000E+00  0.0000E+00  0.0000E+00  0.0000E+00  0.0000E+00
    -42.702  0.0000E+00  0.0000E+00  0.0000E+00  0.0000E+00  0.0000E+00  0.0000E+00  0.0000E+00  0.0000E+00  0.0000E+00  0.0000E+00  0.0000E+00  0.0000E+00  0.0000E+00  0.0000E+00  0.0000E+00  0.0000E+00  0.0000E+00  0.0000E+00
    -42.484  0.0000E+00  0.0000E+00  0.0000E+00  0.0000E+00  0.0000E+00  0.0000E+00  0.0000E+00  0.0000E+00  0.0000E+00  0.0000E+00  0.0000E+00  0.0000E+00  0.0000E+00  0.0000E+00  0.0000E+00  0.0000E+00  0.0000E+00  0.0000E+00
    -42.267  0.0000E+00  0.0000E+00  0.0000E+00  0.0000E+00  0.0000E+00  0.0000E+00  0.0000E+00  0.0000E+00  0.0000E+00  0.0000E+00  0.0000E+00  0.0000E+00  0.0000E+00  0.0000E+00  0.0000E+00  0.0000E+00  0.0000E+00  0.0000E+00
    -42.050  0.0000E+00  0.0000E+00  0.0000E+00  0.0000E+00  0.0000E+00  0.0000E+00  0.0000E+00  0.0000E+00  0.0000E+00  0.0000E+00  0.0000E+00  0.0000E+00  0.0000E+00  0.0000E+00  0.0000E+00  0.0000E+00  0.0000E+00  0.0000E+00
    -41.832  0.0000E+00  0.0000E+00  0.0000E+00  0.0000E+00  0.0000E+00  0.0000E+00  0.0000E+00  0.0000E+00  0.0000E+00  0.0000E+00  0.0000E+00  0.0000E+00  0.0000E+00  0.0000E+00  0.0000E+00  0.0000E+00  0.0000E+00  0.0000E+00
    -41.615  0.0000E+00  0.0000E+00  0.0000E+00  0.0000E+00  0.0000E+00  0.0000E+00  0.0000E+00  0.0000E+00  0.0000E+00  0.0000E+00  0.0000E+00  0.0000E+00  0.0000E+00  0.0000E+00  0.0000E+00  0.0000E+00  0.0000E+00  0.0000E+00
    -41.398  0.0000E+00  0.0000E+00  0.0000E+00  0.0000E+00  0.0000E+00  0.0000E+00  0.0000E+00  0.0000E+00  0.0000E+00  0.0000E+00  0.0000E+00  0.0000E+00  0.0000E+00  0.0000E+00  0.0000E+00  0.0000E+00  0.0000E+00  0.0000E+00