  16  16   1   0
  0.1687500E+02  0.7195320E-09  0.7195320E-09  0.5280272E-09  0.5000000E-15
  1.000000000000000E-004
  CAR 
 unknown system                          
     12.98293412    -52.25968491  301      5.23360674      1.00000000
    -52.260  0.0000E+00  0.0000E+00  0.0000E+00  0.0000E+00
    -52.042  0.0000E+00  0.0000E+00  0.0000E+00  0.0000E+00
    -51.825  0.0000E+00  0.0000E+00  0.0000E+00  0.0000E+00
    -51.607  0.0000E+00  0.0000E+00  0.0000E+00  0.0000E+00
    -51.390  0.0000E+00  0.0000E+00  0.0000E+00  0.0000E+00
    -51.172  0.0000E+00  0.0000E+00  0.0000E+00  0.0000E+00
    -50.955  0.0000E+00  0.0000E+00  0.0000E+00  0.0000E+00
    -50.737  0.0000E+00  0.0000E+00  0.0000E+00  0.0000E+00
    -50.520  0.0000E+00  0.0000E+00  0.0000E+00  0.0000E+00
    -50.302  0.0000E+00  0.0000E+00  0.0000E+00  0.0000E+00
    -50.085  0.0000E+00  0.0000E+00  0.0000E+00  0.0000E+00
    -49.867  0.0000E+00  0.0000E+00  0.0000E+00  0.0000E+00
    -49.650  0.0000E+00  0.0000E+00  0.0000E+00  0.0000E+00
    -49.433  0.0000E+00  0.0000E+00  0.0000E+00  0.0000E+00
    -49.215  0.2299E+02  0.2299E+02  0.5000E+01  0.5000E+01
    -48.998  0.3022E+02  0.3022E+02  0.1041E+02  0.1041E+02
    -48.780  0.6569E+01  0.6569E+01  0.1200E+02  0.1200E+02
    -48.563  0.0000E+00  0.0000E+00  0.1200E+02  0.1200E+02
    -48.345  0.0000E+00  0.0000E+00  0.1200E+02  0.1200E+02
    -48.128  0.0000E+00  0.0000E+00  0.1200E+02  0.1200E+02
    -47.910  0.0000E+00  0.0000E+00  0.1200E+02  0.1200E+02
    -47.693  0.0000E+00  0.0000E+00  0.1200E+02  0.1200E+02
    -47.475  0.0000E+00  0.0000E+00  0.1200E+02  0.1200E+02
    -47.258  0.0000E+00  0.0000E+00  0.1200E+02  0.1200E+02
    -47.040  0.0000E+00  0.0000E+00  0.1200E+02  0.1200E+02
    -46.823  0.0000E+00  0.0000E+00  0.1200E+02  0.1200E+02
    -46.605  0.3147E+02  0.3147E+02  0.1776E+02  0.1776E+02
    -46.388  0.2299E+02  0.2299E+02  0.2300E+02  0.2300E+02
    -46.170  0.4598E+01  0.4598E+01  0.2400E+02  0.2400E+02
    -45.953  0.0000E+00  0.0000E+00  0.2400E+02  0.2400E+02
    -45.735  0.0000E+00  0.0000E+00  0.2400E+02  0.2400E+02
    -45.518  0.0000E+00  0.0000E+00  0.2400E+02  0.2400E+02
    -45.300  0.0000E+00  0.0000E+00  0.2400E+02  0.2400E+02
    -45.083  0.0000E+00  0.0000E+00  0.2400E+02  0.2400E+02
    -44.866  0.0000E+00  0.0000E+00  0.2400E+02  0.2400E+02
    -44.648  0.0000E+00  0.0000E+00  0.2400E+02  0.2400E+02
    -44.431  0.0000E+00  0.0000E+00  0.2400E+02  0.2400E+02
    -44.213  0.0000E+00  0.0000E+00  0.2400E+02  0.2400E+02
    -43.996  0.0000E+00  0.0000E+00  0.2400E+02  0.2400E+02
    -43.778  0.0000E+00  0.0000E+00  0.2400E+02  0.2400E+02
    -43.561  0.0000E+00  0.0000E+00  0.2400E+02  0.2400E+02
    -43.343  0.0000E+00  0.0000E+00  0.2400E+02  0.2400E+02
    -43.126  0.0000E+00  0.0000E+00  0.2400E+02  0.2400E+02
    -42.908  0.0000E+00  0.0000E+00  0.2400E+02  0.2400E+02
    -42.691  0.0000E+00  0.0000E+00  0.2400E+02  0.2400E+02
    -42.473  0.0000E+00  0.0000E+00  0.2400E+02  0.2400E+02
    -42.256  0.0000E+00  0.0000E+00  0.2400E+02  0.2400E+02
    -42.038  0.0000E+00  0.0000E+00  0.2400E+02  0.2400E+02
    -41.821  0.0000E+00  0.0000E+00  0.2400E+02  0.2400E+02
    -41.603  0.0000E+00  0.0000E+00  0.2400E+02  0.2400E+02
    -41.386  0.0000E+00  0.0000E+00  0.2400E+02  0.2400E+02
    -41.168  0.0000E+00  0.0000E+00  0.2400E+02  0.2400E+02
    -40.951  0.0000E+00  0.0000E+00  0.2400E+02  0.2400E+02
    -40.733  0.0000E+00  0.0000E+00  0.2400E+02  0.2400E+02
    -40.516  0.0000E+00  0.0000E+00  0.2400E+02  0.2400E+02
    -40.299  0.0000E+00  0.0000E+00  0.2400E+02  0.2400E+02
    -40.081  0.0000E+00  0.0000E+00  0.2400E+02  0.2400E+02
    -39.864  0.0000E+00  0.0000E+00  0.2400E+02  0.2400E+02
    -39.646  0.0000E+00  0.0000E+00  0.2400E+02  0.2400E+02
    -39.429  0.0000E+00  0.0000E+00  0.2400E+02  0.2400E+02
    -39.211  0.0000E+00  0.0000E+00  0.2400E+02  0.2400E+02
    -38.994  0.0000E+00  0.0000E+00  0.2400E+02  0.2400E+02
    -38.776  0.0000E+00  0.0000E+00  0.2400E+02  0.2400E+02
    -38.559  0.0000E+00  0.0000E+00  0.2400E+02  0.2400E+02
    -38.341  0.0000E+00  0.0000E+00  0.2400E+02  0.2400E+02
    -38.124  0.0000E+00  0.0000E+00  0.2400E+02  0.2400E+02
    -37.906  0.0000E+00  0.0000E+00  0.2400E+02  0.2400E+02
    -37.689  0.0000E+00  0.0000E+00  0.2400E+02  0.2400E+02
    -37.471  0.0000E+00  0.0000E+00  0.2400E+02  0.2400E+02
    -37.254  0.0000E+00  0.0000E+00  0.2400E+02  0.2400E+02
    -37.036  0.0000E+00  0.0000E+00  0.2400E+02  0.2400E+02
    -36.819  0.0000E+00  0.0000E+00  0.2400E+02  0.2400E+02
    -36.601  0.0000E+00  0.0000E+00  0.2400E+02  0.2400E+02
    -36.384  0.0000E+00  0.0000E+00  0.2400E+02  0.2400E+02
    -36.167  0.0000E+00  0.0000E+00  0.2400E+02  0.2400E+02
    -35.949  0.0000E+00  0.0000E+00  0.2400E+02  0.2400E+02
    -35.732  0.0000E+00  0.0000E+00  0.2400E+02  0.2400E+02
    -35.514  0.0000E+00  0.0000E+00  0.2400E+02  0.2400E+02
    -35.297  0.0000E+00  0.0000E+00  0.2400E+02  0.2400E+02
    -35.079  0.0000E+00  0.0000E+00  0.2400E+02  0.2400E+02
    -34.862  0.0000E+00  0.0000E+00  0.2400E+02  0.2400E+02
    -34.644  0.0000E+00  0.0000E+00  0.2400E+02  0.2400E+02
    -34.427  0.0000E+00  0.0000E+00  0.2400E+02  0.2400E+02
    -34.209  0.0000E+00  0.0000E+00  0.2400E+02  0.2400E+02
    -33.992  0.0000E+00  0.0000E+00  0.2400E+02  0.2400E+02
    -33.774  0.0000E+00  0.0000E+00  0.2400E+02  0.2400E+02
    -33.557  0.0000E+00  0.0000E+00  0.2400E+02  0.2400E+02
    -33.339  0.0000E+00  0.0000E+00  0.2400E+02  0.2400E+02
    -33.122  0.0000E+00  0.0000E+00  0.2400E+02  0.2400E+02
    -32.904  0.0000E+00  0.0000E+00  0.2400E+02  0.2400E+02
    -32.687  0.0000E+00  0.0000E+00  0.2400E+02  0.2400E+02
    -32.469  0.0000E+00  0.0000E+00  0.2400E+02  0.2400E+02
    -32.252  0.0000E+00  0.0000E+00  0.2400E+02  0.2400E+02
    -32.034  0.0000E+00  0.0000E+00  0.2400E+02  0.2400E+02
    -31.817  0.0000E+00  0.0000E+00  0.2400E+02  0.2400E+02
    -31.600  0.0000E+00  0.0000E+00  0.2400E+02  0.2400E+02
    -31.382  0.0000E+00  0.0000E+00  0.2400E+02  0.2400E+02
    -31.165  0.0000E+00  0.0000E+00  0.2400E+02  0.2400E+02
    -30.947  0.0000E+00  0.0000E+00  0.2400E+02  0.2400E+02
    -30.730  0.0000E+00  0.0000E+00  0.2400E+02  0.2400E+02
    -30.512  0.0000E+00  0.0000E+00  0.2400E+02  0.2400E+02
    -30.295  0.0000E+00  0.0000E+00  0.2400E+02  0.2400E+02
    -30.077  0.0000E+00  0.0000E+00  0.2400E+02  0.2400E+02
    -29.860  0.0000E+00  0.0000E+00  0.2400E+02  0.2400E+02
    -29.642  0.0000E+00  0.0000E+00  0.2400E+02  0.2400E+02
    -29.425  0.0000E+00  0.0000E+00  0.2400E+02  0.2400E+02
    -29.207  0.0000E+00  0.0000E+00  0.2400E+02  0.2400E+02
    -28.990  0.0000E+00  0.0000E+00  0.2400E+02  0.2400E+02
    -28.772  0.0000E+00  0.0000E+00  0.2400E+02  0.2400E+02
    -28.555  0.0000E+00  0.0000E+00  0.2400E+02  0.2400E+02
    -28.337  0.0000E+00  0.0000E+00  0.2400E+02  0.2400E+02
    -28.120  0.0000E+00  0.0000E+00  0.2400E+02  0.2400E+02
    -27.902  0.0000E+00  0.0000E+00  0.2400E+02  0.2400E+02
    -27.685  0.0000E+00  0.0000E+00  0.2400E+02  0.2400E+02
    -27.467  0.0000E+00  0.0000E+00  0.2400E+02  0.2400E+02
    -27.250  0.0000E+00  0.0000E+00  0.2400E+02  0.2400E+02
    -27.033  0.0000E+00  0.0000E+00  0.2400E+02  0.2400E+02
    -26.815  0.0000E+00  0.0000E+00  0.2400E+02  0.2400E+02
    -26.598  0.0000E+00  0.0000E+00  0.2400E+02  0.2400E+02
    -26.380  0.0000E+00  0.0000E+00  0.2400E+02  0.2400E+02
    -26.163  0.0000E+00  0.0000E+00  0.2400E+02  0.2400E+02
    -25.945  0.0000E+00  0.0000E+00  0.2400E+02  0.2400E+02
    -25.728  0.0000E+00  0.0000E+00  0.2400E+02  0.2400E+02
    -25.510  0.0000E+00  0.0000E+00  0.2400E+02  0.2400E+02
    -25.293  0.0000E+00  0.0000E+00  0.2400E+02  0.2400E+02
    -25.075  0.0000E+00  0.0000E+00  0.2400E+02  0.2400E+02
    -24.858  0.0000E+00  0.0000E+00  0.2400E+02  0.2400E+02
    -24.640  0.0000E+00  0.0000E+00  0.2400E+02  0.2400E+02
    -24.423  0.0000E+00  0.0000E+00  0.2400E+02  0.2400E+02
    -24.205  0.0000E+00  0.0000E+00  0.2400E+02  0.2400E+02
    -23.988  0.0000E+00  0.0000E+00  0.2400E+02  0.2400E+02
    -23.770  0.0000E+00  0.0000E+00  0.2400E+02  0.2400E+02
    -23.553  0.0000E+00  0.0000E+00  0.2400E+02  0.2400E+02
    -23.335  0.0000E+00  0.0000E+00  0.2400E+02  0.2400E+02
    -23.118  0.0000E+00  0.0000E+00  0.2400E+02  0.2400E+02
    -22.901  0.0000E+00  0.0000E+00  0.2400E+02  0.2400E+02
    -22.683  0.0000E+00  0.0000E+00  0.2400E+02  0.2400E+02
    -22.466  0.0000E+00  0.0000E+00  0.2400E+02  0.2400E+02
    -22.248  0.0000E+00  0.0000E+00  0.2400E+02  0.2400E+02
    -22.031  0.0000E+00  0.0000E+00  0.2400E+02  0.2400E+02
    -21.813  0.0000E+00  0.0000E+00  0.2400E+02  0.2400E+02
    -21.596  0.0000E+00  0.0000E+00  0.2400E+02  0.2400E+02
    -21.378  0.0000E+00  0.0000E+00  0.2400E+02  0.2400E+02
    -21.161  0.0000E+00  0.0000E+00  0.2400E+02  0.2400E+02
    -20.943  0.0000E+00  0.0000E+00  0.2400E+02  0.2400E+02
    -20.726  0.0000E+00  0.0000E+00  0.2400E+02  0.2400E+02
    -20.508  0.0000E+00  0.0000E+00  0.2400E+02  0.2400E+02
    -20.291  0.0000E+00  0.0000E+00  0.2400E+02  0.2400E+02
    -20.073  0.0000E+00  0.0000E+00  0.2400E+02  0.2400E+02
    -19.856  0.0000E+00  0.0000E+00  0.2400E+02  0.2400E+02
    -19.638  0.0000E+00  0.0000E+00  0.2400E+02  0.2400E+02
    -19.421  0.0000E+00  0.0000E+00  0.2400E+02  0.2400E+02
    -19.203  0.0000E+00  0.0000E+00  0.2400E+02  0.2400E+02
    -18.986  0.0000E+00  0.0000E+00  0.2400E+02  0.2400E+02
    -18.768  0.0000E+00  0.0000E+00  0.2400E+02  0.2400E+02
    -18.551  0.0000E+00  0.0000E+00  0.2400E+02  0.2400E+02
    -18.334  0.0000E+00  0.0000E+00  0.2400E+02  0.2400E+02
    -18.116  0.0000E+00  0.0000E+00  0.2400E+02  0.2400E+02
    -17.899  0.0000E+00  0.0000E+00  0.2400E+02  0.2400E+02
    -17.681  0.0000E+00  0.0000E+00  0.2400E+02  0.2400E+02
    -17.464  0.0000E+00  0.0000E+00  0.2400E+02  0.2400E+02
    -17.246  0.0000E+00  0.0000E+00  0.2400E+02  0.2400E+02
    -17.029  0.0000E+00  0.0000E+00  0.2400E+02  0.2400E+02
    -16.811  0.0000E+00  0.0000E+00  0.2400E+02  0.2400E+02
    -16.594  0.0000E+00  0.0000E+00  0.2400E+02  0.2400E+02
    -16.376  0.0000E+00  0.0000E+00  0.2400E+02  0.2400E+02
    -16.159  0.0000E+00  0.0000E+00  0.2400E+02  0.2400E+02
    -15.941  0.0000E+00  0.0000E+00  0.2400E+02  0.2400E+02
    -15.724  0.0000E+00  0.0000E+00  0.2400E+02  0.2400E+02
    -15.506  0.0000E+00  0.0000E+00  0.2400E+02  0.2400E+02
    -15.289  0.0000E+00  0.0000E+00  0.2400E+02  0.2400E+02
    -15.071  0.0000E+00  0.0000E+00  0.2400E+02  0.2400E+02
    -14.854  0.0000E+00  0.0000E+00  0.2400E+02  0.2400E+02
    -14.636  0.0000E+00  0.0000E+00  0.2400E+02  0.2400E+02
    -14.419  0.0000E+00  0.0000E+00  0.2400E+02  0.2400E+02
    -14.201  0.0000E+00  0.0000E+00  0.2400E+02  0.2400E+02
    -13.984  0.0000E+00  0.0000E+00  0.2400E+02  0.2400E+02
    -13.767  0.0000E+00  0.0000E+00  0.2400E+02  0.2400E+02
    -13.549  0.0000E+00  0.0000E+00  0.2400E+02  0.2400E+02
    -13.332  0.0000E+00  0.0000E+00  0.2400E+02  0.2400E+02
    -13.114  0.0000E+00  0.0000E+00  0.2400E+02  0.2400E+02
    -12.897  0.0000E+00  0.0000E+00  0.2400E+02  0.2400E+02
    -12.679  0.0000E+00  0.0000E+00  0.2400E+02  0.2400E+02
    -12.462  0.0000E+00  0.0000E+00  0.2400E+02  0.2400E+02
    -12.244  0.0000E+00  0.0000E+00  0.2400E+02  0.2400E+02
    -12.027  0.0000E+00  0.0000E+00  0.2400E+02  0.2400E+02
    -11.809  0.0000E+00  0.0000E+00  0.2400E+02  0.2400E+02
    -11.592  0.0000E+00  0.0000E+00  0.2400E+02  0.2400E+02
    -11.374  0.0000E+00  0.0000E+00  0.2400E+02  0.2400E+02
    -11.157  0.0000E+00  0.0000E+00  0.2400E+02  0.2400E+02
    -10.939  0.0000E+00  0.0000E+00  0.2400E+02  0.2400E+02
    -10.722  0.0000E+00  0.0000E+00  0.2400E+02  0.2400E+02
    -10.504  0.0000E+00  0.0000E+00  0.2400E+02  0.2400E+02
    -10.287  0.0000E+00  0.0000E+00  0.2400E+02  0.2400E+02
    -10.069  0.5051E+00  0.5051E+00  0.2402E+02  0.2402E+02
     -9.852  0.1251E+01  0.1251E+01  0.2420E+02  0.2420E+02
     -9.635  0.2013E+01  0.2013E+01  0.2456E+02  0.2456E+02
     -9.417  0.2275E+01  0.2275E+01  0.2494E+02  0.2494E+02
     -9.200  0.2280E+01  0.2280E+01  0.2536E+02  0.2536E+02
     -8.982  0.2297E+01  0.2297E+01  0.2581E+02  0.2581E+02
     -8.765  0.2834E+01  0.2834E+01  0.2633E+02  0.2633E+02
     -8.547  0.3910E+01  0.3910E+01  0.2699E+02  0.2699E+02
     -8.330  0.5194E+01  0.5194E+01  0.2784E+02  0.2784E+02
     -8.112  0.5568E+01  0.5568E+01  0.2856E+02  0.2856E+02
     -7.895  0.7115E+01  0.7115E+01  0.2974E+02  0.2974E+02
     -7.677  0.5664E+01  0.5664E+01  0.3071E+02  0.3071E+02
     -7.460  0.4908E+01  0.4908E+01  0.3170E+02  0.3170E+02
     -7.242  0.6986E+00  0.6986E+00  0.3200E+02  0.3200E+02
     -7.025  0.0000E+00  0.0000E+00  0.3200E+02  0.3200E+02
     -6.807  0.0000E+00  0.0000E+00  0.3200E+02  0.3200E+02
     -6.590  0.0000E+00  0.0000E+00  0.3200E+02  0.3200E+02
     -6.372  0.0000E+00  0.0000E+00  0.3200E+02  0.3200E+02
     -6.155  0.0000E+00  0.0000E+00  0.3200E+02  0.3200E+02
     -5.937  0.0000E+00  0.0000E+00  0.3200E+02  0.3200E+02
     -5.720  0.0000E+00  0.0000E+00  0.3200E+02  0.3200E+02
     -5.502  0.0000E+00  0.0000E+00  0.3200E+02  0.3200E+02
     -5.285  0.0000E+00  0.0000E+00  0.3200E+02  0.3200E+02
     -5.068  0.0000E+00  0.0000E+00  0.3200E+02  0.3200E+02
     -4.850  0.0000E+00  0.0000E+00  0.3200E+02  0.3200E+02
     -4.633  0.0000E+00  0.0000E+00  0.3200E+02  0.3200E+02
     -4.415  0.0000E+00  0.0000E+00  0.3200E+02  0.3200E+02
     -4.198  0.0000E+00  0.0000E+00  0.3200E+02  0.3200E+02
     -3.980  0.0000E+00  0.0000E+00  0.3200E+02  0.3200E+02
     -3.763  0.0000E+00  0.0000E+00  0.3200E+02  0.3200E+02
     -3.545  0.0000E+00  0.0000E+00  0.3200E+02  0.3200E+02
     -3.328  0.0000E+00  0.0000E+00  0.3200E+02  0.3200E+02
     -3.110  0.0000E+00  0.0000E+00  0.3200E+02  0.3200E+02
     -2.893  0.0000E+00  0.0000E+00  0.3200E+02  0.3200E+02
     -2.675  0.0000E+00  0.0000E+00  0.3200E+02  0.3200E+02
     -2.458  0.0000E+00  0.0000E+00  0.3200E+02  0.3200E+02
     -2.240  0.0000E+00  0.0000E+00  0.3200E+02  0.3200E+02
     -2.023  0.0000E+00  0.0000E+00  0.3200E+02  0.3200E+02
     -1.805  0.0000E+00  0.0000E+00  0.3200E+02  0.3200E+02
     -1.588  0.0000E+00  0.0000E+00  0.3200E+02  0.3200E+02
     -1.370  0.1954E+01  0.1954E+01  0.3213E+02  0.3213E+02
     -1.153  0.4434E+01  0.4434E+01  0.3273E+02  0.3273E+02
     -0.935  0.7769E+01  0.7769E+01  0.3391E+02  0.3391E+02
     -0.718  0.7102E+01  0.7102E+01  0.3536E+02  0.3536E+02
     -0.501  0.7442E+01  0.7442E+01  0.3679E+02  0.3679E+02
     -0.283  0.5454E+01  0.5454E+01  0.3801E+02  0.3801E+02
     -0.066  0.3110E+01  0.3110E+01  0.3872E+02  0.3872E+02
      0.152  0.3303E+01  0.3303E+01  0.3928E+02  0.3928E+02
      0.369  0.4682E+01  0.4682E+01  0.4012E+02  0.4012E+02
      0.587  0.5358E+01  0.5358E+01  0.4094E+02  0.4094E+02
      0.804  0.3884E+01  0.3884E+01  0.4175E+02  0.4175E+02
      1.022  0.7766E+01  0.7766E+01  0.4272E+02  0.4272E+02
      1.239  0.1007E+02  0.1007E+02  0.4432E+02  0.4432E+02
      1.457  0.1223E+02  0.1223E+02  0.4650E+02  0.4650E+02
      1.674  0.1440E+02  0.1440E+02  0.4849E+02  0.4849E+02
      1.892  0.1338E+02  0.1338E+02  0.5082E+02  0.5082E+02
      2.109  0.1169E+02  0.1169E+02  0.5238E+02  0.5238E+02
      2.327  0.1110E+02  0.1110E+02  0.5419E+02  0.5419E+02
      2.544  0.1252E+02  0.1252E+02  0.5595E+02  0.5595E+02
      2.762  0.1531E+02  0.1531E+02  0.5816E+02  0.5816E+02
      2.979  0.1367E+02  0.1367E+02  0.6027E+02  0.6027E+02
      3.197  0.1999E+02  0.1999E+02  0.6248E+02  0.6248E+02
      3.414  0.1913E+02  0.1913E+02  0.6550E+02  0.6550E+02
      3.631  0.1480E+02  0.1480E+02  0.6814E+02  0.6814E+02
      3.849  0.2051E+02  0.2051E+02  0.7064E+02  0.7064E+02
      4.066  0.1104E+02  0.1104E+02  0.7235E+02  0.7235E+02
      4.284  0.8569E+01  0.8569E+01  0.7401E+02  0.7401E+02
      4.501  0.7994E+01  0.7994E+01  0.7549E+02  0.7549E+02
      4.719  0.4717E+01  0.4717E+01  0.7640E+02  0.7640E+02
      4.936  0.9775E+01  0.9775E+01  0.7779E+02  0.7779E+02
      5.154  0.1067E+02  0.1067E+02  0.7943E+02  0.7943E+02
      5.371  0.8727E+01  0.8727E+01  0.8088E+02  0.8088E+02
      5.589  0.1405E+02  0.1405E+02  0.8298E+02  0.8298E+02
      5.806  0.1300E+02  0.1300E+02  0.8525E+02  0.8525E+02
      6.024  0.1271E+02  0.1271E+02  0.8726E+02  0.8726E+02
      6.241  0.9602E+01  0.9603E+01  0.8905E+02  0.8905E+02
      6.459  0.1130E+02  0.1130E+02  0.9082E+02  0.9082E+02
      6.676  0.1452E+02  0.1452E+02  0.9264E+02  0.9264E+02
      6.894  0.6541E+01  0.6541E+01  0.9435E+02  0.9435E+02
      7.111  0.2336E+01  0.2318E+01  0.9491E+02  0.9491E+02
      7.329  0.2016E+01  0.2016E+01  0.9523E+02  0.9523E+02
      7.546  0.2186E+01  0.2185E+01  0.9559E+02  0.9558E+02
      7.764  0.1293E+01  0.1294E+01  0.9595E+02  0.9595E+02
      7.981  0.7365E+00  0.7567E+00  0.9615E+02  0.9615E+02
      8.198  0.8754E+00  0.8570E+00  0.9631E+02  0.9631E+02
      8.416  0.1641E+01  0.1603E+01  0.9657E+02  0.9657E+02
      8.633  0.1852E+01  0.1905E+01  0.9693E+02  0.9693E+02
      8.851  0.2554E+01  0.2509E+01  0.9741E+02  0.9742E+02
      9.068  0.3691E+01  0.3785E+01  0.9808E+02  0.9809E+02
      9.286  0.3562E+01  0.3602E+01  0.9891E+02  0.9891E+02
      9.503  0.2258E+01  0.2350E+01  0.9951E+02  0.9949E+02
      9.721  0.1250E+01  0.1127E+01  0.9984E+02  0.9984E+02
      9.938  0.3629E+00  0.3975E+00  0.9998E+02  0.9998E+02
     10.156  0.2085E-01  0.2085E-01  0.1000E+03  0.1000E+03
     10.373  0.0000E+00  0.0000E+00  0.1000E+03  0.1000E+03
     10.591  0.0000E+00  0.0000E+00  0.1000E+03  0.1000E+03
     10.808  0.0000E+00  0.0000E+00  0.1000E+03  0.1000E+03
     11.026  0.0000E+00  0.0000E+00  0.1000E+03  0.1000E+03
     11.243  0.0000E+00  0.0000E+00  0.1000E+03  0.1000E+03
     11.461  0.0000E+00  0.0000E+00  0.1000E+03  0.1000E+03
     11.678  0.0000E+00  0.0000E+00  0.1000E+03  0.1000E+03
     11.896  0.0000E+00  0.0000E+00  0.1000E+03  0.1000E+03
     12.113  0.0000E+00  0.0000E+00  0.1000E+03  0.1000E+03
     12.331  0.0000E+00  0.0000E+00  0.1000E+03  0.1000E+03
     12.548  0.0000E+00  0.0000E+00  0.1000E+03  0.1000E+03
     12.765  0.0000E+00  0.0000E+00  0.1000E+03  0.1000E+03
     12.983  0.0000E+00  0.0000E+00  0.1000E+03  0.1000E+03
     12.98293412    -52.25968491  301      5.23360674      1.00000000
    -52.260  0.0000E+00  0.0000E+00  0.0000E+00  0.0000E+00  0.0000E+00  0.0000E+00  0.0000E+00  0.0000E+00  0.0000E+00  0.0000E+00  0.0000E+00  0.0000E+00  0.0000E+00  0.0000E+00  0.0000E+00  0.0000E+00  0.0000E+00  0.0000E+00
    -52.042  0.0000E+00  0.0000E+00  0.0000E+00  0.0000E+00  0.0000E+00  0.0000E+00  0.0000E+00  0.0000E+00  0.0000E+00  0.0000E+00  0.0000E+00  0.0000E+00  0.0000E+00  0.0000E+00  0.0000E+00  0.0000E+00  0.0000E+00  0.0000E+00
    -51.825  0.0000E+00  0.0000E+00  0.0000E+00  0.0000E+00  0.0000E+00  0.0000E+00  0.0000E+00  0.0000E+00  0.0000E+00  0.0000E+00  0.0000E+00  0.0000E+00  0.0000E+00  0.0000E+00  0.0000E+00  0.0000E+00  0.0000E+00  0.0000E+00
    -51.607  0.0000E+00  0.0000E+00  0.0000E+00  0.0000E+00  0.0000E+00  0.0000E+00  0.0000E+00  0.0000E+00  0.0000E+00  0.0000E+00  0.0000E+00  0.0000E+00  0.0000E+00  0.0000E+00  0.0000E+00  0.0000E+00  0.0000E+00  0.0000E+00
    -51.390  0.0000E+00  0.0000E+00  0.0000E+00  0.0000E+00  0.0000E+00  0.0000E+00  0.0000E+00  0.0000E+00  0.0000E+00  0.0000E+00  0.0000E+00  0.0000E+00  0.0000E+00  0.0000E+00  0.0000E+00  0.0000E+00  0.0000E+00  0.0000E+00
    -51.172  0.0000E+00  0.0000E+00  0.0000E+00  0.0000E+00  0.0000E+00  0.0000E+00  0.0000E+00  0.0000E+00  0.0000E+00  0.0000E+00  0.0000E+00  0.0000E+00  0.0000E+00  0.0000E+00  0.0000E+00  0.0000E+00  0.0000E+00  0.0000E+00
    -50.955  0.0000E+00  0.0000E+00  0.0000E+00  0.0000E+00  0.0000E+00  0.0000E+00  0.0000E+00  0.0000E+00  0.0000E+00  0.0000E+00  0.0000E+00  0.0000E+00  0.0000E+00  0.0000E+00  0.0000E+00  0.0000E+00  0.0000E+00  0.0000E+00
    -50.737  0.0000E+00  0.0000E+00  0.0000E+00  0.0000E+00  0.0000E+00  0.0000E+00  0.0000E+00  0.0000E+00  0.0000E+00  0.0000E+00  0.0000E+00  0.0000E+00  0.0000E+00  0.0000E+00  0.0000E+00  0.0000E+00  0.0000E+00  0.0000E+00
    -50.520  0.0000E+00  0.0000E+00  0.0000E+00  0.0000E+00  0.0000E+00  0.0000E+00  0.0000E+00  0.0000E+00  0.0000E+00  0.0000E+00  0.0000E+00  0.0000E+00  0.0000E+00  0.0000E+00  0.0000E+00  0.0000E+00  0.0000E+00  0.0000E+00
    -50.302  0.0000E+00  0.0000E+00  0.0000E+00  0.0000E+00  0.0000E+00  0.0000E+00  0.0000E+00  0.0000E+00  0.0000E+00  0.0000E+00  0.0000E+00  0.0000E+00  0.0000E+00  0.0000E+00  0.0000E+00  0.0000E+00  0.0000E+00  0.0000E+00
    -50.085  0.0000E+00  0.0000E+00  0.0000E+00  0.0000E+00  0.0000E+00  0.0000E+00  0.0000E+00  0.0000E+00  0.0000E+00  0.0000E+00  0.0000E+00  0.0000E+00  0.0000E+00  0.0000E+00  0.0000E+00  0.0000E+00  0.0000E+00  0.0000E+00
    -49.867  0.0000E+00  0.0000E+00  0.0000E+00  0.0000E+00  0.0000E+00  0.0000E+00  0.0000E+00  0.0000E+00  0.0000E+00  0.0000E+00  0.0000E+00  0.0000E+00  0.0000E+00  0.0000E+00  0.0000E+00  0.0000E+00  0.0000E+00  0.0000E+00
    -49.650  0.0000E+00  0.0000E+00  0.0000E+00  0.0000E+00  0.0000E+00  0.0000E+00  0.0000E+00  0.0000E+00  0.0000E+00  0.0000E+00  0.0000E+00  0.0000E+00  0.0000E+00  0.0000E+00  0.0000E+00  0.0000E+00  0.0000E+00  0.0000E+00
    -49.433  0.0000E+00  0.0000E+00  0.0000E+00  0.0000E+00  0.0000E+00  0.0000E+00  0.0000E+00  0.0000E+00  0.0000E+00  0.0000E+00  0.0000E+00  0.0000E+00  0.0000E+00  0.0000E+00  0.0000E+00  0.0000E+00  0.0000E+00  0.0000E+00
    -49.215  0.2392E-04  0.3778E-05  0.1176E+01  0.2413E-03  0.3402E+01  0.1912E-04  0.1143E+01  0.3023E-05  0.4249E-05  0.1885E-06  0.2122E-09  0.7219E-06  0.1121E-04  0.1210E-05  0.1279E-04  0.7686E-09  0.3365E-04  0.4309E-05
    -48.998  0.3072E-03  0.8699E-05  0.3403E+01  0.6163E-03  0.1178E+01  0.1630E-05  0.2946E+01  0.5115E-05  0.1287E-04  0.3421E-06  0.1249E-08  0.3786E-07  0.1441E-03  0.3506E-05  0.4229E-05  0.2966E-09  0.4323E-03  0.1100E-04
    -48.780  0.6565E-04  0.4135E-08  0.1255E-08  0.1628E-06  0.3431E-10  0.2138E-08  0.1639E+01  0.1578E-05  0.1329E-10  0.1183E-06  0.3043E-09  0.7412E-10  0.3080E-04  0.1429E-08  0.5493E-11  0.1272E-09  0.9242E-04  0.1032E-09
    -48.563  0.0000E+00  0.0000E+00  0.0000E+00  0.0000E+00  0.0000E+00  0.0000E+00  0.0000E+00  0.0000E+00  0.0000E+00  0.0000E+00  0.0000E+00  0.0000E+00  0.0000E+00  0.0000E+00  0.0000E+00  0.0000E+00  0.0000E+00  0.0000E+00
    -48.345  0.0000E+00  0.0000E+00  0.0000E+00  0.0000E+00  0.0000E+00  0.0000E+00  0.0000E+00  0.0000E+00  0.0000E+00  0.0000E+00  0.0000E+00  0.0000E+00  0.0000E+00  0.0000E+00  0.0000E+00  0.0000E+00  0.0000E+00  0.0000E+00
    -48.128  0.0000E+00  0.0000E+00  0.0000E+00  0.0000E+00  0.0000E+00  0.0000E+00  0.0000E+00  0.0000E+00  0.0000E+00  0.0000E+00  0.0000E+00  0.0000E+00  0.0000E+00  0.0000E+00  0.0000E+00  0.0000E+00  0.0000E+00  0.0000E+00
    -47.910  0.0000E+00  0.0000E+00  0.0000E+00  0.0000E+00  0.0000E+00  0.0000E+00  0.0000E+00  0.0000E+00  0.0000E+00  0.0000E+00  0.0000E+00  0.0000E+00  0.0000E+00  0.0000E+00  0.0000E+00  0.0000E+00  0.0000E+00  0.0000E+00
    -47.693  0.0000E+00  0.0000E+00  0.0000E+00  0.0000E+00  0.0000E+00  0.0000E+00  0.0000E+00  0.0000E+00  0.0000E+00  0.0000E+00  0.0000E+00  0.0000E+00  0.0000E+00  0.0000E+00  0.0000E+00  0.0000E+00  0.0000E+00  0.0000E+00
    -47.475  0.0000E+00  0.0000E+00  0.0000E+00  0.0000E+00  0.0000E+00  0.0000E+00  0.0000E+00  0.0000E+00  0.0000E+00  0.0000E+00  0.0000E+00  0.0000E+00  0.0000E+00  0.0000E+00  0.0000E+00  0.0000E+00  0.0000E+00  0.0000E+00
    -47.258  0.0000E+00  0.0000E+00  0.0000E+00  0.0000E+00  0.0000E+00  0.0000E+00  0.0000E+00  0.0000E+00  0.0000E+00  0.0000E+00  0.0000E+00  0.0000E+00  0.0000E+00  0.0000E+00  0.0000E+00  0.0000E+00  0.0000E+00  0.0000E+00
    -47.040  0.0000E+00  0.0000E+00  0.0000E+00  0.0000E+00  0.0000E+00  0.0000E+00  0.0000E+00  0.0000E+00  0.0000E+00  0.0000E+00  0.0000E+00  0.0000E+00  0.0000E+00  0.0000E+00  0.0000E+00  0.0000E+00  0.0000E+00  0.0000E+00
    -46.823  0.0000E+00  0.0000E+00  0.0000E+00  0.0000E+00  0.0000E+00  0.0000E+00  0.0000E+00  0.0000E+00  0.0000E+00  0.0000E+00  0.0000E+00  0.0000E+00  0.0000E+00  0.0000E+00  0.0000E+00  0.0000E+00  0.0000E+00  0.0000E+00
    -46.605  0.8489E-05  0.2903E-03  0.5689E-03  0.2101E+01  0.1015E-04  0.2478E+01  0.8796E-05  0.3251E+01  0.6010E-06  0.9060E-05  0.8914E-06  0.5297E-08  0.2794E-05  0.1361E-03  0.5793E-09  0.1085E-04  0.9885E-05  0.4099E-03
    -46.388  0.8283E-05  0.1343E-03  0.4335E-03  0.2479E+01  0.3297E-05  0.2102E+01  0.2143E-05  0.1146E+01  0.1459E-06  0.1095E-04  0.1859E-06  0.2482E-08  0.3418E-05  0.6291E-04  0.3182E-09  0.9396E-05  0.1047E-04  0.1895E-03
    -46.170  0.1433E-08  0.2979E-04  0.5683E-07  0.4553E-08  0.8923E-11  0.2939E-08  0.1192E-05  0.1149E+01  0.1002E-06  0.2351E-10  0.4826E-10  0.4731E-09  0.4305E-09  0.1393E-04  0.1055E-09  0.1569E-10  0.5111E-09  0.4196E-04
    -45.953  0.0000E+00  0.0000E+00  0.0000E+00  0.0000E+00  0.0000E+00  0.0000E+00  0.0000E+00  0.0000E+00  0.0000E+00  0.0000E+00  0.0000E+00  0.0000E+00  0.0000E+00  0.0000E+00  0.0000E+00  0.0000E+00  0.0000E+00  0.0000E+00
    -45.735  0.0000E+00  0.0000E+00  0.0000E+00  0.0000E+00  0.0000E+00  0.0000E+00  0.0000E+00  0.0000E+00  0.0000E+00  0.0000E+00  0.0000E+00  0.0000E+00  0.0000E+00  0.0000E+00  0.0000E+00  0.0000E+00  0.0000E+00  0.0000E+00
    -45.518  0.0000E+00  0.0000E+00  0.0000E+00  0.0000E+00  0.0000E+00  0.0000E+00  0.0000E+00  0.0000E+00  0.0000E+00  0.0000E+00  0.0000E+00  0.0000E+00  0.0000E+00  0.0000E+00  0.0000E+00  0.0000E+00  0.0000E+00  0.0000E+00
    -45.300  0.0000E+00  0.0000E+00  0.0000E+00  0.0000E+00  0.0000E+00  0.0000E+00  0.0000E+00  0.0000E+00  0.0000E+00  0.0000E+00  0.0000E+00  0.0000E+00  0.0000E+00  0.0000E+00  0.0000E+00  0.0000E+00  0.0000E+00  0.0000E+00
    -45.083  0.0000E+00  0.0000E+00  0.0000E+00  0.0000E+00  0.0000E+00  0.0000E+00  0.0000E+00  0.0000E+00  0.0000E+00  0.0000E+00  0.0000E+00  0.0000E+00  0.0000E+00  0.0000E+00  0.0000E+00  0.0000E+00  0.0000E+00  0.0000E+00
    -44.866  0.0000E+00  0.0000E+00  0.0000E+00  0.0000E+00  0.0000E+00  0.0000E+00  0.0000E+00  0.0000E+00  0.0000E+00  0.0000E+00  0.0000E+00  0.0000E+00  0.0000E+00  0.0000E+00  0.0000E+00  0.0000E+00  0.0000E+00  0.0000E+00
    -44.648  0.0000E+00  0.0000E+00  0.0000E+00  0.0000E+00  0.0000E+00  0.0000E+00  0.0000E+00  0.0000E+00  0.0000E+00  0.0000E+00  0.0000E+00  0.0000E+00  0.0000E+00  0.0000E+00  0.0000E+00  0.0000E+00  0.0000E+00  0.0000E+00
    -44.431  0.0000E+00  0.0000E+00  0.0000E+00  0.0000E+00  0.0000E+00  0.0000E+00  0.0000E+00  0.0000E+00  0.0000E+00  0.0000E+00  0.0000E+00  0.0000E+00  0.0000E+00  0.0000E+00  0.0000E+00  0.0000E+00  0.0000E+00  0.0000E+00
    -44.213  0.0000E+00  0.0000E+00  0.0000E+00  0.0000E+00  0.0000E+00  0.0000E+00  0.0000E+00  0.0000E+00  0.0000E+00  0.0000E+00  0.0000E+00  0.0000E+00  0.0000E+00  0.0000E+00  0.0000E+00  0.0000E+00  0.0000E+00  0.0000E+00
    -43.996  0.0000E+00  0.0000E+00  0.0000E+00  0.0000E+00  0.0000E+00  0.0000E+00  0.0000E+00  0.0000E+00  0.0000E+00  0.0000E+00  0.0000E+00  0.0000E+00  0.0000E+00  0.0000E+00  0.0000E+00  0.0000E+00  0.0000E+00  0.0000E+00
    -43.778  0.0000E+00  0.0000E+00  0.0000E+00  0.0000E+00  0.0000E+00  0.0000E+00  0.0000E+00  0.0000E+00  0.0000E+00  0.0000E+00  0.0000E+00  0.0000E+00  0.0000E+00  0.0000E+00  0.0000E+00  0.0000E+00  0.0000E+00  0.0000E+00
    -43.561  0.0000E+00  0.0000E+00  0.0000E+00  0.0000E+00  0.0000E+00  0.0000E+00  0.0000E+00  0.0000E+00  0.0000E+00  0.0000E+00  0.0000E+00  0.0000E+00  0.0000E+00  0.0000E+00  0.0000E+00  0.0000E+00  0.0000E+00  0.0000E+00
    -43.343  0.0000E+00  0.0000E+00  0.0000E+00  0.0000E+00  0.0000E+00  0.0000E+00  0.0000E+00  0.0000E+00  0.0000E+00  0.0000E+00  0.0000E+00  0.0000E+00  0.0000E+00  0.0000E+00  0.0000E+00  0.0000E+00  0.0000E+00  0.0000E+00
    -43.126  0.0000E+00  0.0000E+00  0.0000E+00  0.0000E+00  0.0000E+00  0.0000E+00  0.0000E+00  0.0000E+00  0.0000E+00  0.0000E+00  0.0000E+00  0.0000E+00  0.0000E+00  0.0000E+00  0.0000E+00  0.0000E+00  0.0000E+00  0.0000E+00
    -42.908  0.0000E+00  0.0000E+00  0.0000E+00  0.0000E+00  0.0000E+00  0.0000E+00  0.0000E+00  0.0000E+00  0.0000E+00  0.0000E+00  0.0000E+00  0.0000E+00  0.0000E+00  0.0000E+00  0.0000E+00  0.0000E+00  0.0000E+00  0.0000E+00
    -42.691  0.0000E+00  0.0000E+00  0.0000E+00  0.0000E+00  0.0000E+00  0.0000E+00  0.0000E+00  0.0000E+00  0.0000E+00  0.0000E+00  0.0000E+00  0.0000E+00  0.0000E+00  0.0000E+00  0.0000E+00  0.0000E+00  0.0000E+00  0.0000E+00
    -42.473  0.0000E+00  0.0000E+00  0.0000E+00  0.0000E+00  0.0000E+00  0.0000E+00  0.0000E+00  0.0000E+00  0.0000E+00  0.0000E+00  0.0000E+00  0.0000E+00  0.0000E+00  0.0000E+00  0.0000E+00  0.0000E+00  0.0000E+00  0.0000E+00
    -42.256  0.0000E+00  0.0000E+00  0.0000E+00  0.0000E+00  0.0000E+00  0.0000E+00  0.0000E+00  0.0000E+00  0.0000E+00  0.0000E+00  0.0000E+00  0.0000E+00  0.0000E+00  0.0000E+00  0.0000E+00  0.0000E+00  0.0000E+00  0.0000E+00
    -42.038  0.0000E+00  0.0000E+00  0.0000E+00  0.0000E+00  0.0000E+00  0.0000E+00  0.0000E+00  0.0000E+00  0.0000E+00  0.0000E+00  0.0000E+00  0.0000E+00  0.0000E+00  0.0000E+00  0.0000E+00  0.0000E+00  0.0000E+00  0.0000E+00
    -41.821  0.0000E+00  0.0000E+00  0.0000E+00  0.0000E+00  0.0000E+00  0.0000E+00  0.0000E+00  0.0000E+00  0.0000E+00  0.0000E+00  0.0000E+00  0.0000E+00  0.0000E+00  0.0000E+00  0.0000E+00  0.0000E+00  0.0000E+00  0.0000E+00
    -41.603  0.0000E+00  0.0000E+00  0.0000E+00  0.0000E+00  0.0000E+00  0.0000E+00  0.0000E+00  0.0000E+00  0.0000E+00  0.0000E+00  0.0000E+00  0.0000E+00  0.0000E+00  0.0000E+00  0.0000E+00  0.0000E+00  0.0000E+00  0.0000E+00
    -41.386  0.0000E+00  0.0000E+00  0.0000E+00  0.0000E+00  0.0000E+00  0.0000E+00  0.0000E+00  0.0000E+00  0.0000E+00  0.0000E+00  0.0000E+00  0.0000E+00  0.0000E+00  0.0000E+00  0.0000E+00  0.0000E+00  0.0000E+00  0.0000E+00