       N       E                     dE             d eps       ncg     rms          rms(c)
DAV:   1     0.207297066771E+04    0.20730E+04   -0.88982E+04 33260   0.205E+03
DAV:   2     0.120826784101E+03   -0.19521E+04   -0.18948E+04 32000   0.602E+02
DAV:   3    -0.827723655135E+02   -0.20360E+03   -0.18054E+03 43980   0.197E+02
DAV:   4    -0.963166733375E+02   -0.13544E+02   -0.13170E+02 46200   0.514E+01
DAV:   5    -0.966313546110E+02   -0.31468E+00   -0.31391E+00 45240   0.835E+00    0.252E+01
RMM:   6    -0.107457069615E+03   -0.10826E+02   -0.13202E+02 32020   0.758E+01    0.412E+01
RMM:   7    -0.898763883808E+02    0.17581E+02   -0.32585E+01 32010   0.443E+01    0.794E+00
RMM:   8    -0.902218740263E+02   -0.34549E+00   -0.29785E+00 41193   0.501E+00    0.327E+00
RMM:   9    -0.902685204514E+02   -0.46646E-01   -0.67972E-01 47076   0.255E+00    0.183E+00
RMM:  10    -0.902690517162E+02   -0.53126E-03   -0.14034E-01 45095   0.113E+00    0.771E-01
RMM:  11    -0.902759777315E+02   -0.69260E-02   -0.27479E-02 44182   0.616E-01    0.293E-01
RMM:  12    -0.902776996451E+02   -0.17219E-02   -0.63686E-03 40655   0.251E-01    0.114E-01
RMM:  13    -0.902776006155E+02    0.99030E-04   -0.12050E-03 25209   0.131E-01
   1 F= -.96540987E+02 E0= -.96530234E+02  d E =-.965410E+02  mag=     0.0000
       N       E                     dE             d eps       ncg     rms          rms(c)
DAV:   1    -0.961275215282E+02   -0.58498E+01   -0.19599E+02 32280   0.554E+01    0.193E+01
RMM:   2    -0.912232656091E+02    0.49043E+01   -0.80631E+00 33867   0.194E+01    0.994E+00
RMM:   3    -0.903353622267E+02    0.88790E+00   -0.60545E+00 33717   0.134E+01    0.623E+00
RMM:   4    -0.900870659129E+02    0.24830E+00   -0.22825E+00 33649   0.101E+01    0.166E+00
RMM:   5    -0.901178928619E+02   -0.30827E-01   -0.64912E-01 43589   0.295E+00    0.108E+00
RMM:   6    -0.901110867825E+02    0.68061E-02   -0.10015E-01 41816   0.133E+00    0.637E-01
RMM:   7    -0.901091986291E+02    0.18882E-02   -0.33218E-02 40471   0.666E-01    0.286E-01
RMM:   8    -0.901107515267E+02   -0.15529E-02   -0.89567E-03 42001   0.349E-01    0.144E-01
RMM:   9    -0.901108532416E+02   -0.10171E-03   -0.15387E-03 28468   0.151E-01
   2 F= -.97872564E+02 E0= -.97861751E+02  d E =-.133158E+01  mag=    -0.0000
       N       E                     dE             d eps       ncg     rms          rms(c)
DAV:   1    -0.901601345114E+02   -0.49383E-01   -0.82384E-01 38280   0.356E+00    0.133E+00
RMM:   2    -0.901395127048E+02    0.20622E-01   -0.38017E-02 34495   0.133E+00    0.760E-01
RMM:   3    -0.901374268885E+02    0.20858E-02   -0.37500E-02 32286   0.121E+00    0.649E-01
RMM:   4    -0.901335809016E+02    0.38460E-02   -0.13757E-02 32907   0.781E-01    0.136E-01
RMM:   5    -0.901337840482E+02   -0.20315E-03   -0.32704E-03 33013   0.209E-01    0.930E-02
RMM:   6    -0.901337187264E+02    0.65322E-04   -0.51188E-04 21393   0.122E-01
   3 F= -.97894624E+02 E0= -.97883976E+02  d E =-.135364E+01  mag=     0.0000
       N       E                     dE             d eps       ncg     rms          rms(c)
DAV:   1    -0.903083789032E+02   -0.17459E+00   -0.41284E+00 33040   0.801E+00    0.296E+00
RMM:   2    -0.902090663717E+02    0.99313E-01   -0.20179E-01 34777   0.313E+00    0.175E+00
RMM:   3    -0.901993423231E+02    0.97240E-02   -0.19412E-01 32495   0.280E+00    0.149E+00
RMM:   4    -0.901779950863E+02    0.21347E-01   -0.66561E-02 33157   0.168E+00    0.289E-01
RMM:   5    -0.901791164783E+02   -0.11214E-02   -0.17323E-02 38450   0.471E-01    0.200E-01
RMM:   6    -0.901788888393E+02    0.22764E-03   -0.30813E-03 34552   0.239E-01    0.117E-01
RMM:   7    -0.901788307744E+02    0.58065E-04   -0.88749E-04 24641   0.148E-01
   4 F= -.97937918E+02 E0= -.97927525E+02  d E =-.139693E+01  mag=     0.0000
       N       E                     dE             d eps       ncg     rms          rms(c)
DAV:   1    -0.912071314180E+02   -0.10282E+01   -0.30225E+01 32280   0.218E+01    0.797E+00
RMM:   2    -0.905247041889E+02    0.68243E+00   -0.16819E+00 35062   0.918E+00    0.507E+00
RMM:   3    -0.904088636300E+02    0.11584E+00   -0.14232E+00 32127   0.789E+00    0.391E+00
RMM:   4    -0.902514873634E+02    0.15738E+00   -0.45052E-01 33772   0.413E+00    0.715E-01
RMM:   5    -0.902611136425E+02   -0.96263E-02   -0.12625E-01 40813   0.126E+00    0.532E-01
RMM:   6    -0.902595558524E+02    0.15578E-02   -0.22056E-02 40973   0.599E-01    0.308E-01
RMM:   7    -0.902588651851E+02    0.69067E-03   -0.64406E-03 36458   0.341E-01    0.129E-01
RMM:   8    -0.902590276236E+02   -0.16244E-03   -0.19155E-03 31918   0.184E-01
   5 F= -.98013427E+02 E0= -.98003306E+02  d E =-.147244E+01  mag=     0.0000
       N       E                     dE             d eps       ncg     rms          rms(c)
DAV:   1    -0.905165723680E+02   -0.25771E+00   -0.76130E+00 34800   0.110E+01    0.400E+00
RMM:   2    -0.903392351110E+02    0.17734E+00   -0.40845E-01 34999   0.449E+00    0.254E+00
RMM:   3    -0.903155826070E+02    0.23653E-01   -0.36514E-01 32207   0.396E+00    0.204E+00
RMM:   4    -0.902737902922E+02    0.41792E-01   -0.11478E-01 33582   0.212E+00    0.366E-01
RMM:   5    -0.902762517978E+02   -0.24615E-02   -0.32196E-02 39362   0.633E-01    0.275E-01
RMM:   6    -0.902758976506E+02    0.35415E-03   -0.57241E-03 36903   0.314E-01    0.161E-01
RMM:   7    -0.902756955577E+02    0.20209E-03   -0.16342E-03 30489   0.193E-01    0.680E-02
RMM:   8    -0.902757309981E+02   -0.35440E-04   -0.44128E-04 20703   0.101E-01
   6 F= -.97956214E+02 E0= -.97945840E+02  d E =-.141523E+01  mag=     0.0000
       N       E                     dE             d eps       ncg     rms          rms(c)
DAV:   1    -0.904786989280E+02   -0.20300E+00   -0.69139E+00 32320   0.104E+01    0.379E+00
RMM:   2    -0.903081222805E+02    0.17058E+00   -0.32900E-01 34679   0.396E+00    0.222E+00
RMM:   3    -0.902955949827E+02    0.12527E-01   -0.31941E-01 32522   0.358E+00    0.191E+00
RMM:   4    -0.902589613273E+02    0.36634E-01   -0.10611E-01 33215   0.215E+00    0.317E-01
RMM:   5    -0.902604827456E+02   -0.15214E-02   -0.27053E-02 38807   0.588E-01    0.217E-01
RMM:   6    -0.902602801943E+02    0.20255E-03   -0.47704E-03 36813   0.292E-01    0.130E-01
RMM:   7    -0.902601562820E+02    0.12391E-03   -0.12147E-03 27677   0.171E-01
   7 F= -.98014411E+02 E0= -.98004362E+02  d E =-.147342E+01  mag=    -0.0000
