 vasp.6.4.1 05Apr23 (build Jun 01 2023 13:46:15) complex                        
  
 executed on             LinuxIFC date 2023.12.17  01:54:02
 running   20 mpi-ranks, on    5 nodes
 distrk:  each k-point on   20 cores,    1 groups
 distr:  one band on NCORE=   1 cores,   20 groups


--------------------------------------------------------------------------------------------------------


 INCAR:
   ALGO = Fast
   EDIFF = 0.0002
   ENCUT = 550
   IBRION = 2
   ISIF = 4
   ISMEAR = 0
   ISPIN = 2
   IVDW = 13
   LASPH = True
   LMAXMIX = 4
   LORBIT = 11
   LREAL = Auto
   LWAVE = False
   MAGMOM = 1*2.327 2*-2.327 2*2.327 2*-2.327 1*2.327 8*0.0
   NELM = 100
   NSW = 99
   PREC = Accurate
   SIGMA = 0.05

 POTCAR:   PAW_PBE Fe_pv 06Sep2000                
 POTCAR:   PAW_PBE Se 06Sep2000                   
 -----------------------------------------------------------------------------
|                                                                             |
|           W    W    AA    RRRRR   N    N  II  N    N   GGGG   !!!           |
|           W    W   A  A   R    R  NN   N  II  NN   N  G    G  !!!           |
|           W    W  A    A  R    R  N N  N  II  N N  N  G       !!!           |
|           W WW W  AAAAAA  RRRRR   N  N N  II  N  N N  G  GGG   !            |
|           WW  WW  A    A  R   R   N   NN  II  N   NN  G    G                |
|           W    W  A    A  R    R  N    N  II  N    N   GGGG   !!!           |
|                                                                             |
|     For optimal performance we recommend to set                             |
|       NCORE = 2 up to number-of-cores-per-socket                            |
|     NCORE specifies how many cores store one orbital (NPAR=cpu/NCORE).      |
|     This setting can greatly improve the performance of VASP for DFT.       |
|     The default, NCORE=1 might be grossly inefficient on modern             |
|     multi-core architectures or massively parallel machines. Do your        |
|     own testing! More info at https://www.vasp.at/wiki/index.php/NCORE      |
|     Unfortunately you need to use the default for GW and RPA                |
|     calculations (for HF NCORE is supported but not extensively tested      |
|     yet).                                                                   |
|                                                                             |
 -----------------------------------------------------------------------------

 POTCAR:   PAW_PBE Fe_pv 06Sep2000                
   VRHFIN =Fe:  3pd7s1                                                                              
   LEXCH  = PE                                                                                      
   EATOM  =  2456.8974 eV,  180.5769 Ry                                                             
                                                                                                    
   TITEL  = PAW_PBE Fe_pv 06Sep2000                                                                 
   LULTRA =        F    use ultrasoft PP ?                                                          
   IUNSCR =        1    unscreen: 0-lin 1-nonlin 2-no                                               
   RPACOR =    1.750    partial core radius                                                         
   POMASS =   55.847; ZVAL   =   14.000    mass and valenz                                          
   RCORE  =    2.200    outmost cutoff radius                                                       
   RWIGS  =    2.200; RWIGS  =    1.164    wigner-seitz radius (au A)                               
   ENMAX  =  293.238; ENMIN  =  219.929 eV                                                          
   RCLOC  =    1.701    cutoff for local pot                                                        
   LCOR   =        T    correct aug charges                                                         
   LPAW   =        T    paw PP                                                                      
   EAUG   =  578.342                                                                                
   DEXC   =    -.002                                                                                
   RMAX   =    2.693    core radius for proj-oper                                                   
   RAUG   =    1.300    factor for augmentation sphere                                              
   RDEP   =    2.296    radius for radial grids                                                     
   QCUT   =   -4.642; QGAM   =    9.285    optimization parameters                                  
                                                                                                    
   Description                                                                                      
     l     E      TYP  RCUT    TYP  RCUT                                                            
     1   .000     23  2.000                                                                         
     1  -.400     23  2.000                                                                         
     2   .000     23  2.200                                                                         
     2   .000     23  2.200                                                                         
     0   .000     23  2.000                                                                         
     0  2.000     23  2.000                                                                         
     3   .000      7   .000                                                                         
  local pseudopotential read in
  partial core-charges read in
  atomic valenz-charges read in
  non local Contribution for L=           1  read in
    real space projection operators read in
  non local Contribution for L=           1  read in
    real space projection operators read in
  non local Contribution for L=           2  read in
    real space projection operators read in
  non local Contribution for L=           2  read in
    real space projection operators read in
  non local Contribution for L=           0  read in
    real space projection operators read in
  non local Contribution for L=           0  read in
    real space projection operators read in
    PAW grid and wavefunctions read in
 
   number of l-projection  operators is LMAX  =           6
   number of lm-projection operators is LMMAX =          18
 
 POTCAR:   PAW_PBE Se 06Sep2000                   
   VRHFIN =Se: s2p4                                                                                 
   LEXCH  = PE                                                                                      
   EATOM  =   256.9644 eV,   18.8864 Ry                                                             
                                                                                                    
   TITEL  = PAW_PBE Se 06Sep2000                                                                    
   LULTRA =        F    use ultrasoft PP ?                                                          
   IUNSCR =        1    unscreen: 0-lin 1-nonlin 2-no                                               
   RPACOR =    1.900    partial core radius                                                         
   POMASS =   78.960; ZVAL   =    6.000    mass and valenz                                          
   RCORE  =    2.100    outmost cutoff radius                                                       
   RWIGS  =    2.200; RWIGS  =    1.164    wigner-seitz radius (au A)                               
   ENMAX  =  211.534; ENMIN  =  158.651 eV                                                          
   ICORE  =        3    local potential                                                             
   LCOR   =        T    correct aug charges                                                         
   LPAW   =        T    paw PP                                                                      
   EAUG   =  446.842                                                                                
   DEXC   =    -.031                                                                                
   RMAX   =    3.170    core radius for proj-oper                                                   
   RAUG   =    1.300    factor for augmentation sphere                                              
   RDEP   =    2.177    radius for radial grids                                                     
   QCUT   =   -3.943; QGAM   =    7.886    optimization parameters                                  
                                                                                                    
   Description                                                                                      
     l     E      TYP  RCUT    TYP  RCUT                                                            
     0   .000     23  2.100                                                                         
     0   .000     23  2.100                                                                         
     1   .000     23  2.100                                                                         
     1   .000     23  2.100                                                                         
     2   .000     23  2.100                                                                         
     3  -.100      7  2.100                                                                         
  local pseudopotential read in
  partial core-charges read in
  atomic valenz-charges read in
  non local Contribution for L=           0  read in
    real space projection operators read in
  non local Contribution for L=           0  read in
    real space projection operators read in
  non local Contribution for L=           1  read in
    real space projection operators read in
  non local Contribution for L=           1  read in
    real space projection operators read in
  non local Contribution for L=           2  read in
    real space projection operators read in
    PAW grid and wavefunctions read in
 
   number of l-projection  operators is LMAX  =           5
   number of lm-projection operators is LMMAX =          13
 
 Optimization of the real space projectors (new method)

 maximal supplied QI-value         = 17.01
 optimisation between [QCUT,QGAM] = [ 11.91, 23.98] = [ 39.69,161.04] Ry 
 Optimized for a Real-space Cutoff    1.45 Angstroem

   l    n(q)    QCUT    max X(q) W(low)/X(q) W(high)/X(q)  e(spline) 
   1     10    11.905     4.550    0.27E-05    0.11E-05    0.28E-07
   1     10    11.905     5.234    0.10E-04    0.61E-04    0.17E-06
   2      9    11.905     3.960    0.19E-04    0.73E-05    0.50E-07
   2      9    11.905    29.565    0.24E-03    0.51E-04    0.27E-06
   0     10    11.905    23.582    0.17E-04    0.10E-05    0.14E-07
   0     10    11.905    39.747    0.23E-04    0.68E-05    0.74E-07
 Optimization of the real space projectors (new method)

 maximal supplied QI-value         = 17.95
 optimisation between [QCUT,QGAM] = [ 11.85, 23.88] = [ 39.31,159.64] Ry 
 Optimized for a Real-space Cutoff    1.18 Angstroem

   l    n(q)    QCUT    max X(q) W(low)/X(q) W(high)/X(q)  e(spline) 
   0      8    11.849     6.499    0.17E-04    0.94E-05    0.89E-08
   0      8    11.849    52.623    0.21E-03    0.78E-04    0.81E-07
   1      8    11.849     4.229    0.79E-04    0.83E-04    0.23E-07
   1      8    11.849    29.991    0.12E-03    0.43E-03    0.14E-06
   2      7    11.849     3.719    0.22E-03    0.64E-04    0.38E-07
 PAW_PBE Fe_pv 06Sep2000                :
 energy of atom  1       EATOM=-2456.8974
 kinetic energy error for atom=    0.0060 (will be added to EATOM!!)
 PAW_PBE Se 06Sep2000                   :
 energy of atom  2       EATOM= -256.9644
 kinetic energy error for atom=    0.0007 (will be added to EATOM!!)
 
 
 POSCAR: Fe8 Se8
  positions in direct lattice
  velocities in cartesian coordinates
 exchange correlation table for  LEXCH =        8
   RHO(1)=    0.500       N(1)  =     2000
   RHO(2)=  100.500       N(2)  =     4000
 


--------------------------------------------------------------------------------------------------------


 ion  position               nearest neighbor table
   1  0.000  0.000  0.000-  11 2.27  14 2.27   5 2.33   8 2.33   7 2.76   6 2.76
   2  0.000  0.500  0.000-  12 2.27  13 2.27   6 2.33   7 2.33   5 2.76   8 2.76
   3  0.500  0.000  0.000-   9 2.27  16 2.27   6 2.33   7 2.33   5 2.76   8 2.76
   4  0.500  0.500  0.000-  10 2.27  15 2.27   5 2.33   8 2.33   7 2.76   6 2.76
   5  0.250  0.250  0.000-   9 2.27  13 2.27   1 2.33   4 2.33   3 2.76   2 2.76
   6  0.250  0.750  0.000-  10 2.27  14 2.27   2 2.33   3 2.33   1 2.76   4 2.76
   7  0.750  0.250  0.000-  11 2.27  15 2.27   2 2.33   3 2.33   1 2.76   4 2.76
   8  0.750  0.750  0.000-  12 2.27  16 2.27   1 2.33   4 2.33   3 2.76   2 2.76
   9  0.375  0.125  0.657-   3 2.27   5 2.27
  10  0.375  0.625  0.657-   4 2.27   6 2.27
  11  0.875  0.125  0.657-   1 2.27   7 2.27
  12  0.875  0.625  0.657-   2 2.27   8 2.27
  13  0.125  0.375  0.343-   2 2.27   5 2.27
  14  0.125  0.875  0.343-   1 2.27   6 2.27
  15  0.625  0.375  0.343-   4 2.27   7 2.27
  16  0.625  0.875  0.343-   3 2.27   8 2.27
 
  LATTYP: Found a base centered orthorhombic cell.
 ALAT       =     9.3103052170
 B/A-ratio  =     1.1838692387
 C/A-ratio  =     0.5651949438
  
  Lattice vectors:
  
 A1 = (   4.6551526085,  -5.5110919745,   0.0000000000)
 A2 = (   4.6551526085,   5.5110919745,   0.0000000000)
 A3 = (   0.0000000000,   0.0000000000,   5.2621374338)


Analysis of symmetry for initial positions (statically):
=====================================================================
 Subroutine PRICEL returns following result:
 
  LATTYP: Found a base centered orthorhombic cell.
 ALAT       =     4.6551526085
 B/A-ratio  =     1.1838692387
 C/A-ratio  =     1.1303898876
  
  Lattice vectors:
  
 A1 = (   2.3275763043,  -2.7555459872,   0.0000000000)
 A2 = (   2.3275763043,   2.7555459872,   0.0000000000)
 A3 = (   0.0000000000,   0.0000000000,   5.2621374338)
 
   4 primitive cells build up your supercell.
 

 Routine SETGRP: Setting up the symmetry group for a 
 base centered orthorhombic supercell.


 Subroutine GETGRP returns: Found  8 space group operations
 (whereof  4 operations were pure point group operations)
 out of a pool of  8 trial point group operations.


The static configuration has the point symmetry C_2h.
 The point group associated with its full space group is D_2h.


Analysis of symmetry for dynamics (positions and initial velocities):
=====================================================================
 Subroutine PRICEL returns following result:
 
  LATTYP: Found a base centered orthorhombic cell.
 ALAT       =     4.6551526085
 B/A-ratio  =     1.1838692387
 C/A-ratio  =     1.1303898876
  
  Lattice vectors:
  
 A1 = (   2.3275763043,  -2.7555459872,   0.0000000000)
 A2 = (   2.3275763043,   2.7555459872,   0.0000000000)
 A3 = (   0.0000000000,   0.0000000000,   5.2621374338)
 
   4 primitive cells build up your supercell.
 

 Routine SETGRP: Setting up the symmetry group for a 
 base centered orthorhombic supercell.


 Subroutine GETGRP returns: Found  8 space group operations
 (whereof  4 operations were pure point group operations)
 out of a pool of  8 trial point group operations.


The dynamic configuration has the point symmetry C_2h.
 The point group associated with its full space group is D_2h.


Analysis of structural, dynamic, and magnetic symmetry:
=====================================================================
 Subroutine PRICEL returns following result:
 
  LATTYP: Found a base centered orthorhombic cell.
 ALAT       =     4.6551526085
 B/A-ratio  =     1.1838692387
 C/A-ratio  =     1.1303898876
  
  Lattice vectors:
  
 A1 = (   2.3275763043,  -2.7555459872,   0.0000000000)
 A2 = (   2.3275763043,   2.7555459872,   0.0000000000)
 A3 = (   0.0000000000,   0.0000000000,   5.2621374338)
 
   4 primitive cells build up your supercell.
 

 Routine SETGRP: Setting up the symmetry group for a 
 base centered orthorhombic supercell.


 Subroutine GETGRP returns: Found  8 space group operations
 (whereof  4 operations were pure point group operations)
 out of a pool of  8 trial point group operations.


The overall configuration has the point symmetry C_2h.
 The point group associated with its full space group is D_2h.


 Subroutine INISYM returns: Found  8 space group operations
 (whereof  4 operations are pure point group operations),
 and found     4 'primitive' translations


----------------------------------------------------------------------------------------

                                     Primitive cell                                     

  volume of cell :      67.5000

  direct lattice vectors                    reciprocal lattice vectors
     2.327576304 -2.755545987  0.000000000     0.214815729 -0.181452243  0.000000000
     2.327576304  2.755545987  0.000000000     0.214815729  0.181452243  0.000000000
     0.000000000  0.000000000  5.262137434     0.000000000  0.000000000  0.190036846

  length of vectors
     3.607027189  3.607027189  5.262137434     0.281195153  0.281195153  0.190036846

  position of ions in fractional coordinates (direct lattice)
     0.000000000  0.000000000  0.000000000
     0.500000000  0.500000000  0.000000000
     0.750000000  0.250000000  0.657487431
     0.250000000  0.750000000  0.342512569

  ion indices of the primitive-cell ions
   primitive index   ion index
                 1           1
                 2           5
                 3          11
                 4          14

----------------------------------------------------------------------------------------

 
 
 KPOINTS: KPOINTS                                 

Automatic generation of k-mesh.
 Grid dimensions read from file:
 generate k-points for:    7    7    9

 Generating k-lattice:

  Cartesian coordinates                     Fractional coordinates (reciprocal lattice)
     0.015343981 -0.012960874  0.000000000     0.142857143  0.000000000  0.000000000
     0.015343981  0.012960874  0.000000000     0.000000000  0.142857143  0.000000000
     0.000000000  0.000000000  0.021115205     0.000000000  0.000000000  0.111111111

  Length of vectors
     0.020085368  0.020085368  0.021115205

  Shift w.r.t. Gamma in fractional coordinates (k-lattice)
     0.000000000  0.000000000  0.000000000

 
 Subroutine IBZKPT returns following result:
 ===========================================
 
 Found     80 irreducible k-points:
 
 Following reciprocal coordinates:
            Coordinates               Weight
  0.000000  0.000000  0.000000      1.000000
  0.142857  0.000000  0.000000      4.000000
  0.285714  0.000000  0.000000      4.000000
  0.428571  0.000000  0.000000      4.000000
  0.142857  0.142857  0.000000      2.000000
  0.285714  0.142857  0.000000      4.000000
  0.428571  0.142857  0.000000      4.000000
 -0.428571  0.142857  0.000000      4.000000
 -0.285714  0.142857  0.000000      4.000000
 -0.142857  0.142857  0.000000      2.000000
  0.285714  0.285714  0.000000      2.000000
  0.428571  0.285714  0.000000      4.000000
 -0.428571  0.285714  0.000000      4.000000
 -0.285714  0.285714  0.000000      2.000000
  0.428571  0.428571  0.000000      2.000000
 -0.428571  0.428571  0.000000      2.000000
  0.000000  0.000000  0.111111      2.000000
  0.142857  0.000000  0.111111      8.000000
  0.285714  0.000000  0.111111      8.000000
  0.428571  0.000000  0.111111      8.000000
  0.142857  0.142857  0.111111      4.000000
  0.285714  0.142857  0.111111      8.000000
  0.428571  0.142857  0.111111      8.000000
 -0.428571  0.142857  0.111111      8.000000
 -0.285714  0.142857  0.111111      8.000000
 -0.142857  0.142857  0.111111      4.000000
  0.285714  0.285714  0.111111      4.000000
  0.428571  0.285714  0.111111      8.000000
 -0.428571  0.285714  0.111111      8.000000
 -0.285714  0.285714  0.111111      4.000000
  0.428571  0.428571  0.111111      4.000000
 -0.428571  0.428571  0.111111      4.000000
  0.000000  0.000000  0.222222      2.000000
  0.142857  0.000000  0.222222      8.000000
  0.285714  0.000000  0.222222      8.000000
  0.428571  0.000000  0.222222      8.000000
  0.142857  0.142857  0.222222      4.000000
  0.285714  0.142857  0.222222      8.000000
  0.428571  0.142857  0.222222      8.000000
 -0.428571  0.142857  0.222222      8.000000
 -0.285714  0.142857  0.222222      8.000000
 -0.142857  0.142857  0.222222      4.000000
  0.285714  0.285714  0.222222      4.000000
  0.428571  0.285714  0.222222      8.000000
 -0.428571  0.285714  0.222222      8.000000
 -0.285714  0.285714  0.222222      4.000000
  0.428571  0.428571  0.222222      4.000000
 -0.428571  0.428571  0.222222      4.000000
  0.000000  0.000000  0.333333      2.000000
  0.142857  0.000000  0.333333      8.000000
  0.285714  0.000000  0.333333      8.000000
  0.428571  0.000000  0.333333      8.000000
  0.142857  0.142857  0.333333      4.000000
  0.285714  0.142857  0.333333      8.000000
  0.428571  0.142857  0.333333      8.000000
 -0.428571  0.142857  0.333333      8.000000
 -0.285714  0.142857  0.333333      8.000000
 -0.142857  0.142857  0.333333      4.000000
  0.285714  0.285714  0.333333      4.000000
  0.428571  0.285714  0.333333      8.000000
 -0.428571  0.285714  0.333333      8.000000
 -0.285714  0.285714  0.333333      4.000000
  0.428571  0.428571  0.333333      4.000000
 -0.428571  0.428571  0.333333      4.000000
  0.000000  0.000000  0.444444      2.000000
  0.142857  0.000000  0.444444      8.000000
  0.285714  0.000000  0.444444      8.000000
  0.428571  0.000000  0.444444      8.000000
  0.142857  0.142857  0.444444      4.000000
  0.285714  0.142857  0.444444      8.000000
  0.428571  0.142857  0.444444      8.000000
 -0.428571  0.142857  0.444444      8.000000
 -0.285714  0.142857  0.444444      8.000000
 -0.142857  0.142857  0.444444      4.000000
  0.285714  0.285714  0.444444      4.000000
  0.428571  0.285714  0.444444      8.000000
 -0.428571  0.285714  0.444444      8.000000
 -0.285714  0.285714  0.444444      4.000000
  0.428571  0.428571  0.444444      4.000000
 -0.428571  0.428571  0.444444      4.000000
 
 Following cartesian coordinates:
            Coordinates               Weight
  0.000000  0.000000  0.000000      1.000000
  0.015344 -0.012961  0.000000      4.000000
  0.030688 -0.025922  0.000000      4.000000
  0.046032 -0.038883  0.000000      4.000000
  0.030688  0.000000  0.000000      2.000000
  0.046032 -0.012961  0.000000      4.000000
  0.061376 -0.025922  0.000000      4.000000
 -0.030688  0.051843  0.000000      4.000000
 -0.015344  0.038883  0.000000      4.000000
 -0.000000  0.025922  0.000000      2.000000
  0.061376  0.000000  0.000000      2.000000
  0.076720 -0.012961  0.000000      4.000000
 -0.015344  0.064804  0.000000      4.000000
  0.000000  0.051843  0.000000      2.000000
  0.092064  0.000000  0.000000      2.000000
 -0.000000  0.077765  0.000000      2.000000
  0.000000  0.000000  0.021115      2.000000
  0.015344 -0.012961  0.021115      8.000000
  0.030688 -0.025922  0.021115      8.000000
  0.046032 -0.038883  0.021115      8.000000
  0.030688  0.000000  0.021115      4.000000
  0.046032 -0.012961  0.021115      8.000000
  0.061376 -0.025922  0.021115      8.000000
 -0.030688  0.051843  0.021115      8.000000
 -0.015344  0.038883  0.021115      8.000000
 -0.000000  0.025922  0.021115      4.000000
  0.061376  0.000000  0.021115      4.000000
  0.076720 -0.012961  0.021115      8.000000
 -0.015344  0.064804  0.021115      8.000000
  0.000000  0.051843  0.021115      4.000000
  0.092064  0.000000  0.021115      4.000000
 -0.000000  0.077765  0.021115      4.000000
  0.000000  0.000000  0.042230      2.000000
  0.015344 -0.012961  0.042230      8.000000
  0.030688 -0.025922  0.042230      8.000000
  0.046032 -0.038883  0.042230      8.000000
  0.030688  0.000000  0.042230      4.000000
  0.046032 -0.012961  0.042230      8.000000
  0.061376 -0.025922  0.042230      8.000000
 -0.030688  0.051843  0.042230      8.000000
 -0.015344  0.038883  0.042230      8.000000
 -0.000000  0.025922  0.042230      4.000000
  0.061376  0.000000  0.042230      4.000000
  0.076720 -0.012961  0.042230      8.000000
 -0.015344  0.064804  0.042230      8.000000
  0.000000  0.051843  0.042230      4.000000
  0.092064  0.000000  0.042230      4.000000
 -0.000000  0.077765  0.042230      4.000000
  0.000000  0.000000  0.063346      2.000000
  0.015344 -0.012961  0.063346      8.000000
  0.030688 -0.025922  0.063346      8.000000
  0.046032 -0.038883  0.063346      8.000000
  0.030688  0.000000  0.063346      4.000000
  0.046032 -0.012961  0.063346      8.000000
  0.061376 -0.025922  0.063346      8.000000
 -0.030688  0.051843  0.063346      8.000000
 -0.015344  0.038883  0.063346      8.000000
 -0.000000  0.025922  0.063346      4.000000
  0.061376  0.000000  0.063346      4.000000
  0.076720 -0.012961  0.063346      8.000000
 -0.015344  0.064804  0.063346      8.000000
  0.000000  0.051843  0.063346      4.000000
  0.092064  0.000000  0.063346      4.000000
 -0.000000  0.077765  0.063346      4.000000
  0.000000  0.000000  0.084461      2.000000
  0.015344 -0.012961  0.084461      8.000000
  0.030688 -0.025922  0.084461      8.000000
  0.046032 -0.038883  0.084461      8.000000
  0.030688  0.000000  0.084461      4.000000
  0.046032 -0.012961  0.084461      8.000000
  0.061376 -0.025922  0.084461      8.000000
 -0.030688  0.051843  0.084461      8.000000
 -0.015344  0.038883  0.084461      8.000000
 -0.000000  0.025922  0.084461      4.000000
  0.061376  0.000000  0.084461      4.000000
  0.076720 -0.012961  0.084461      8.000000
 -0.015344  0.064804  0.084461      8.000000
  0.000000  0.051843  0.084461      4.000000
  0.092064  0.000000  0.084461      4.000000
 -0.000000  0.077765  0.084461      4.000000
 


--------------------------------------------------------------------------------------------------------




 Dimension of arrays:
   k-points           NKPTS =     80   k-points in BZ     NKDIM =     80   number of bands    NBANDS=    100
   number of dos      NEDOS =    301   number of ions     NIONS =     16
   non local maximal  LDIM  =      6   non local SUM 2l+1 LMDIM =     18
   total plane-waves  NPLWV = 125440
   max r-space proj   IRMAX =   5957   max aug-charges    IRDMAX=  20458
   dimension x,y,z NGX =    56 NGY =   56 NGZ =   40
   dimension x,y,z NGXF=   112 NGYF=  112 NGZF=   80
   support grid    NGXF=   112 NGYF=  112 NGZF=   80
   ions per type =               8   8
   NGX,Y,Z   is equivalent  to a cutoff of  12.91, 12.91, 12.64 a.u.
   NGXF,Y,Z  is equivalent  to a cutoff of  25.81, 25.81, 25.27 a.u.

 SYSTEM =  unknown system                          
 POSCAR =  Fe8 Se8                                 

 Startparameter for this run:
   NWRITE =      2    write-flag & timer
   PREC   = accura    normal or accurate (medium, high low for compatibility)
   ISTART =      0    job   : 0-new  1-cont  2-samecut
   ICHARG =      2    charge: 1-file 2-atom 10-const
   ISPIN  =      2    spin polarized calculation?
   LNONCOLLINEAR =      F non collinear calculations
   LSORBIT =      F    spin-orbit coupling
   INIWAV =      1    electr: 0-lowe 1-rand  2-diag
   LASPH  =      T    aspherical Exc in radial PAW
 Electronic Relaxation 1
   ENCUT  =  550.0 eV  40.42 Ry    6.36 a.u.  13.79 13.79 10.06*2*pi/ulx,y,z
   ENINI  =  550.0     initial cutoff
   ENAUG  =  578.3 eV  augmentation charge cutoff
   NELM   =    100;   NELMIN=  2; NELMDL=  0     # of ELM steps 
   EDIFF  = 0.2E-03   stopping-criterion for ELM
   LREAL  =      T    real-space projection
   NLSPLINE    = F    spline interpolate recip. space projectors
   LCOMPAT=      F    compatible to vasp.4.4
   GGA_COMPAT  = T    GGA compatible to vasp.4.4-vasp.4.6
   LMAXPAW     = -100 max onsite density
   LMAXMIX     =    4 max onsite mixed and CHGCAR
   VOSKOWN=      0    Vosko Wilk Nusair interpolation
   ROPT   =   -0.00025  -0.00025
 Ionic relaxation
   EDIFFG = 0.2E-02   stopping-criterion for IOM
   NSW    =     99    number of steps for IOM
   NBLOCK =      1;   KBLOCK =     99    inner block; outer block 
   IBRION =      2    ionic relax: 0-MD 1-quasi-New 2-CG
   NFREE  =      1    steps in history (QN), initial steepest desc. (CG)
   ISIF   =      4    stress and relaxation
   IWAVPR =     11    prediction:  0-non 1-charg 2-wave 3-comb
   ISYM   =      2    0-nonsym 1-usesym 2-fastsym
   LCORR  =      T    Harris-Foulkes like correction to forces

   POTIM  = 0.5000    time-step for ionic-motion
   TEIN   =    0.0    initial temperature
   TEBEG  =    0.0;   TEEND  =   0.0 temperature during run
   SMASS  =  -3.00    Nose mass-parameter (am)
   estimated Nose-frequenzy (Omega)   =  0.10E-29 period in steps = 0.13E+47 mass=  -0.119E-26a.u.
   SCALEE = 1.0000    scale energy and forces
   NPACO  =    256;   APACO  = 10.0  distance and # of slots for P.C.
   PSTRESS=    0.0 pullay stress

  Mass of Ions in am
   POMASS =  55.85 78.96
  Ionic Valenz
   ZVAL   =  14.00  6.00
  Atomic Wigner-Seitz radii
   RWIGS  =  -1.00 -1.00
  virtual crystal weights 
   VCA    =   1.00  1.00
   NELECT =     160.0000    total number of electrons
   NUPDOWN=      -1.0000    fix difference up-down

 DOS related values:
   EMIN   =  10.00;   EMAX   =-10.00  energy-range for DOS
   EFERMI =   0.00;   METHOD = LEGACY      
   ISMEAR =     0;   SIGMA  =   0.05  broadening in eV -4-tet -1-fermi 0-gaus

 Electronic relaxation 2 (details)
   IALGO  =     68    algorithm
   LDIAG  =      T    sub-space diagonalisation (order eigenvalues)
   LSUBROT=      F    optimize rotation matrix (better conditioning)
   TURBO    =      0    0=normal 1=particle mesh
   IRESTART =      0    0=no restart 2=restart with 2 vectors
   NREBOOT  =      0    no. of reboots
   NMIN     =      0    reboot dimension
   EREF     =   0.00    reference energy to select bands
   IMIX   =      4    mixing-type and parameters
     AMIX     =   0.40;   BMIX     =  1.00
     AMIX_MAG =   1.60;   BMIX_MAG =  1.00
     AMIN     =   0.10
     WC   =   100.;   INIMIX=   1;  MIXPRE=   1;  MAXMIX= -45

 Intra band minimization:
   WEIMIN = 0.0010     energy-eigenvalue tresh-hold
   EBREAK =  0.50E-06  absolut break condition
   DEPER  =   0.30     relativ break condition  

   TIME   =   0.40     timestep for ELM

  volume/ion in A,a.u.               =      16.88       113.88
  Fermi-wavevector in a.u.,A,eV,Ry     =   1.375077  2.598518 25.726382  1.890836
  Thomas-Fermi vector in A             =   2.500445
 
 Write flags
   LWAVE        =      F    write WAVECAR
   LDOWNSAMPLE  =      F    k-point downsampling of WAVECAR
   LCHARG       =      T    write CHGCAR
   LVTOT        =      F    write LOCPOT, total local potential
   LVHAR        =      F    write LOCPOT, Hartree potential only
   LELF         =      F    write electronic localiz. function (ELF)
   LORBIT       =     11    0 simple, 1 ext, 2 COOP (PROOUT), +10 PAW based schemes


 Dipole corrections
   LMONO  =      F    monopole corrections only (constant potential shift)
   LDIPOL =      F    correct potential (dipole corrections)
   IDIPOL =      0    1-x, 2-y, 3-z, 4-all directions 
   EPSILON=  1.0000000 bulk dielectric constant

 Exchange correlation treatment:
   GGA     =    --    GGA type
   LEXCH   =     8    internal setting for exchange type
   LIBXC   =     F    Libxc                    
   VOSKOWN =     0    Vosko Wilk Nusair interpolation
   LHFCALC =     F    Hartree Fock is set to
   LHFONE  =     F    Hartree Fock one center treatment
   AEXX    =    0.0000 exact exchange contribution

 Linear response parameters
   LEPSILON=     F    determine dielectric tensor
   LRPA    =     F    only Hartree local field effects (RPA)
   LNABLA  =     F    use nabla operator in PAW spheres
   LVEL    =     F    velocity operator in full k-point grid
   CSHIFT  =0.1000    complex shift for real part using Kramers Kronig
   OMEGAMAX=  -1.0    maximum frequency
   DEG_THRESHOLD= 0.2000000E-02 threshold for treating states as degnerate
   RTIME   =   -0.100 relaxation time in fs
  (WPLASMAI=    0.000 imaginary part of plasma frequency in eV, 0.658/RTIME)
   DFIELD  = 0.0000000 0.0000000 0.0000000 field for delta impulse in time
 
  Optional k-point grid parameters
   LKPOINTS_OPT  =     F    use optional k-point grid
   KPOINTS_OPT_MODE=     1    mode for optional k-point grid
 
 Orbital magnetization related:
   ORBITALMAG=     F  switch on orbital magnetization
   LCHIMAG   =     F  perturbation theory with respect to B field
   DQ        =  0.001000  dq finite difference perturbation B field
   LLRAUG    =     F  two centre corrections for induced B field
   LBONE     =     F  B-component reconstruction in AE one-centre
   LVGVCALC  =     T  calculate vGv susceptibility
   LVGVAPPL  =     F  apply vGv susceptibility instead of pGv for G=0

 Random number generation:
   RANDOM_GENERATOR = DEFAULT
   PCG_SEED         = not used


--------------------------------------------------------------------------------------------------------


 conjugate gradient relaxation of ions
 charge density and potential will be updated during run
 spin polarized calculation
 RMM-DIIS sequential band-by-band and
  variant of blocked Davidson during initial phase
 perform sub-space diagonalisation
    before iterative eigenvector-optimisation
 modified Broyden-mixing scheme, WC =      100.0
 initial mixing is a Kerker type mixing with AMIX =  0.4000 and BMIX =      1.0000
 Hartree-type preconditioning will be used
 using additional bands           20
 real space projection scheme for non local part
 use partial core corrections
 calculate Harris-corrections to forces 
   (improved forces if not selfconsistent)
 use gradient corrections 
 use of overlap-Matrix (Vanderbilt PP)
 Gauss-broadening in eV      SIGMA  =   0.05


--------------------------------------------------------------------------------------------------------


  energy-cutoff  :      550.00
  volume of cell :      270.00
      direct lattice vectors                 reciprocal lattice vectors
     4.655152609 -5.511091974  0.000000000     0.107407864 -0.090726121  0.000000000
     4.655152609  5.511091974  0.000000000     0.107407864  0.090726121  0.000000000
     0.000000000  0.000000000  5.262137434     0.000000000  0.000000000  0.190036846

  length of vectors
     7.214054377  7.214054377  5.262137434     0.140597576  0.140597576  0.190036846


 
 k-points in units of 2pi/SCALE and weight: KPOINTS                                 
   0.00000000  0.00000000  0.00000000       0.002
   0.01534398 -0.01296087  0.00000000       0.009
   0.03068796 -0.02592175  0.00000000       0.009
   0.04603194 -0.03888262  0.00000000       0.009
   0.03068796 -0.00000000  0.00000000       0.005
   0.04603194 -0.01296087  0.00000000       0.009
   0.06137592 -0.02592175  0.00000000       0.009
  -0.03068796  0.05184350  0.00000000       0.009
  -0.01534398  0.03888262  0.00000000       0.009
   0.00000000  0.02592175  0.00000000       0.005
   0.06137592 -0.00000000  0.00000000       0.005
   0.07671990 -0.01296087  0.00000000       0.009
  -0.01534398  0.06480437  0.00000000       0.009
  -0.00000000  0.05184350  0.00000000       0.005
   0.09206388 -0.00000000  0.00000000       0.005
   0.00000000  0.07776525  0.00000000       0.005
   0.00000000  0.00000000  0.02111521       0.005
   0.01534398 -0.01296087  0.02111521       0.018
   0.03068796 -0.02592175  0.02111521       0.018
   0.04603194 -0.03888262  0.02111521       0.018
   0.03068796 -0.00000000  0.02111521       0.009
   0.04603194 -0.01296087  0.02111521       0.018
   0.06137592 -0.02592175  0.02111521       0.018
  -0.03068796  0.05184350  0.02111521       0.018
  -0.01534398  0.03888262  0.02111521       0.018
   0.00000000  0.02592175  0.02111521       0.009
   0.06137592 -0.00000000  0.02111521       0.009
   0.07671990 -0.01296087  0.02111521       0.018
  -0.01534398  0.06480437  0.02111521       0.018
  -0.00000000  0.05184350  0.02111521       0.009
   0.09206388 -0.00000000  0.02111521       0.009
   0.00000000  0.07776525  0.02111521       0.009
   0.00000000  0.00000000  0.04223041       0.005
   0.01534398 -0.01296087  0.04223041       0.018
   0.03068796 -0.02592175  0.04223041       0.018
   0.04603194 -0.03888262  0.04223041       0.018
   0.03068796 -0.00000000  0.04223041       0.009
   0.04603194 -0.01296087  0.04223041       0.018
   0.06137592 -0.02592175  0.04223041       0.018
  -0.03068796  0.05184350  0.04223041       0.018
  -0.01534398  0.03888262  0.04223041       0.018
   0.00000000  0.02592175  0.04223041       0.009
   0.06137592 -0.00000000  0.04223041       0.009
   0.07671990 -0.01296087  0.04223041       0.018
  -0.01534398  0.06480437  0.04223041       0.018
  -0.00000000  0.05184350  0.04223041       0.009
   0.09206388 -0.00000000  0.04223041       0.009
   0.00000000  0.07776525  0.04223041       0.009
   0.00000000  0.00000000  0.06334562       0.005
   0.01534398 -0.01296087  0.06334562       0.018
   0.03068796 -0.02592175  0.06334562       0.018
   0.04603194 -0.03888262  0.06334562       0.018
   0.03068796 -0.00000000  0.06334562       0.009
   0.04603194 -0.01296087  0.06334562       0.018
   0.06137592 -0.02592175  0.06334562       0.018
  -0.03068796  0.05184350  0.06334562       0.018
  -0.01534398  0.03888262  0.06334562       0.018
   0.00000000  0.02592175  0.06334562       0.009
   0.06137592 -0.00000000  0.06334562       0.009
   0.07671990 -0.01296087  0.06334562       0.018
  -0.01534398  0.06480437  0.06334562       0.018
  -0.00000000  0.05184350  0.06334562       0.009
   0.09206388 -0.00000000  0.06334562       0.009
   0.00000000  0.07776525  0.06334562       0.009
   0.00000000  0.00000000  0.08446082       0.005
   0.01534398 -0.01296087  0.08446082       0.018
   0.03068796 -0.02592175  0.08446082       0.018
   0.04603194 -0.03888262  0.08446082       0.018
   0.03068796 -0.00000000  0.08446082       0.009
   0.04603194 -0.01296087  0.08446082       0.018
   0.06137592 -0.02592175  0.08446082       0.018
  -0.03068796  0.05184350  0.08446082       0.018
  -0.01534398  0.03888262  0.08446082       0.018
   0.00000000  0.02592175  0.08446082       0.009
   0.06137592 -0.00000000  0.08446082       0.009
   0.07671990 -0.01296087  0.08446082       0.018
  -0.01534398  0.06480437  0.08446082       0.018
  -0.00000000  0.05184350  0.08446082       0.009
   0.09206388 -0.00000000  0.08446082       0.009
   0.00000000  0.07776525  0.08446082       0.009
 
 k-points in reciprocal lattice and weights: KPOINTS                                 
   0.00000000  0.00000000  0.00000000       0.002
   0.14285714  0.00000000  0.00000000       0.009
   0.28571429  0.00000000  0.00000000       0.009
   0.42857143  0.00000000  0.00000000       0.009
   0.14285714  0.14285714  0.00000000       0.005
   0.28571429  0.14285714  0.00000000       0.009
   0.42857143  0.14285714  0.00000000       0.009
  -0.42857143  0.14285714  0.00000000       0.009
  -0.28571429  0.14285714  0.00000000       0.009
  -0.14285714  0.14285714  0.00000000       0.005
   0.28571429  0.28571429  0.00000000       0.005
   0.42857143  0.28571429  0.00000000       0.009
  -0.42857143  0.28571429  0.00000000       0.009
  -0.28571429  0.28571429  0.00000000       0.005
   0.42857143  0.42857143  0.00000000       0.005
  -0.42857143  0.42857143  0.00000000       0.005
   0.00000000  0.00000000  0.11111111       0.005
   0.14285714  0.00000000  0.11111111       0.018
   0.28571429  0.00000000  0.11111111       0.018
   0.42857143  0.00000000  0.11111111       0.018
   0.14285714  0.14285714  0.11111111       0.009
   0.28571429  0.14285714  0.11111111       0.018
   0.42857143  0.14285714  0.11111111       0.018
  -0.42857143  0.14285714  0.11111111       0.018
  -0.28571429  0.14285714  0.11111111       0.018
  -0.14285714  0.14285714  0.11111111       0.009
   0.28571429  0.28571429  0.11111111       0.009
   0.42857143  0.28571429  0.11111111       0.018
  -0.42857143  0.28571429  0.11111111       0.018
  -0.28571429  0.28571429  0.11111111       0.009
   0.42857143  0.42857143  0.11111111       0.009
  -0.42857143  0.42857143  0.11111111       0.009
   0.00000000  0.00000000  0.22222222       0.005
   0.14285714  0.00000000  0.22222222       0.018
   0.28571429  0.00000000  0.22222222       0.018
   0.42857143  0.00000000  0.22222222       0.018
   0.14285714  0.14285714  0.22222222       0.009
   0.28571429  0.14285714  0.22222222       0.018
   0.42857143  0.14285714  0.22222222       0.018
  -0.42857143  0.14285714  0.22222222       0.018
  -0.28571429  0.14285714  0.22222222       0.018
  -0.14285714  0.14285714  0.22222222       0.009
   0.28571429  0.28571429  0.22222222       0.009
   0.42857143  0.28571429  0.22222222       0.018
  -0.42857143  0.28571429  0.22222222       0.018
  -0.28571429  0.28571429  0.22222222       0.009
   0.42857143  0.42857143  0.22222222       0.009
  -0.42857143  0.42857143  0.22222222       0.009
   0.00000000  0.00000000  0.33333333       0.005
   0.14285714  0.00000000  0.33333333       0.018
   0.28571429  0.00000000  0.33333333       0.018
   0.42857143  0.00000000  0.33333333       0.018
   0.14285714  0.14285714  0.33333333       0.009
   0.28571429  0.14285714  0.33333333       0.018
   0.42857143  0.14285714  0.33333333       0.018
  -0.42857143  0.14285714  0.33333333       0.018
  -0.28571429  0.14285714  0.33333333       0.018
  -0.14285714  0.14285714  0.33333333       0.009
   0.28571429  0.28571429  0.33333333       0.009
   0.42857143  0.28571429  0.33333333       0.018
  -0.42857143  0.28571429  0.33333333       0.018
  -0.28571429  0.28571429  0.33333333       0.009
   0.42857143  0.42857143  0.33333333       0.009
  -0.42857143  0.42857143  0.33333333       0.009
   0.00000000  0.00000000  0.44444444       0.005
   0.14285714  0.00000000  0.44444444       0.018
   0.28571429  0.00000000  0.44444444       0.018
   0.42857143  0.00000000  0.44444444       0.018
   0.14285714  0.14285714  0.44444444       0.009
   0.28571429  0.14285714  0.44444444       0.018
   0.42857143  0.14285714  0.44444444       0.018
  -0.42857143  0.14285714  0.44444444       0.018
  -0.28571429  0.14285714  0.44444444       0.018
  -0.14285714  0.14285714  0.44444444       0.009
   0.28571429  0.28571429  0.44444444       0.009
   0.42857143  0.28571429  0.44444444       0.018
  -0.42857143  0.28571429  0.44444444       0.018
  -0.28571429  0.28571429  0.44444444       0.009
   0.42857143  0.42857143  0.44444444       0.009
  -0.42857143  0.42857143  0.44444444       0.009
 
 position of ions in fractional coordinates (direct lattice) 
   0.00000000  0.00000000  0.00000000
   0.00000000  0.50000000  0.00000000
   0.50000000  0.00000000  0.00000000
   0.50000000  0.50000000  0.00000000
   0.25000000  0.25000000  0.00000000
   0.25000000  0.75000000  0.00000000
   0.75000000  0.25000000  0.00000000
   0.75000000  0.75000000  0.00000000
   0.37500000  0.12500000  0.65748743
   0.37500000  0.62500000  0.65748743
   0.87500000  0.12500000  0.65748743
   0.87500000  0.62500000  0.65748743
   0.12500000  0.37500000  0.34251257
   0.12500000  0.87500000  0.34251257
   0.62500000  0.37500000  0.34251257
   0.62500000  0.87500000  0.34251257
 
 position of ions in cartesian coordinates  (Angst):
   0.00000000  0.00000000  0.00000000
   2.32757630  2.75554599  0.00000000
   2.32757630 -2.75554599  0.00000000
   4.65515261  0.00000000  0.00000000
   2.32757630  0.00000000  0.00000000
   4.65515261  2.75554599  0.00000000
   4.65515261 -2.75554599  0.00000000
   6.98272891  0.00000000  0.00000000
   2.32757630 -1.37777299  3.45978922
   4.65515261  1.37777299  3.45978922
   4.65515261 -4.13331898  3.45978922
   6.98272891 -1.37777299  3.45978922
   2.32757630  1.37777299  1.80234821
   4.65515261  4.13331898  1.80234821
   4.65515261 -1.37777299  1.80234821
   6.98272891  1.37777299  1.80234821
 


--------------------------------------------------------------------------------------------------------


 k-point   1 :   0.0000 0.0000 0.0000  plane waves:    7877
 k-point   2 :   0.1429 0.0000 0.0000  plane waves:    7887
 k-point   3 :   0.2857 0.0000 0.0000  plane waves:    7895
 k-point   4 :   0.4286 0.0000 0.0000  plane waves:    7892
 k-point   5 :   0.1429 0.1429 0.0000  plane waves:    7898
 k-point   6 :   0.2857 0.1429 0.0000  plane waves:    7883
 k-point   7 :   0.4286 0.1429 0.0000  plane waves:    7903
 k-point   8 :  -0.4286 0.1429 0.0000  plane waves:    7906
 k-point   9 :  -0.2857 0.1429 0.0000  plane waves:    7896
 k-point  10 :  -0.1429 0.1429 0.0000  plane waves:    7889
 k-point  11 :   0.2857 0.2857 0.0000  plane waves:    7904
 k-point  12 :   0.4286 0.2857 0.0000  plane waves:    7912
 k-point  13 :  -0.4286 0.2857 0.0000  plane waves:    7901
 k-point  14 :  -0.2857 0.2857 0.0000  plane waves:    7881
 k-point  15 :   0.4286 0.4286 0.0000  plane waves:    7892
 k-point  16 :  -0.4286 0.4286 0.0000  plane waves:    7889
 k-point  17 :   0.0000 0.0000 0.1111  plane waves:    7914
 k-point  18 :   0.1429 0.0000 0.1111  plane waves:    7901
 k-point  19 :   0.2857 0.0000 0.1111  plane waves:    7892
 k-point  20 :   0.4286 0.0000 0.1111  plane waves:    7897
 k-point  21 :   0.1429 0.1429 0.1111  plane waves:    7896
 k-point  22 :   0.2857 0.1429 0.1111  plane waves:    7891
 k-point  23 :   0.4286 0.1429 0.1111  plane waves:    7895
 k-point  24 :  -0.4286 0.1429 0.1111  plane waves:    7903
 k-point  25 :  -0.2857 0.1429 0.1111  plane waves:    7899
 k-point  26 :  -0.1429 0.1429 0.1111  plane waves:    7895
 k-point  27 :   0.2857 0.2857 0.1111  plane waves:    7878
 k-point  28 :   0.4286 0.2857 0.1111  plane waves:    7904
 k-point  29 :  -0.4286 0.2857 0.1111  plane waves:    7909
 k-point  30 :  -0.2857 0.2857 0.1111  plane waves:    7912
 k-point  31 :   0.4286 0.4286 0.1111  plane waves:    7922
 k-point  32 :  -0.4286 0.4286 0.1111  plane waves:    7913
 k-point  33 :   0.0000 0.0000 0.2222  plane waves:    7928
 k-point  34 :   0.1429 0.0000 0.2222  plane waves:    7896
 k-point  35 :   0.2857 0.0000 0.2222  plane waves:    7905
 k-point  36 :   0.4286 0.0000 0.2222  plane waves:    7916
 k-point  37 :   0.1429 0.1429 0.2222  plane waves:    7886
 k-point  38 :   0.2857 0.1429 0.2222  plane waves:    7903
 k-point  39 :   0.4286 0.1429 0.2222  plane waves:    7909
 k-point  40 :  -0.4286 0.1429 0.2222  plane waves:    7902
 k-point  41 :  -0.2857 0.1429 0.2222  plane waves:    7912
 k-point  42 :  -0.1429 0.1429 0.2222  plane waves:    7910
 k-point  43 :   0.2857 0.2857 0.2222  plane waves:    7923
 k-point  44 :   0.4286 0.2857 0.2222  plane waves:    7918
 k-point  45 :  -0.4286 0.2857 0.2222  plane waves:    7902
 k-point  46 :  -0.2857 0.2857 0.2222  plane waves:    7901
 k-point  47 :   0.4286 0.4286 0.2222  plane waves:    7917
 k-point  48 :  -0.4286 0.4286 0.2222  plane waves:    7923
 k-point  49 :   0.0000 0.0000 0.3333  plane waves:    7912
 k-point  50 :   0.1429 0.0000 0.3333  plane waves:    7899
 k-point  51 :   0.2857 0.0000 0.3333  plane waves:    7917
 k-point  52 :   0.4286 0.0000 0.3333  plane waves:    7914
 k-point  53 :   0.1429 0.1429 0.3333  plane waves:    7905
 k-point  54 :   0.2857 0.1429 0.3333  plane waves:    7917
 k-point  55 :   0.4286 0.1429 0.3333  plane waves:    7925
 k-point  56 :  -0.4286 0.1429 0.3333  plane waves:    7919
 k-point  57 :  -0.2857 0.1429 0.3333  plane waves:    7915
 k-point  58 :  -0.1429 0.1429 0.3333  plane waves:    7914
 k-point  59 :   0.2857 0.2857 0.3333  plane waves:    7914
 k-point  60 :   0.4286 0.2857 0.3333  plane waves:    7913
 k-point  61 :  -0.4286 0.2857 0.3333  plane waves:    7913
 k-point  62 :  -0.2857 0.2857 0.3333  plane waves:    7908
 k-point  63 :   0.4286 0.4286 0.3333  plane waves:    7913
 k-point  64 :  -0.4286 0.4286 0.3333  plane waves:    7908
 k-point  65 :   0.0000 0.0000 0.4444  plane waves:    7898
 k-point  66 :   0.1429 0.0000 0.4444  plane waves:    7921
 k-point  67 :   0.2857 0.0000 0.4444  plane waves:    7930
 k-point  68 :   0.4286 0.0000 0.4444  plane waves:    7935
 k-point  69 :   0.1429 0.1429 0.4444  plane waves:    7925
 k-point  70 :   0.2857 0.1429 0.4444  plane waves:    7926
 k-point  71 :   0.4286 0.1429 0.4444  plane waves:    7923
 k-point  72 :  -0.4286 0.1429 0.4444  plane waves:    7916
 k-point  73 :  -0.2857 0.1429 0.4444  plane waves:    7915
 k-point  74 :  -0.1429 0.1429 0.4444  plane waves:    7931
 k-point  75 :   0.2857 0.2857 0.4444  plane waves:    7923
 k-point  76 :   0.4286 0.2857 0.4444  plane waves:    7895
 k-point  77 :  -0.4286 0.2857 0.4444  plane waves:    7904
 k-point  78 :  -0.2857 0.2857 0.4444  plane waves:    7911
 k-point  79 :   0.4286 0.4286 0.4444  plane waves:    7905
 k-point  80 :  -0.4286 0.4286 0.4444  plane waves:    7905

 maximum and minimum number of plane-waves per node :      7935     7877

 maximum number of plane-waves:      7935
 maximum index in each direction: 
   IXMAX=   14   IYMAX=   13   IZMAX=   10
   IXMIN=  -14   IYMIN=  -14   IZMIN=  -10


 serial   3D FFT for wavefunctions
 parallel 3D FFT for charge:
    minimum data exchange during FFTs selected (reduces bandwidth)


 total amount of memory used by VASP MPI-rank0   164053. kBytes
=======================================================================

   base      :      30000. kBytes
   nonlr-proj:      11733. kBytes
   fftplans  :       2341. kBytes
   grid      :      14522. kBytes
   one-center:        497. kBytes
   wavefun   :     104960. kBytes
 
     INWAV:  cpu time      0.0000: real time      0.0002
 Broyden mixing: mesh for mixing (old mesh)
   NGX = 27   NGY = 27   NGZ = 21
  (NGX  =112   NGY  =112   NGZ  = 80)
  gives a total of  15309 points

 initial charge density was supplied:
 charge density of overlapping atoms calculated
 number of electron     160.0000000 magnetization      -0.0000000
 keeping initial charge density in first step


--------------------------------------------------------------------------------------------------------


 Maximum index for non-local projection operator         5755
 Maximum index for augmentation-charges         1130 (set IRDMAX)


--------------------------------------------------------------------------------------------------------


 First call to EWALD:  gamma=   0.274
 Maximum number of real-space cells 3x 3x 3
 Maximum number of reciprocal cells 3x 3x 2

    FEWALD:  cpu time      0.0015: real time      0.0015


--------------------------------------- Ionic step        1  -------------------------------------------




--------------------------------------- Iteration      1(   1)  ---------------------------------------


    POTLOK:  cpu time      0.0516: real time      0.0696
    SETDIJ:  cpu time      0.2751: real time      0.2763
     EDDAV:  cpu time     23.4889: real time     23.6467
       DOS:  cpu time      0.0027: real time      0.0028
    --------------------------------------------
      LOOP:  cpu time     23.8183: real time     23.9954

 eigenvalue-minimisations  : 33240
 total energy-change (2. order) : 0.2071826E+04  (-0.8889177E+04)
 number of electron     160.0000000 magnetization      -0.0000000
 augmentation part      160.0000000 magnetization      -0.0000000

 Free energy of the ion-electron system (eV)
  ---------------------------------------------------
  alpha Z        PSCENC =       940.56142696
  Ewald energy   TEWEN  =    -12356.21963583
  -Hartree energ DENC   =     -8308.76447741
  -exchange      EXHF   =         0.00000000
  -V(xc)+E(xc)   XCENC  =       569.09410213
  PAW double counting   =     15529.06717713   -16124.93842950
  entropy T*S    EENTRO =        -0.00734747
  eigenvalues    EBANDS =       112.19208395
  atomic energy  EATOM  =     21710.84102437
  Solvation  Ediel_sol  =         0.00000000
  ---------------------------------------------------
  free energy    TOTEN  =      2071.82592432 eV

  energy without entropy =     2071.83327179  energy(sigma->0) =     2071.82959805


--------------------------------------------------------------------------------------------------------




--------------------------------------- Iteration      1(   2)  ---------------------------------------


     EDDAV:  cpu time     23.0369: real time     23.2292
       DOS:  cpu time      0.0024: real time      0.0024
    --------------------------------------------
      LOOP:  cpu time     23.0393: real time     23.2316

 eigenvalue-minimisations  : 32000
 total energy-change (2. order) :-0.1950423E+04  (-0.1893104E+04)
 number of electron     160.0000000 magnetization      -0.0000000
 augmentation part      160.0000000 magnetization      -0.0000000

 Free energy of the ion-electron system (eV)
  ---------------------------------------------------
  alpha Z        PSCENC =       940.56142696
  Ewald energy   TEWEN  =    -12356.21963583
  -Hartree energ DENC   =     -8308.76447741
  -exchange      EXHF   =         0.00000000
  -V(xc)+E(xc)   XCENC  =       569.09410213
  PAW double counting   =     15529.06717713   -16124.93842950
  entropy T*S    EENTRO =        -0.01371728
  eigenvalues    EBANDS =     -1838.22445741
  atomic energy  EATOM  =     21710.84102437
  Solvation  Ediel_sol  =         0.00000000
  ---------------------------------------------------
  free energy    TOTEN  =       121.40301315 eV

  energy without entropy =      121.41673043  energy(sigma->0) =      121.40987179


--------------------------------------------------------------------------------------------------------




--------------------------------------- Iteration      1(   3)  ---------------------------------------


     EDDAV:  cpu time     29.8989: real time     30.0947
       DOS:  cpu time      0.0022: real time      0.0022
    --------------------------------------------
      LOOP:  cpu time     29.9011: real time     30.0970

 eigenvalue-minimisations  : 44380
 total energy-change (2. order) :-0.2039567E+03  (-0.1809676E+03)
 number of electron     160.0000000 magnetization      -0.0000000
 augmentation part      160.0000000 magnetization      -0.0000000

 Free energy of the ion-electron system (eV)
  ---------------------------------------------------
  alpha Z        PSCENC =       940.56142696
  Ewald energy   TEWEN  =    -12356.21963583
  -Hartree energ DENC   =     -8308.76447741
  -exchange      EXHF   =         0.00000000
  -V(xc)+E(xc)   XCENC  =       569.09410213
  PAW double counting   =     15529.06717713   -16124.93842950
  entropy T*S    EENTRO =        -0.02439423
  eigenvalues    EBANDS =     -2042.17050038
  atomic energy  EATOM  =     21710.84102437
  Solvation  Ediel_sol  =         0.00000000
  ---------------------------------------------------
  free energy    TOTEN  =       -82.55370677 eV

  energy without entropy =      -82.52931255  energy(sigma->0) =      -82.54150966


--------------------------------------------------------------------------------------------------------




--------------------------------------- Iteration      1(   4)  ---------------------------------------


     EDDAV:  cpu time     30.6619: real time     30.8545
       DOS:  cpu time      0.0024: real time      0.0024
    --------------------------------------------
      LOOP:  cpu time     30.6643: real time     30.8569

 eigenvalue-minimisations  : 46000
 total energy-change (2. order) :-0.1349796E+02  (-0.1313594E+02)
 number of electron     160.0000000 magnetization      -0.0000000
 augmentation part      160.0000000 magnetization      -0.0000000

 Free energy of the ion-electron system (eV)
  ---------------------------------------------------
  alpha Z        PSCENC =       940.56142696
  Ewald energy   TEWEN  =    -12356.21963583
  -Hartree energ DENC   =     -8308.76447741
  -exchange      EXHF   =         0.00000000
  -V(xc)+E(xc)   XCENC  =       569.09410213
  PAW double counting   =     15529.06717713   -16124.93842950
  entropy T*S    EENTRO =        -0.02677197
  eigenvalues    EBANDS =     -2055.66608371
  atomic energy  EATOM  =     21710.84102437
  Solvation  Ediel_sol  =         0.00000000
  ---------------------------------------------------
  free energy    TOTEN  =       -96.05166785 eV

  energy without entropy =      -96.02489587  energy(sigma->0) =      -96.03828186


--------------------------------------------------------------------------------------------------------




--------------------------------------- Iteration      1(   5)  ---------------------------------------


     EDDAV:  cpu time     30.8913: real time     31.1369
       DOS:  cpu time      0.0024: real time      0.0024
    CHARGE:  cpu time      0.7460: real time      0.7515
    MIXING:  cpu time      0.0012: real time      0.0012
    --------------------------------------------
      LOOP:  cpu time     31.6410: real time     31.8921

 eigenvalue-minimisations  : 45420
 total energy-change (2. order) :-0.3196733E+00  (-0.3188727E+00)
 number of electron     159.9999964 magnetization       0.0000000
 augmentation part       53.7871914 magnetization       0.0000000

 Broyden mixing:
  rms(total) = 0.24936E+01    rms(broyden)= 0.24934E+01
  rms(prec ) = 0.38825E+01
  weight for this iteration     100.00

 Free energy of the ion-electron system (eV)
  ---------------------------------------------------
  alpha Z        PSCENC =       940.56142696
  Ewald energy   TEWEN  =    -12356.21963583
  -Hartree energ DENC   =     -8308.76447741
  -exchange      EXHF   =         0.00000000
  -V(xc)+E(xc)   XCENC  =       569.09410213
  PAW double counting   =     15529.06717713   -16124.93842950
  entropy T*S    EENTRO =        -0.02659002
  eigenvalues    EBANDS =     -2055.98593893
  atomic energy  EATOM  =     21710.84102437
  Solvation  Ediel_sol  =         0.00000000
  ---------------------------------------------------
  free energy    TOTEN  =       -96.37134111 eV

  energy without entropy =      -96.34475109  energy(sigma->0) =      -96.35804610


--------------------------------------------------------------------------------------------------------




--------------------------------------- Iteration      1(   6)  ---------------------------------------


    POTLOK:  cpu time      0.0433: real time      0.0437
    SETDIJ:  cpu time      0.2761: real time      0.2772
    EDDIAG:  cpu time      3.5394: real time      3.5613
  RMM-DIIS:  cpu time     12.0130: real time     12.0904
    ORTHCH:  cpu time      0.5711: real time      0.5741
       DOS:  cpu time      0.0023: real time      0.0023
    CHARGE:  cpu time      0.7210: real time      0.7259
    MIXING:  cpu time      0.0012: real time      0.0012
    --------------------------------------------
      LOOP:  cpu time     17.1673: real time     17.2761

 eigenvalue-minimisations  : 32031
 total energy-change (2. order) :-0.9452809E+01  (-0.1261280E+02)
 number of electron     159.9999962 magnetization       0.0000000
 augmentation part       67.6765719 magnetization       0.0000000

 Broyden mixing:
  rms(total) = 0.38823E+01    rms(broyden)= 0.38822E+01
  rms(prec ) = 0.65382E+01
  weight for this iteration     100.00

 eigenvalues of (default mixing * dielectric matrix)
  average eigenvalue GAMMA=   0.3555
  0.3555

 Free energy of the ion-electron system (eV)
  ---------------------------------------------------
  alpha Z        PSCENC =       940.56142696
  Ewald energy   TEWEN  =    -12356.21963583
  -Hartree energ DENC   =     -7912.81605150
  -exchange      EXHF   =         0.00000000
  -V(xc)+E(xc)   XCENC  =       557.54809640
  PAW double counting   =     15147.45318193   -15714.86424284
  entropy T*S    EENTRO =        -0.02228426
  eigenvalues    EBANDS =     -2478.30566584
  atomic energy  EATOM  =     21710.84102437
  Solvation  Ediel_sol  =         0.00000000
  ---------------------------------------------------
  free energy    TOTEN  =      -105.82415061 eV

  energy without entropy =     -105.80186636  energy(sigma->0) =     -105.81300848


--------------------------------------------------------------------------------------------------------




--------------------------------------- Iteration      1(   7)  ---------------------------------------


    POTLOK:  cpu time      0.0397: real time      0.0400
    SETDIJ:  cpu time      0.2679: real time      0.2690
    EDDIAG:  cpu time      3.3675: real time      3.3900
  RMM-DIIS:  cpu time     11.1509: real time     11.2259
    ORTHCH:  cpu time      0.5567: real time      0.5596
       DOS:  cpu time      0.0021: real time      0.0021
    CHARGE:  cpu time      0.7007: real time      0.7051
    MIXING:  cpu time      0.0014: real time      0.0014
    --------------------------------------------
      LOOP:  cpu time     16.0870: real time     16.1932

 eigenvalue-minimisations  : 32012
 total energy-change (2. order) : 0.1594634E+02  (-0.3110870E+01)
 number of electron     159.9999964 magnetization       0.0000000
 augmentation part       58.2642119 magnetization       0.0000000

 Broyden mixing:
  rms(total) = 0.77644E+00    rms(broyden)= 0.77609E+00
  rms(prec ) = 0.94518E+00
  weight for this iteration     100.00

 eigenvalues of (default mixing * dielectric matrix)
  average eigenvalue GAMMA=   0.4691
  0.6495  0.2887

 Free energy of the ion-electron system (eV)
  ---------------------------------------------------
  alpha Z        PSCENC =       940.56142696
  Ewald energy   TEWEN  =    -12356.21963583
  -Hartree energ DENC   =     -8149.65769597
  -exchange      EXHF   =         0.00000000
  -V(xc)+E(xc)   XCENC  =       562.48828018
  PAW double counting   =     15585.21696611   -16181.69730372
  entropy T*S    EENTRO =        -0.02323066
  eigenvalues    EBANDS =     -2201.38764369
  atomic energy  EATOM  =     21710.84102437
  Solvation  Ediel_sol  =         0.00000000
  ---------------------------------------------------
  free energy    TOTEN  =       -89.87781226 eV

  energy without entropy =      -89.85458160  energy(sigma->0) =      -89.86619693


--------------------------------------------------------------------------------------------------------




--------------------------------------- Iteration      1(   8)  ---------------------------------------


    POTLOK:  cpu time      0.0619: real time      0.0990
    SETDIJ:  cpu time      0.2681: real time      0.2693
    EDDIAG:  cpu time      3.3543: real time      3.3752
  RMM-DIIS:  cpu time     14.6107: real time     14.7077
    ORTHCH:  cpu time      0.5729: real time      0.5758
       DOS:  cpu time      0.0022: real time      0.0023
    CHARGE:  cpu time      0.6873: real time      0.6921
    MIXING:  cpu time      0.0014: real time      0.0014
    --------------------------------------------
      LOOP:  cpu time     19.5587: real time     19.7228

 eigenvalue-minimisations  : 41199
 total energy-change (2. order) :-0.3201564E+00  (-0.2886401E+00)
 number of electron     159.9999964 magnetization      -0.0000000
 augmentation part       58.6556347 magnetization      -0.0000000

 Broyden mixing:
  rms(total) = 0.32192E+00    rms(broyden)= 0.32171E+00
  rms(prec ) = 0.42901E+00
  weight for this iteration     100.00

 eigenvalues of (default mixing * dielectric matrix)
  average eigenvalue GAMMA=   0.7529
  0.3419  0.9584  0.9584

 Free energy of the ion-electron system (eV)
  ---------------------------------------------------
  alpha Z        PSCENC =       940.56142696
  Ewald energy   TEWEN  =    -12356.21963583
  -Hartree energ DENC   =     -8137.69595674
  -exchange      EXHF   =         0.00000000
  -V(xc)+E(xc)   XCENC  =       562.69114594
  PAW double counting   =     15686.32226668   -16290.38217499
  entropy T*S    EENTRO =        -0.02171456
  eigenvalues    EBANDS =     -2206.29435043
  atomic energy  EATOM  =     21710.84102437
  Solvation  Ediel_sol  =         0.00000000
  ---------------------------------------------------
  free energy    TOTEN  =       -90.19796861 eV

  energy without entropy =      -90.17625405  energy(sigma->0) =      -90.18711133


--------------------------------------------------------------------------------------------------------




--------------------------------------- Iteration      1(   9)  ---------------------------------------


    POTLOK:  cpu time      0.0427: real time      0.0431
    SETDIJ:  cpu time      0.2675: real time      0.2686
    EDDIAG:  cpu time      3.4677: real time      3.4893
  RMM-DIIS:  cpu time     16.9696: real time     17.0854
    ORTHCH:  cpu time      0.5751: real time      0.5781
       DOS:  cpu time      0.0022: real time      0.0022
    CHARGE:  cpu time      0.6747: real time      0.6783
    MIXING:  cpu time      0.0013: real time      0.0013
    --------------------------------------------
      LOOP:  cpu time     22.0008: real time     22.1463

 eigenvalue-minimisations  : 47000
 total energy-change (2. order) :-0.5311115E-01  (-0.6555068E-01)
 number of electron     159.9999964 magnetization       0.0000000
 augmentation part       58.8286816 magnetization       0.0000000

 Broyden mixing:
  rms(total) = 0.18293E+00    rms(broyden)= 0.18277E+00
  rms(prec ) = 0.23119E+00
  weight for this iteration     100.00

 eigenvalues of (default mixing * dielectric matrix)
  average eigenvalue GAMMA=   0.9496
  0.3391  1.6167  1.0705  0.7720

 Free energy of the ion-electron system (eV)
  ---------------------------------------------------
  alpha Z        PSCENC =       940.56142696
  Ewald energy   TEWEN  =    -12356.21963583
  -Hartree energ DENC   =     -8127.65712641
  -exchange      EXHF   =         0.00000000
  -V(xc)+E(xc)   XCENC  =       562.80249051
  PAW double counting   =     15790.86469388   -16400.71008690
  entropy T*S    EENTRO =        -0.02032519
  eigenvalues    EBANDS =     -2210.71354114
  atomic energy  EATOM  =     21710.84102437
  Solvation  Ediel_sol  =         0.00000000
  ---------------------------------------------------
  free energy    TOTEN  =       -90.25107976 eV

  energy without entropy =      -90.23075457  energy(sigma->0) =      -90.24091716


--------------------------------------------------------------------------------------------------------




--------------------------------------- Iteration      1(  10)  ---------------------------------------


    POTLOK:  cpu time      0.0426: real time      0.0431
    SETDIJ:  cpu time      0.2699: real time      0.2710
    EDDIAG:  cpu time      3.5170: real time      3.5378
  RMM-DIIS:  cpu time     16.5870: real time     16.6953
    ORTHCH:  cpu time      0.5621: real time      0.5649
       DOS:  cpu time      0.0022: real time      0.0022
    CHARGE:  cpu time      0.6813: real time      0.6865
    MIXING:  cpu time      0.0014: real time      0.0015
    --------------------------------------------
      LOOP:  cpu time     21.6635: real time     21.8021

 eigenvalue-minimisations  : 45308
 total energy-change (2. order) :-0.9643024E-03  (-0.1380818E-01)
 number of electron     159.9999964 magnetization       0.0000000
 augmentation part       58.9867131 magnetization       0.0000000

 Broyden mixing:
  rms(total) = 0.77742E-01    rms(broyden)= 0.77637E-01
  rms(prec ) = 0.87458E-01
  weight for this iteration     100.00

 eigenvalues of (default mixing * dielectric matrix)
  average eigenvalue GAMMA=   1.0852
  2.4315  0.3387  0.9909  0.9909  0.6739

 Free energy of the ion-electron system (eV)
  ---------------------------------------------------
  alpha Z        PSCENC =       940.56142696
  Ewald energy   TEWEN  =    -12356.21963583
  -Hartree energ DENC   =     -8121.72753121
  -exchange      EXHF   =         0.00000000
  -V(xc)+E(xc)   XCENC  =       562.89718664
  PAW double counting   =     15877.52179568   -16491.22546311
  entropy T*S    EENTRO =        -0.01976752
  eigenvalues    EBANDS =     -2212.88108003
  atomic energy  EATOM  =     21710.84102437
  Solvation  Ediel_sol  =         0.00000000
  ---------------------------------------------------
  free energy    TOTEN  =       -90.25204406 eV

  energy without entropy =      -90.23227655  energy(sigma->0) =      -90.24216030


--------------------------------------------------------------------------------------------------------




--------------------------------------- Iteration      1(  11)  ---------------------------------------


    POTLOK:  cpu time      0.0440: real time      0.0981
    SETDIJ:  cpu time      0.2670: real time      0.2679
    EDDIAG:  cpu time      3.3428: real time      3.3646
  RMM-DIIS:  cpu time     15.7010: real time     15.8059
    ORTHCH:  cpu time      0.5671: real time      0.5700
       DOS:  cpu time      0.0022: real time      0.0022
    CHARGE:  cpu time      0.7183: real time      0.7222
    MIXING:  cpu time      0.0014: real time      0.0014
    --------------------------------------------
      LOOP:  cpu time     20.6438: real time     20.8324

 eigenvalue-minimisations  : 44287
 total energy-change (2. order) :-0.7343102E-02  (-0.2773493E-02)
 number of electron     159.9999964 magnetization       0.0000000
 augmentation part       58.9904130 magnetization       0.0000000

 Broyden mixing:
  rms(total) = 0.29146E-01    rms(broyden)= 0.29117E-01
  rms(prec ) = 0.34674E-01
  weight for this iteration     100.00

 eigenvalues of (default mixing * dielectric matrix)
  average eigenvalue GAMMA=   1.1278
  2.4610  1.4411  0.3387  1.0630  0.8277  0.6355

 Free energy of the ion-electron system (eV)
  ---------------------------------------------------
  alpha Z        PSCENC =       940.56142696
  Ewald energy   TEWEN  =    -12356.21963583
  -Hartree energ DENC   =     -8120.49115048
  -exchange      EXHF   =         0.00000000
  -V(xc)+E(xc)   XCENC  =       562.94153055
  PAW double counting   =     15923.53667019   -16538.82519638
  entropy T*S    EENTRO =        -0.01998962
  eigenvalues    EBANDS =     -2212.58406692
  atomic energy  EATOM  =     21710.84102437
  Solvation  Ediel_sol  =         0.00000000
  ---------------------------------------------------
  free energy    TOTEN  =       -90.25938716 eV

  energy without entropy =      -90.23939754  energy(sigma->0) =      -90.24939235


--------------------------------------------------------------------------------------------------------




--------------------------------------- Iteration      1(  12)  ---------------------------------------


    POTLOK:  cpu time      0.0417: real time      0.0421
    SETDIJ:  cpu time      0.2696: real time      0.2706
    EDDIAG:  cpu time      3.4850: real time      3.5059
  RMM-DIIS:  cpu time     15.0733: real time     15.1704
    ORTHCH:  cpu time      0.5548: real time      0.5577
       DOS:  cpu time      0.0021: real time      0.0022
    CHARGE:  cpu time      0.6996: real time      0.7036
    MIXING:  cpu time      0.0014: real time      0.0015
    --------------------------------------------
      LOOP:  cpu time     20.1275: real time     20.2539

 eigenvalue-minimisations  : 40501
 total energy-change (2. order) :-0.1783447E-02  (-0.6415912E-03)
 number of electron     159.9999964 magnetization       0.0000000
 augmentation part       58.9811021 magnetization       0.0000000

 Broyden mixing:
  rms(total) = 0.11807E-01    rms(broyden)= 0.11799E-01
  rms(prec ) = 0.15360E-01
  weight for this iteration     100.00

 eigenvalues of (default mixing * dielectric matrix)
  average eigenvalue GAMMA=   1.1228
  2.4678  1.6080  0.3388  1.0325  1.0325  0.7508  0.6293

 Free energy of the ion-electron system (eV)
  ---------------------------------------------------
  alpha Z        PSCENC =       940.56142696
  Ewald energy   TEWEN  =    -12356.21963583
  -Hartree energ DENC   =     -8121.11407811
  -exchange      EXHF   =         0.00000000
  -V(xc)+E(xc)   XCENC  =       562.93597997
  PAW double counting   =     15925.83363325   -16540.95268074
  entropy T*S    EENTRO =        -0.02022977
  eigenvalues    EBANDS =     -2212.12661071
  atomic energy  EATOM  =     21710.84102437
  Solvation  Ediel_sol  =         0.00000000
  ---------------------------------------------------
  free energy    TOTEN  =       -90.26117061 eV

  energy without entropy =      -90.24094084  energy(sigma->0) =      -90.25105572


--------------------------------------------------------------------------------------------------------




--------------------------------------- Iteration      1(  13)  ---------------------------------------


    POTLOK:  cpu time      0.0425: real time      0.0430
    SETDIJ:  cpu time      0.2694: real time      0.2705
    EDDIAG:  cpu time      3.4871: real time      3.5094
  RMM-DIIS:  cpu time      9.7402: real time      9.8058
    ORTHCH:  cpu time      0.5471: real time      0.5498
       DOS:  cpu time      0.0021: real time      0.0021
    --------------------------------------------
      LOOP:  cpu time     14.0885: real time     14.1806

 eigenvalue-minimisations  : 25195
 total energy-change (2. order) : 0.9640856E-04  (-0.1228727E-03)
 number of electron     159.9999964 magnetization       0.0000000
 augmentation part       58.9811021 magnetization       0.0000000

 Free energy of the ion-electron system (eV)
  ---------------------------------------------------
  alpha Z        PSCENC =       940.56142696
  Ewald energy   TEWEN  =    -12356.21963583
  -Hartree energ DENC   =     -8121.75296446
  -exchange      EXHF   =         0.00000000
  -V(xc)+E(xc)   XCENC  =       562.94614388
  PAW double counting   =     15923.61444001   -16538.42811370
  entropy T*S    EENTRO =        -0.02025203
  eigenvalues    EBANDS =     -2211.80314339
  atomic energy  EATOM  =     21710.84102437
  Solvation  Ediel_sol  =         0.00000000
  ---------------------------------------------------
  free energy    TOTEN  =       -90.26107420 eV

  energy without entropy =      -90.24082217  energy(sigma->0) =      -90.25094818


--------------------------------------------------------------------------------------------------------




 average (electrostatic) potential at core
  the test charge radii are     0.9500  1.0808
  (the norm of the test charge is              1.0000)
       1 -45.8149       2 -45.8149       3 -45.8149       4 -45.8149       5 -45.8149
       6 -45.8149       7 -45.8149       8 -45.8149       9 -53.8879      10 -53.8879
      11 -53.8879      12 -53.8879      13 -53.8879      14 -53.8879      15 -53.8879
      16 -53.8879
 
 
 
 E-fermi :   5.2327     XC(G=0): -11.2242     alpha+bet :-10.7768

 Fermi energy:         5.2326510622

 spin component 1

 k-point     1 :       0.0000    0.0000    0.0000
  band No.  band energies     occupation 
      1     -49.3025      1.00000
      2     -49.2745      1.00000
      3     -49.2583      1.00000
      4     -49.2583      1.00000
      5     -49.2500      1.00000
      6     -49.1395      1.00000
      7     -49.1304      1.00000
      8     -49.1304      1.00000
      9     -49.1148      1.00000
     10     -49.0698      1.00000
     11     -49.0698      1.00000
     12     -48.8321      1.00000
     13     -46.8145      1.00000
     14     -46.7935      1.00000
     15     -46.7900      1.00000
     16     -46.7900      1.00000
     17     -46.7892      1.00000
     18     -46.5607      1.00000
     19     -46.5607      1.00000
     20     -46.3995      1.00000
     21     -46.3995      1.00000
     22     -46.3988      1.00000
     23     -46.3951      1.00000
     24     -46.3008      1.00000
     25     -10.1548      1.00000
     26      -8.4745      1.00000
     27      -8.4745      1.00000
     28      -8.4613      1.00000
     29      -8.4613      1.00000
     30      -8.2588      1.00000
     31      -7.6306      1.00000
     32      -7.2692      1.00000
     33      -1.4954      1.00000
     34      -1.4323      1.00000
     35      -0.4897      1.00000
     36      -0.4897      1.00000
     37      -0.4086      1.00000
     38      -0.4086      1.00000
     39      -0.3350      1.00000
     40       0.3561      1.00000
     41       0.8559      1.00000
     42       0.8646      1.00000
     43       1.0918      1.00000
     44       1.2315      1.00000
     45       1.2315      1.00000
     46       1.2346      1.00000
     47       1.2346      1.00000
     48       1.2896      1.00000
     49       1.4098      1.00000
     50       1.7234      1.00000
     51       1.7234      1.00000
     52       2.1028      1.00000
     53       2.1028      1.00000
     54       2.2736      1.00000
     55       2.5381      1.00000
     56       2.6693      1.00000
     57       2.8196      1.00000
     58       2.8727      1.00000
     59       2.9297      1.00000
     60       2.9297      1.00000
     61       2.9308      1.00000
     62       2.9308      1.00000
     63       2.9438      1.00000
     64       3.2736      1.00000
     65       3.4442      1.00000
     66       3.5371      1.00000
     67       3.5371      1.00000
     68       3.6888      1.00000
     69       3.8937      1.00000
     70       3.9333      1.00000
     71       3.9471      1.00000
     72       3.9471      1.00000
     73       4.4680      1.00000
     74       4.4680      1.00000
     75       4.5274      1.00000
     76       4.5274      1.00000
     77       4.5536      1.00000
     78       4.7805      1.00000
     79       4.9484      1.00000
     80       4.9716      1.00000
     81       5.6428      0.00000
     82       5.6429      0.00000
     83       5.6712      0.00000
     84       5.6713      0.00000
     85       5.6999      0.00000
     86       5.7482      0.00000
     87       6.0943      0.00000
     88       6.0945      0.00000
     89       6.1069      0.00000
     90       6.1070      0.00000
     91       6.1190      0.00000
     92       6.5948      0.00000
     93       6.7026      0.00000
     94       6.7377      0.00000
     95       6.8033      0.00000
     96       6.8526      0.00000
     97       7.4663      0.00000
     98       7.5041      0.00000
     99       8.2411      0.00000
    100       8.5258      0.00000

 k-point     2 :       0.1429    0.0000    0.0000
  band No.  band energies     occupation 
      1     -49.2967      1.00000
      2     -49.2741      1.00000
      3     -49.2614      1.00000
      4     -49.2556      1.00000
      5     -49.2500      1.00000
      6     -49.1394      1.00000
      7     -49.1332      1.00000
      8     -49.1274      1.00000
      9     -49.1220      1.00000
     10     -49.1152      1.00000
     11     -49.0174      1.00000
     12     -48.8381      1.00000
     13     -46.8082      1.00000
     14     -46.7934      1.00000
     15     -46.7905      1.00000
     16     -46.7896      1.00000
     17     -46.7892      1.00000
     18     -46.6177      1.00000
     19     -46.5034      1.00000
     20     -46.3998      1.00000
     21     -46.3989      1.00000
     22     -46.3989      1.00000
     23     -46.3953      1.00000
     24     -46.3074      1.00000
     25     -10.1131      1.00000
     26      -8.8381      1.00000
     27      -8.5125      1.00000
     28      -8.3774      1.00000
     29      -8.2799      1.00000
     30      -8.1170      1.00000
     31      -7.6685      1.00000
     32      -7.2833      1.00000
     33      -1.4041      1.00000
     34      -1.3809      1.00000
     35      -0.5313      1.00000
     36      -0.4609      1.00000
     37      -0.4347      1.00000
     38      -0.3663      1.00000
     39      -0.3458      1.00000
     40       0.3496      1.00000
     41       0.8246      1.00000
     42       0.9565      1.00000
     43       1.0525      1.00000
     44       1.0773      1.00000
     45       1.1131      1.00000
     46       1.2468      1.00000
[...]
         0         1         2         3         4         5         6         7         8         9
 total charge-density along one line
 
 soft charge-density along one line, spin component           2
         0         1         2         3         4         5         6         7         8         9
 total charge-density along one line
 
 pseudopotential strength for first ion, spin component:           1
-53.936   0.020  -0.000  27.409  -0.017   0.000  -0.000  -0.000
  0.020 -53.990   0.000  -0.017  27.449  -0.000   0.000   0.000
 -0.000   0.000 -53.878   0.000  -0.000  27.360   0.000   0.000
 27.409  -0.017   0.000  -9.477   0.012  -0.000   0.000   0.000
 -0.017  27.449  -0.000   0.012  -9.504   0.000  -0.000  -0.000
  0.000  -0.000  27.360  -0.000   0.000  -9.445  -0.000  -0.000
 -0.000   0.000   0.000   0.000  -0.000  -0.000  -7.887   0.000
 -0.000   0.000   0.000   0.000  -0.000  -0.000   0.000  -7.688
  0.000  -0.000   0.000  -0.000   0.000  -0.000   0.000  -0.036
  0.000  -0.000  -0.000  -0.000   0.000   0.000  -0.048  -0.000
  0.000  -0.000  -0.000  -0.000   0.000   0.000  -0.000  -0.093
  0.000  -0.000  -0.000  -0.000   0.000   0.000  -0.302  -0.000
  0.000  -0.000  -0.000  -0.000   0.000   0.000  -0.000  -0.350
 -0.000   0.000  -0.000   0.000  -0.000   0.000  -0.000   0.009
 -0.000   0.000   0.000   0.000  -0.000  -0.000   0.011   0.000
 -0.000   0.000   0.000   0.000  -0.000  -0.000   0.000   0.022
  0.000   0.000   0.000  -0.000  -0.000  -0.000   0.000  -0.005
 -0.000  -0.000  -0.000   0.000   0.000   0.000  -0.000   0.001
 pseudopotential strength for first ion, spin component:           2
-51.989   0.113  -0.000  25.919  -0.083   0.000  -0.000  -0.000
  0.113 -52.007   0.000  -0.083  25.931  -0.000   0.000   0.000
 -0.000   0.000 -51.961   0.000  -0.000  25.888   0.000   0.000
 25.919  -0.083   0.000  -8.425   0.060  -0.000   0.000   0.000
 -0.083  25.931  -0.000   0.060  -8.434   0.000  -0.000  -0.000
  0.000  -0.000  25.888  -0.000   0.000  -8.406  -0.000  -0.000
 -0.000   0.000   0.000   0.000  -0.000  -0.000  -5.928   0.000
 -0.000   0.000   0.000   0.000  -0.000  -0.000   0.000  -6.270
  0.000  -0.000   0.000  -0.000   0.000  -0.000   0.000   0.106
  0.000  -0.000  -0.000  -0.000   0.000   0.000   0.122  -0.000
  0.000  -0.000  -0.000  -0.000   0.000   0.000  -0.000   0.015
  0.000  -0.000  -0.000  -0.000   0.000   0.000  -0.761  -0.000
  0.000  -0.000  -0.000  -0.000   0.000   0.000  -0.000  -0.681
 -0.000   0.000  -0.000   0.000  -0.000   0.000  -0.000  -0.023
 -0.000   0.000   0.000   0.000  -0.000  -0.000  -0.027   0.000
 -0.000   0.000   0.000   0.000  -0.000  -0.000   0.000  -0.005
  0.000   0.000   0.000   0.000  -0.000  -0.000   0.000  -0.015
 -0.000  -0.000  -0.000   0.000   0.000   0.000  -0.000   0.004
 total augmentation occupancy for first ion, spin component:           1
  2.013  -0.018  -0.000   0.062  -0.044   0.000   0.000   0.000  -0.000   0.000  -0.000  -0.000   0.000   0.000   0.000   0.000
 -0.018   2.017   0.000  -0.044   0.072   0.000  -0.000   0.000  -0.000   0.000  -0.000  -0.000   0.000   0.000  -0.000  -0.000
  0.000  -0.000   2.014   0.000  -0.000   0.062  -0.000   0.000   0.000   0.000  -0.000  -0.000   0.000   0.000   0.000   0.000
  0.062  -0.044   0.000   0.205  -0.104   0.000   0.000  -0.000   0.000   0.000   0.000  -0.000   0.000   0.000   0.000   0.000
 -0.044   0.072   0.000  -0.104   0.229  -0.000  -0.000  -0.000  -0.000  -0.000   0.000  -0.000   0.000  -0.000   0.000   0.000
  0.000  -0.000   0.062   0.000  -0.000   0.194   0.000   0.000   0.000   0.000  -0.000  -0.000   0.000  -0.000   0.000   0.000
  0.000  -0.000  -0.000   0.000  -0.000  -0.000   1.286  -0.000   0.000  -0.108  -0.000  -0.029   0.000  -0.000  -0.064  -0.000
  0.000   0.000   0.000   0.000   0.000   0.000   0.000   1.484  -0.008   0.000  -0.084   0.000   0.127  -0.157   0.000   0.094
  0.000   0.000   0.000   0.000  -0.000   0.000   0.000  -0.008   1.310  -0.000  -0.129  -0.000  -0.158   0.125   0.000  -0.081
  0.000   0.000   0.000   0.000  -0.000   0.000  -0.108  -0.000  -0.000   1.302  -0.000  -0.065  -0.000   0.000   0.004   0.000
  0.000  -0.000  -0.000   0.000   0.000  -0.000  -0.000  -0.084  -0.129   0.000   1.501  -0.000   0.097  -0.079  -0.000   0.213
 -0.000  -0.000   0.000  -0.000  -0.000   0.000  -0.029   0.000   0.000  -0.065   0.000   0.185   0.000  -0.000  -0.024   0.000
 -0.000  -0.000   0.000  -0.000   0.000   0.000   0.000   0.127  -0.158   0.000   0.097   0.000   0.263  -0.082   0.000   0.094
  0.000   0.000   0.000  -0.000   0.000  -0.000  -0.000  -0.157   0.125  -0.000  -0.079   0.000  -0.082   0.186  -0.000  -0.024
  0.000  -0.000  -0.000   0.000   0.000   0.000  -0.064   0.000  -0.000   0.004   0.000  -0.024   0.000   0.000   0.175   0.000
  0.000   0.000   0.000  -0.000  -0.000   0.000   0.000   0.094  -0.081   0.000   0.213   0.000   0.094  -0.024   0.000   0.154
  0.000  -0.000   0.000   0.000   0.000   0.000   0.000   0.000  -0.050   0.000   0.099  -0.000  -0.316   0.023  -0.000   0.004
  0.000   0.000   0.000   0.000  -0.000   0.000   0.000   0.000   0.019   0.000  -0.008   0.000   0.024  -0.006  -0.000   0.004
 total augmentation occupancy for first ion, spin component:           2
 -0.005  -0.000   0.000  -0.002  -0.001   0.000  -0.000  -0.000   0.000  -0.000  -0.000   0.000   0.000  -0.000  -0.000  -0.000
 -0.000  -0.007   0.000  -0.001  -0.006   0.000   0.000   0.000   0.000   0.000   0.000   0.000  -0.000  -0.000  -0.000   0.000
  0.000  -0.000  -0.006  -0.000   0.000  -0.003   0.000   0.000  -0.000   0.000   0.000  -0.000   0.000  -0.000   0.000  -0.000
 -0.002  -0.001  -0.000   0.014  -0.002  -0.000   0.000   0.000   0.000   0.000  -0.000  -0.000  -0.000   0.000   0.000   0.000
 -0.001  -0.006   0.000  -0.002   0.002   0.000   0.000   0.000   0.000   0.000   0.000   0.000  -0.000  -0.000   0.000   0.000
  0.000  -0.000  -0.003   0.000  -0.000   0.014   0.000  -0.000  -0.000   0.000  -0.000   0.000   0.000  -0.000   0.000   0.000
 -0.000   0.000  -0.000   0.000   0.000   0.000   0.657   0.000  -0.000   0.132  -0.000  -0.267   0.000   0.000  -0.000   0.000
  0.000   0.000   0.000   0.000   0.000  -0.000  -0.000   0.343   0.115   0.000   0.039  -0.000  -0.176  -0.014   0.000  -0.025
 -0.000  -0.000  -0.000   0.000   0.000  -0.000   0.000   0.115   0.500   0.000   0.159   0.000  -0.010  -0.194   0.000  -0.019
 -0.000   0.000   0.000   0.000   0.000   0.000   0.132   0.000  -0.000   0.615  -0.000   0.001   0.000   0.000  -0.258  -0.000
 -0.000  -0.000   0.000  -0.000   0.000  -0.000   0.000   0.039   0.159   0.000   0.233  -0.000  -0.012  -0.013   0.000  -0.138
  0.000   0.000   0.000  -0.000   0.000  -0.000  -0.267   0.000   0.000   0.001  -0.000   0.051   0.000   0.000   0.008  -0.000
 -0.000   0.000   0.000  -0.000   0.000   0.000  -0.000  -0.176  -0.010  -0.000  -0.012  -0.000   0.001   0.026   0.000  -0.003
 -0.000  -0.000  -0.000   0.000  -0.000  -0.000   0.000  -0.014  -0.194  -0.000  -0.013  -0.000   0.026  -0.003  -0.000   0.004
 -0.000  -0.000   0.000   0.000   0.000   0.000  -0.000   0.000   0.000  -0.258   0.000   0.008   0.000   0.000   0.031   0.000
  0.000   0.000  -0.000   0.000   0.000   0.000   0.000  -0.025  -0.019  -0.000  -0.138   0.000  -0.003   0.004   0.000  -0.024
  0.000   0.000   0.000   0.000   0.000   0.000   0.000   0.103   0.032  -0.000  -0.049   0.000  -0.025   0.000  -0.000  -0.020
  0.000   0.000   0.000  -0.000   0.000   0.000   0.000   0.020   0.015  -0.000  -0.012  -0.000  -0.002  -0.003  -0.000  -0.000


------------------------ aborting loop because EDIFF is reached ----------------------------------------





 total charge

# of ion       s       p       d       tot
------------------------------------------
    1        0.355   6.318   6.141  12.815
    2        0.355   6.318   6.141  12.815
    3        0.355   6.318   6.141  12.815
    4        0.355   6.318   6.141  12.815
    5        0.355   6.318   6.141  12.815
    6        0.355   6.318   6.141  12.815
    7        0.355   6.318   6.141  12.815
    8        0.355   6.318   6.141  12.815
    9        1.498   2.256   0.075   3.830
   10        1.498   2.256   0.075   3.830
   11        1.498   2.256   0.075   3.830
   12        1.498   2.256   0.075   3.830
   13        1.498   2.256   0.075   3.830
   14        1.498   2.256   0.075   3.830
   15        1.498   2.256   0.075   3.830
   16        1.498   2.256   0.075   3.830
--------------------------------------------------
tot         14.829  68.594  49.731 133.154



 magnetization (x)

# of ion       s       p       d       tot
------------------------------------------
    1        0.023   0.015   2.291   2.329
    2       -0.023  -0.015  -2.291  -2.329
    3       -0.023  -0.015  -2.291  -2.329
    4        0.023   0.015   2.291   2.329
    5        0.023   0.015   2.291   2.329
    6       -0.023  -0.015  -2.291  -2.329
    7       -0.023  -0.015  -2.291  -2.329
    8        0.023   0.015   2.291   2.329
    9        0.000   0.000   0.000   0.000
   10        0.000   0.000   0.000   0.000
   11        0.000   0.000   0.000   0.000
   12        0.000   0.000   0.000   0.000
   13        0.000   0.000   0.000   0.000
   14        0.000   0.000   0.000   0.000
   15        0.000   0.000   0.000   0.000
   16        0.000   0.000   0.000   0.000
--------------------------------------------------
tot          0.000   0.000   0.000   0.000
 
    CHARGE:  cpu time      0.7177: real time      0.7216
    FORLOC:  cpu time      0.0024: real time      0.0024
    FORNL :  cpu time      5.3686: real time      5.4012
    STRESS:  cpu time     16.1946: real time     16.2908
    FORCOR:  cpu time      0.0376: real time      0.0378
    FORHAR:  cpu time      0.0053: real time      0.0053
    MIXING:  cpu time      0.0015: real time      0.0015
    OFIELD:  cpu time      0.0000: real time      0.0000
    FORVDW:  cpu time      1.0986: real time      1.1026

  FORCE on cell =-STRESS in cart. coord.  units (eV):
  Direction    XX          YY          ZZ          XY          YZ          ZX
  --------------------------------------------------------------------------------------
  Alpha Z   940.56143   940.56143   940.56143
  Ewald   -1676.55407 -2576.55565 -8100.99680    -0.00000    -0.00000     0.00000
  Hartree  4913.61453  4169.40825  -958.77904    -0.00000    -0.00000    -0.00000
  E(xc)    -899.15274  -901.79087  -900.85251     0.00000    -0.00000     0.00000
  Local   -5222.35728 -3598.42181  7088.75081    -0.00000     0.00000    -0.00000
  n-local  -279.46308  -252.18361  -245.10936    -0.67036    -0.54574    -0.76250
  augment   525.80617   513.60127   510.97038     0.00000    -0.00000     0.00000
  Kinetic  1713.49277  1719.67189  1682.02911     4.06109     0.04593     0.81631
  Fock        0.00000     0.00000     0.00000     0.00000     0.00000     0.00000
  vdW        -5.87235    -4.62555    -6.80122    -0.00000    -0.00000     0.00000
  -------------------------------------------------------------------------------------
  Total      10.07538     9.66536     9.77281    -0.00000     0.00000     0.00000
  in kB      59.78720    57.35417    57.99175    -0.00000     0.00000     0.00000
  external pressure =       58.38 kB  Pullay stress =        0.00 kB


 VOLUME and BASIS-vectors are now :
 -----------------------------------------------------------------------------
  energy-cutoff  :      550.00
  volume of cell :      270.00
      direct lattice vectors                 reciprocal lattice vectors
     4.672480970 -5.471796129 -0.000000000     0.107009532 -0.091377673  0.000000000
     4.672480970  5.471796129  0.000000000     0.107009532  0.091377673 -0.000000000
     0.000000000  0.000000000  5.280272300    -0.000000000 -0.000000000  0.189384172

  length of vectors
     7.195320097  7.195320097  5.280272300     0.140715738  0.140715738  0.189384172


 FORCES acting on ions
    electron-ion (+dipol)            ewald-force                    non-local-force                 convergence-correction
 -----------------------------------------------------------------------------------------------
   -.218E-12 0.348E-13 0.632E-13   0.568E-13 -.711E-14 -.497E-13   0.261E-22 0.404E-22 0.111E-21   -.485E-12 0.318E-12 -.109E-12
   0.918E-12 0.138E-11 0.844E-13   0.557E-13 -.711E-14 -.213E-13   0.101E-21 0.421E-22 -.261E-24   -.421E-12 0.382E-12 -.290E-12
   0.959E-12 0.554E-12 0.343E-10   0.573E-13 0.000E+00 -.142E-13   0.405E-22 -.594E-22 0.698E-22   0.251E-12 -.454E-12 0.733E-12
   0.707E-11 0.963E-11 0.155E-10   0.568E-13 -.355E-14 -.426E-13   0.187E-21 -.628E-22 0.328E-22   0.455E-12 -.206E-12 0.185E-12
   0.489E-11 0.417E-11 0.725E-11   0.534E-13 -.355E-14 0.284E-13   -.874E-22 0.100E-21 -.142E-22   -.904E-14 -.268E-13 -.216E-12
   -.363E-12 -.343E-11 0.779E-11   0.568E-13 0.107E-13 0.426E-13   -.692E-22 0.101E-21 0.441E-22   0.203E-13 -.271E-12 0.749E-13
   -.205E-10 -.255E-10 -.454E-10   0.568E-13 -.107E-13 0.426E-13   -.283E-22 -.340E-22 -.115E-22   -.336E-12 0.314E-12 0.386E-12
   0.146E-11 0.449E-11 -.438E-10   0.727E-13 0.000E+00 0.142E-13   0.410E-22 0.597E-22 0.980E-22   -.385E-12 0.273E-12 0.333E-12
   -.782E-07 0.287E-11 0.287E+03   -.646E-13 0.142E-13 -.287E+03   -.179E-17 0.435E-17 0.792E+00   0.318E-14 0.806E-13 -.313E-01
   -.782E-07 -.759E-12 0.287E+03   -.568E-13 0.140E-13 -.287E+03   0.741E-18 0.509E-17 0.792E+00   -.954E-13 -.217E-13 -.313E-01
   -.782E-07 0.541E-11 0.287E+03   -.568E-13 0.688E-14 -.287E+03   -.445E-17 -.790E-17 0.792E+00   0.790E-13 -.298E-13 -.313E-01
   -.782E-07 -.548E-12 0.287E+03   -.571E-13 0.711E-14 -.287E+03   0.448E-17 0.148E-18 0.792E+00   0.264E-13 -.650E-13 -.313E-01
   0.782E-07 -.483E-12 -.287E+03   -.587E-13 0.442E-16 0.287E+03   -.455E-17 -.949E-18 -.792E+00   -.349E-14 0.166E-13 0.313E-01
   0.782E-07 0.263E-12 -.287E+03   -.559E-13 0.265E-14 0.287E+03   -.334E-17 -.256E-17 -.792E+00   0.834E-14 -.586E-14 0.313E-01
   0.782E-07 -.443E-13 -.287E+03   -.581E-13 0.474E-14 0.287E+03   0.185E-17 0.280E-17 -.792E+00   -.170E-13 -.653E-14 0.313E-01
   0.782E-07 -.798E-12 -.287E+03   -.544E-13 -.703E-14 0.287E+03   0.285E-17 0.686E-17 -.792E+00   -.535E-14 0.157E-13 0.313E-01
 -----------------------------------------------------------------------------------------------
   -.113E-10 -.279E-11 -.264E-10   0.405E-14 0.213E-13 0.398E-12   -.421E-17 0.785E-17 0.222E-15   -.914E-12 0.314E-12 0.769E-12
 
 
 POSITION                                       TOTAL-FORCE (eV/Angst)
 -----------------------------------------------------------------------------------
      0.00000     -0.00000      0.00000        -0.000000     -0.000000     -0.000000
      2.33624      2.73590      0.00000        -0.000000     -0.000000      0.000000
      2.33624     -2.73590     -0.00000        -0.000000     -0.000000     -0.000000
      4.67248      0.00000      0.00000        -0.000000     -0.000000      0.000000
      2.33624      0.00000      0.00000        -0.000000     -0.000000      0.000000
      4.67248      2.73590      0.00000        -0.000000     -0.000000     -0.000000
      4.67248     -2.73590     -0.00000        -0.000000     -0.000000      0.000000
      7.00872     -0.00000      0.00000        -0.000000     -0.000000     -0.000000
      2.33624     -1.36795      3.46595        -0.000000     -0.000000     -0.081755
      4.67248      1.36795      3.46595         0.000000     -0.000000     -0.081755
      4.67248     -4.10385      3.46595         0.000000     -0.000000     -0.081755
      7.00872     -1.36795      3.46595        -0.000000     -0.000000     -0.081755
      2.33624      1.36795      1.81432         0.000000      0.000000      0.081755
      4.67248      4.10385      1.81432        -0.000000      0.000000      0.081755
      4.67248     -1.36795      1.81432        -0.000000      0.000000      0.081755
      7.00872      1.36795      1.81432        -0.000000      0.000000      0.081755
 -----------------------------------------------------------------------------------
    total drift:                               -0.000000     -0.000000     -0.000000


--------------------------------------------------------------------------------------------------------



  FREE ENERGIE OF THE ION-ELECTRON SYSTEM (eV)
  ---------------------------------------------------
  free  energy   TOTEN  =       -98.03243177 eV

  energy  without entropy=      -98.01187046  energy(sigma->0) =      -98.02215111
 
 d Force =-0.3211632E-02[-0.197E-02,-0.445E-02]  d Energy = 0.5015321E-02-0.823E-02
 d Force =-0.6922400E+01[-0.692E+01,-0.692E+01]  d Ewald  = 0.1414136E+01-0.834E+01


--------------------------------------------------------------------------------------------------------


    POTLOK:  cpu time      0.3220: real time      0.3233


--------------------------------------------------------------------------------------------------------




--------------------------------------------------------------------------------------------------------


  
 reached required accuracy - stopping structural energy minimisation
     LOOP+:  cpu time    132.1758: real time    133.0831
    4ORBIT:  cpu time      0.0000: real time      0.0000



 total charge

# of ion       s       p       d       tot
------------------------------------------
    1        0.355   6.318   6.141  12.815
    2        0.355   6.318   6.141  12.815
    3        0.355   6.318   6.141  12.815
    4        0.355   6.318   6.141  12.815
    5        0.355   6.318   6.141  12.815
    6        0.355   6.318   6.141  12.815
    7        0.355   6.318   6.141  12.815
    8        0.355   6.318   6.141  12.815
    9        1.498   2.256   0.075   3.830
   10        1.498   2.256   0.075   3.830
   11        1.498   2.256   0.075   3.830
   12        1.498   2.256   0.075   3.830
   13        1.498   2.256   0.075   3.830
   14        1.498   2.256   0.075   3.830
   15        1.498   2.256   0.075   3.830
   16        1.498   2.256   0.075   3.830
--------------------------------------------------
tot         14.829  68.594  49.731 133.154



 magnetization (x)

# of ion       s       p       d       tot
------------------------------------------
    1        0.023   0.015   2.291   2.329
    2       -0.023  -0.015  -2.291  -2.329
    3       -0.023  -0.015  -2.291  -2.329
    4        0.023   0.015   2.291   2.329
    5        0.023   0.015   2.291   2.329
    6       -0.023  -0.015  -2.291  -2.329
    7       -0.023  -0.015  -2.291  -2.329
    8        0.023   0.015   2.291   2.329
    9        0.000   0.000   0.000   0.000
   10        0.000   0.000   0.000   0.000
   11        0.000   0.000   0.000   0.000
   12        0.000   0.000   0.000   0.000
   13        0.000   0.000   0.000   0.000
   14        0.000   0.000   0.000   0.000
   15        0.000   0.000   0.000   0.000
   16        0.000   0.000   0.000   0.000
--------------------------------------------------
tot          0.000   0.000   0.000   0.000
 

 total amount of memory used by VASP MPI-rank0   164053. kBytes
=======================================================================

   base      :      30000. kBytes
   nonlr-proj:      11733. kBytes
   fftplans  :       2341. kBytes
   grid      :      14522. kBytes
   one-center:        497. kBytes
   wavefun   :     104960. kBytes
 
  
  
 General timing and accounting informations for this job:
 ========================================================
  
                  Total CPU time used (sec):      745.029
                            User time (sec):      742.169
                          System time (sec):        2.860
                         Elapsed time (sec):      753.187
  
                   Maximum memory used (kb):      436880.
                   Average memory used (kb):          N/A
  
                          Minor page faults:       233540
                          Major page faults:            0
                 Voluntary context switches:        37498
