unknown system                          
           1
     4.672481   -5.471796    0.000000
     4.672481    5.471796    0.000000
     0.000000    0.000000    5.280272
   Fe   Se
     8     8
unknown system                          
           1
     4.672481   -5.471796    0.000000
     4.672481    5.471796    0.000000
     0.000000    0.000000    5.280272
   Fe   Se
     8     8
Direct configuration=     1
   0.00000000  0.00000000  0.00000000
   0.00000000  0.50000000  0.00000000
   0.50000000  0.00000000  0.00000000
   0.50000000  0.50000000  0.00000000
   0.25000000  0.25000000  0.00000000
   0.25000000  0.75000000  0.00000000
   0.75000000  0.25000000  0.00000000
   0.75000000  0.75000000  0.00000000
   0.37500000  0.12500000  0.65639618
   0.37500000  0.62500000  0.65639618
   0.87500000  0.12500000  0.65639618
   0.87500000  0.62500000  0.65639618
   0.12500000  0.37500000  0.34360382
   0.12500000  0.87500000  0.34360382
   0.62500000  0.37500000  0.34360382
   0.62500000  0.87500000  0.34360382
