       N       E                     dE             d eps       ncg     rms          rms(c)
DAV:   1     0.173524330711E+04    0.17352E+04   -0.91913E+04 32256   0.236E+03
DAV:   2     0.113517029222E+02   -0.17239E+04   -0.16947E+04 32384   0.600E+02
DAV:   3    -0.102252316819E+03   -0.11360E+03   -0.11235E+03 41568   0.158E+02
DAV:   4    -0.104767617798E+03   -0.25153E+01   -0.25137E+01 32672   0.250E+01
DAV:   5    -0.104824217507E+03   -0.56600E-01   -0.56585E-01 41344   0.385E+00    0.366E+01
DAV:   6    -0.111686016153E+03   -0.68618E+01   -0.24318E+02 37664   0.879E+01    0.683E+01
DAV:   7    -0.109249988290E+03    0.24360E+01   -0.45478E+02 43584   0.781E+01    0.564E+01
DAV:   8    -0.948198893466E+02    0.14430E+02   -0.73883E+01 44288   0.541E+01    0.227E+01
DAV:   9    -0.103800410148E+03   -0.89805E+01   -0.17036E+02 44192   0.440E+01    0.503E+01
DAV:  10    -0.928732127200E+02    0.10927E+02   -0.52380E+01 45504   0.310E+01    0.149E+01
DAV:  11    -0.930281476853E+02   -0.15493E+00   -0.13553E+01 45120   0.144E+01    0.124E+01
DAV:  12    -0.930886362687E+02   -0.60489E-01   -0.67759E+00 44352   0.105E+01    0.958E+00
DAV:  13    -0.931001940542E+02   -0.11558E-01   -0.39765E+00 44800   0.925E+00    0.837E+00
DAV:  14    -0.931130449181E+02   -0.12851E-01   -0.26093E+00 41088   0.809E+00    0.441E+00
DAV:  15    -0.932497151724E+02   -0.13667E+00   -0.24600E+00 42976   0.848E+00    0.656E+00
DAV:  16    -0.931125997128E+02    0.13712E+00   -0.19024E+00 43040   0.687E+00    0.214E+00
DAV:  17    -0.931377491735E+02   -0.25149E-01   -0.12335E-01 39360   0.190E+00    0.159E+00
DAV:  18    -0.931426201110E+02   -0.48709E-02   -0.38942E-02 41216   0.930E-01    0.901E-01
DAV:  19    -0.931448324681E+02   -0.22124E-02   -0.66624E-03 40704   0.420E-01    0.625E-01
DAV:  20    -0.931453930528E+02   -0.56058E-03   -0.63860E-03 43552   0.350E-01    0.277E-01
DAV:  21    -0.931458251751E+02   -0.43212E-03   -0.13163E-03 41088   0.164E-01    0.154E-01
DAV:  22    -0.931459150125E+02   -0.89837E-04   -0.63758E-04 42752   0.130E-01    0.604E-02
DAV:  23    -0.931459158358E+02   -0.82337E-06   -0.22616E-04 40480   0.630E-02    0.721E-02
DAV:  24    -0.931459122022E+02    0.36336E-05   -0.36617E-05 39232   0.379E-02    0.426E-02
DAV:  25    -0.931459047341E+02    0.74681E-05   -0.36084E-05 42848   0.341E-02    0.150E-02
DAV:  26    -0.931459056433E+02   -0.90921E-06   -0.60862E-06 34240   0.130E-02
   1 F= -.93145906E+02 E0= -.93145906E+02  d E =0.000000E+00  mag=     2.8025
