 vasp.6.4.3 19Mar24 (build Mar 26 2024 14:05:37) complex                        
  
 executed on             LinuxIFC date 2024.12.16  12:58:51
 running  128 mpi-ranks, on    1 nodes
 distrk:  each k-point on   32 cores,    4 groups
 distr:  one band on NCORE=   1 cores,   32 groups


--------------------------------------------------------------------------------------------------------


 INCAR:
   ALGO = Normal
   EDIFF = 1e-06
   EDIFFG = -0.01
   ENCUT = 520
   GGA = Pe
   IBRION = -1
   ISIF = 4
   ISMEAR = -5
   ISPIN = 2
   KPAR = 4
   LCHARG = True
   LORBIT = 11
   LREAL = False
   LWAVE = False
   MAGMOM = 1*-2.686 1*2.684 1*2.686 1*-2.72 1*-2.716 1*2.851 1*-2.686 1*2.684 1*2.686 1*-0.083 1*-0.082 1*0.246
   NELM = 200
   NSW = 0
   PREC = Accurate
   SIGMA = 0.2

 POTCAR:    PAW_PBE Fe_pv 02Aug2007               
 POTCAR:    PAW_PBE Pt 04Feb2005                  
 -----------------------------------------------------------------------------
|                                                                             |
|           W    W    AA    RRRRR   N    N  II  N    N   GGGG   !!!           |
|           W    W   A  A   R    R  NN   N  II  NN   N  G    G  !!!           |
|           W    W  A    A  R    R  N N  N  II  N N  N  G       !!!           |
|           W WW W  AAAAAA  RRRRR   N  N N  II  N  N N  G  GGG   !            |
|           WW  WW  A    A  R   R   N   NN  II  N   NN  G    G                |
|           W    W  A    A  R    R  N    N  II  N    N   GGGG   !!!           |
|                                                                             |
|     For optimal performance we recommend to set                             |
|       NCORE = 2 up to number-of-cores-per-socket                            |
|     NCORE specifies how many cores store one orbital (NPAR=cpu/NCORE).      |
|     This setting can greatly improve the performance of VASP for DFT.       |
|     The default, NCORE=1 might be grossly inefficient on modern             |
|     multi-core architectures or massively parallel machines. Do your        |
|     own testing! More info at https://www.vasp.at/wiki/index.php/NCORE      |
|     Unfortunately you need to use the default for GW and RPA                |
|     calculations (for HF NCORE is supported but not extensively tested      |
|     yet).                                                                   |
|                                                                             |
 -----------------------------------------------------------------------------

 POTCAR:    PAW_PBE Fe_pv 02Aug2007               
   SHA256 =  5d22e414b1f82158bf2c7ecb8b97b28fd0923e48cadc1c3bf74d524558f5dd32 Fe_pv/POTCAR          
   COPYR  = (c) Copyright 02Aug2007 Georg Kresse                                                    
   COPYR  = This file is part of the software VASP. Any use, copying, and all other rights are regul
   COPYR  = If you do not have a valid VASP license, you may not use, copy or distribute this file. 
   VRHFIN =Fe:  3pd7s1                                                                              
   LEXCH  = PE                                                                                      
   EATOM  =  2457.4239 eV,  180.6156 Ry                                                             
                                                                                                    
   TITEL  = PAW_PBE Fe_pv 02Aug2007                                                                 
   LULTRA =        F    use ultrasoft PP ?                                                          
   IUNSCR =        1    unscreen: 0-lin 1-nonlin 2-no                                               
   RPACOR =    1.750    partial core radius                                                         
   POMASS =   55.847; ZVAL   =   14.000    mass and valenz                                          
   RCORE  =    2.200    outmost cutoff radius                                                       
   RWIGS  =    2.200; RWIGS  =    1.164    wigner-seitz radius (au A)                               
   ENMAX  =  293.238; ENMIN  =  219.928 eV                                                          
   ICORE  =        3    local potential                                                             
   LCOR   =        T    correct aug charges                                                         
   LPAW   =        T    paw PP                                                                      
   EAUG   =  578.342                                                                                
   DEXC   =    0.000                                                                                
   RMAX   =    2.249    core radius for proj-oper                                                   
   RAUG   =    1.300    factor for augmentation sphere                                              
   RDEP   =    2.296    radius for radial grids                                                     
   RDEPT  =    1.766    core radius for aug-charge                                                  
                                                                                                    
   Atomic configuration                                                                             
    8 entries                                                                                       
     n  l   j            E        occ.                                                              
     1  0  0.50     -6993.8440   2.0000                                                             
     2  0  0.50      -814.6047   2.0000                                                             
     2  1  1.50      -693.3689   6.0000                                                             
     3  0  0.50       -89.4732   2.0000                                                             
     3  1  1.50       -55.6373   6.0000                                                             
     3  2  2.50        -3.8151   7.0000                                                             
     4  0  0.50        -4.2551   1.0000                                                             
     4  3  2.50        -1.3606   0.0000                                                             
   Description                                                                                      
     l       E           TYP  RCUT    TYP  RCUT                                                     
     1    -55.6372668     23  2.000                                                                 
     1     -5.4423304     23  2.000                                                                 
     2     -3.8151096     23  2.200                                                                 
     2     -5.1756922     23  2.200                                                                 
     0     -4.2550951     23  2.200                                                                 
     0     27.2116520     23  2.200                                                                 
     3     -1.3605826     23  2.200                                                                 
  local pseudopotential read in
  partial core-charges read in
  partial kinetic energy density read in
  atomic valenz-charges read in
  non local Contribution for L=           1  read in
    real space projection operators read in
  non local Contribution for L=           1  read in
    real space projection operators read in
  non local Contribution for L=           2  read in
    real space projection operators read in
  non local Contribution for L=           2  read in
    real space projection operators read in
  non local Contribution for L=           0  read in
    real space projection operators read in
  non local Contribution for L=           0  read in
    real space projection operators read in
    PAW grid and wavefunctions read in
 
   number of l-projection  operators is LMAX  =           6
   number of lm-projection operators is LMMAX =          18
 
 POTCAR:    PAW_PBE Pt 04Feb2005                  
   SHA256 =  3ed90460adef76debcff1cfb73ee1349b515b1a3db03439735b44de3a8db7dc8 Pt/POTCAR             
   COPYR  = (c) Copyright 04Feb2005 Georg Kresse                                                    
   COPYR  = This file is part of the software VASP. Any use, copying, and all other rights are regul
   COPYR  = If you do not have a valid VASP license, you may not use, copy or distribute this file. 
   VRHFIN =Pt: s1d9                                                                                 
   LEXCH  = PE                                                                                      
   EATOM  =   729.1176 eV,   53.5886 Ry                                                             
                                                                                                    
   TITEL  = PAW_PBE Pt 04Feb2005                                                                    
   LULTRA =        F    use ultrasoft PP ?                                                          
   IUNSCR =        1    unscreen: 0-lin 1-nonlin 2-no                                               
   RPACOR =    2.330    partial core radius                                                         
   POMASS =  195.080; ZVAL   =   10.000    mass and valenz                                          
   RCORE  =    2.600    outmost cutoff radius                                                       
   RWIGS  =    2.750; RWIGS  =    1.455    wigner-seitz radius (au A)                               
   ENMAX  =  230.283; ENMIN  =  172.712 eV                                                          
   ICORE  =        3    local potential                                                             
   LCOR   =        T    correct aug charges                                                         
   LPAW   =        T    paw PP                                                                      
   EAUG   =  358.966                                                                                
   DEXC   =    0.000                                                                                
   RMAX   =    2.658    core radius for proj-oper                                                   
   RAUG   =    1.300    factor for augmentation sphere                                              
   RDEP   =    2.761    radius for radial grids                                                     
   RDEPT  =    2.203    core radius for aug-charge                                                  
                                                                                                    
   Atomic configuration                                                                             
   16 entries                                                                                       
     n  l   j            E        occ.                                                              
     1  0  0.50    -78401.1885   2.0000                                                             
     2  0  0.50    -13770.7750   2.0000                                                             
     2  1  1.50    -11931.0468   6.0000                                                             
     3  0  0.50     -3234.7234   2.0000                                                             
     3  1  1.50     -2699.2216   6.0000                                                             
     3  2  2.50     -2119.5714  10.0000                                                             
     4  0  0.50      -695.1528   2.0000                                                             
     4  1  1.50      -519.6034   6.0000                                                             
     4  2  2.50      -306.6786  10.0000                                                             
     4  3  3.50       -70.1041  14.0000                                                             
     5  0  0.50      -101.7747   2.0000                                                             
     5  1  1.50       -55.9873   6.0000                                                             
     5  2  2.50        -6.1423   9.0000                                                             
     6  0  0.50        -5.6573   1.0000                                                             
     6  1  1.50        -6.8029   0.0000                                                             
     5  3  2.50        -1.3606   0.0000                                                             
   Description                                                                                      
     l       E           TYP  RCUT    TYP  RCUT                                                     
     2     -6.1423404     23  2.500                                                                 
     2     -7.5029230     23  2.500                                                                 
     0     -5.6573207     23  2.500                                                                 
     0      0.7416693     23  2.500                                                                 
     1     -2.7211652     23  2.600                                                                 
     1     20.4087390     23  2.600                                                                 
     3     -1.3605826     23  2.500                                                                 
  local pseudopotential read in
  partial core-charges read in
  partial kinetic energy density read in
  atomic valenz-charges read in
  non local Contribution for L=           2  read in
    real space projection operators read in
  non local Contribution for L=           2  read in
    real space projection operators read in
  non local Contribution for L=           0  read in
    real space projection operators read in
  non local Contribution for L=           0  read in
    real space projection operators read in
  non local Contribution for L=           1  read in
    real space projection operators read in
  non local Contribution for L=           1  read in
    real space projection operators read in
    PAW grid and wavefunctions read in
 
   number of l-projection  operators is LMAX  =           6
   number of lm-projection operators is LMMAX =          18
 
  PAW_PBE Fe_pv 02Aug2007               :
 energy of atom  1       EATOM=-2457.4239
 kinetic energy error for atom=    0.0062 (will be added to EATOM!!)
  PAW_PBE Pt 04Feb2005                  :
 energy of atom  2       EATOM= -729.1176
 kinetic energy error for atom=    0.0032 (will be added to EATOM!!)
 
 
 POSCAR: Fe9 Pt3
  positions in direct lattice
  velocities in cartesian coordinates


 exchange-correlation table for PE
   RHO(1)=    0.500       N(1)  =     2000
   RHO(2)=  100.500       N(2)  =     4000
 


--------------------------------------------------------------------------------------------------------


 ion  position               nearest neighbor table
   1  0.000  0.500  0.167-   5 2.61   5 2.61   4 2.62   4 2.62   7 2.66   7 2.66   7 2.66   7 2.66
                            11 2.71  11 2.71  10 2.71  10 2.71
   2  0.000  0.500  0.500-  11 2.66  11 2.66   8 2.66   8 2.66   8 2.66   8 2.66   6 2.69   6 2.69
                            12 2.69  12 2.69   5 2.76   5 2.76
   3  0.000  0.500  0.834-   9 2.66   9 2.66   9 2.66   9 2.66  10 2.66  10 2.66  12 2.69  12 2.69
                             6 2.69   6 2.69   4 2.76   4 2.76
   4  0.500  0.500  0.009-   1 2.62   7 2.62   7 2.62   1 2.62  10 2.66  10 2.66  10 2.66  10 2.66
                             9 2.76   3 2.76   9 2.76   3 2.76
   5  0.500  0.500  0.324-   1 2.61   7 2.61   7 2.61   1 2.61  11 2.66  11 2.66  11 2.66  11 2.66
                             8 2.76   2 2.76   8 2.76   2 2.76
   6  0.500  0.500  0.667-  12 2.66  12 2.66  12 2.66  12 2.66   8 2.69   2 2.69   2 2.69   8 2.69
                             9 2.69   3 2.69   9 2.69   3 2.69
   7  0.500  0.000  0.167-   5 2.61   5 2.61   4 2.62   4 2.62   1 2.66   1 2.66   1 2.66   1 2.66
                            11 2.71  11 2.71  10 2.71  10 2.71
   8  0.500  0.000  0.500-  11 2.66  11 2.66   2 2.66   2 2.66   2 2.66   2 2.66   6 2.69   6 2.69
                            12 2.69  12 2.69   5 2.76   5 2.76
   9  0.500  0.000  0.834-   3 2.66   3 2.66   3 2.66   3 2.66  10 2.66  10 2.66  12 2.69  12 2.69
                             6 2.69   6 2.69   4 2.76   4 2.76
  10  0.000  0.000  0.997-   3 2.66   9 2.66   3 2.66   9 2.66   4 2.66   4 2.66   4 2.66   4 2.66
                             1 2.71   7 2.71   7 2.71   1 2.71
  11  0.000  0.000  0.336-   2 2.66   8 2.66   2 2.66   8 2.66   5 2.66   5 2.66   5 2.66   5 2.66
                             1 2.71   7 2.71   7 2.71   1 2.71
  12  0.000  0.000  0.667-   6 2.66   6 2.66   6 2.66   6 2.66   3 2.69   9 2.69   9 2.69   3 2.69
                             2 2.69   8 2.69   8 2.69   2 2.69
 
  LATTYP: Found a simple tetragonal cell.
 ALAT       =     3.7632096249
 C/A-ratio  =     3.0585273748
  
  Lattice vectors:
  
 A1 = (   3.7632096249,   0.0000000000,   0.0000000000)
 A2 = (   0.0000000000,   3.7632096249,   0.0000000000)
 A3 = (   0.0000000000,   0.0000000000,  11.5098796549)


Analysis of symmetry for initial positions (statically):
=====================================================================
 Subroutine PRICEL returns:
 Original cell was already a primitive cell.
 

 Routine SETGRP: Setting up the symmetry group for a 
 simple tetragonal supercell.


 Subroutine GETGRP returns: Found  8 space group operations
 (whereof  8 operations were pure point group operations)
 out of a pool of 16 trial point group operations.


The static configuration has the point symmetry C_4v.


Analysis of symmetry for dynamics (positions and initial velocities):
=====================================================================
 Subroutine PRICEL returns:
 Original cell was already a primitive cell.
 

 Routine SETGRP: Setting up the symmetry group for a 
 simple tetragonal supercell.


 Subroutine GETGRP returns: Found  8 space group operations
 (whereof  8 operations were pure point group operations)
 out of a pool of 16 trial point group operations.


The dynamic configuration has the point symmetry C_4v.


Analysis of structural, dynamic, and magnetic symmetry:
=====================================================================
 Subroutine PRICEL returns:
 Original cell was already a primitive cell.
 

 Routine SETGRP: Setting up the symmetry group for a 
 simple tetragonal supercell.


 Subroutine GETGRP returns: Found  8 space group operations
 (whereof  8 operations were pure point group operations)
 out of a pool of 16 trial point group operations.


The overall configuration has the point symmetry C_4v.


 Subroutine INISYM returns: Found  8 space group operations
 (whereof  8 operations are pure point group operations),
 and found     1 'primitive' translations


----------------------------------------------------------------------------------------

                                     Primitive cell                                     

  volume of cell :     163.0000

  direct lattice vectors                    reciprocal lattice vectors
     3.763209625  0.000000000  0.000000000     0.265730613  0.000000000  0.000000000
     0.000000000  3.763209625  0.000000000     0.000000000  0.265730613  0.000000000
     0.000000000  0.000000000 11.509879655     0.000000000  0.000000000  0.086881881

  length of vectors
     3.763209625  3.763209625 11.509879655     0.265730613  0.265730613  0.086881881

  position of ions in fractional coordinates (direct lattice)
     0.000000000  0.500000000  0.166781025
     0.000000000  0.500000000  0.499659311
     0.000000000  0.500000000  0.833553786
     0.500000000  0.500000000  0.008983209
     0.500000000  0.500000000  0.324466993
     0.500000000  0.500000000  0.666558445
     0.500000000  0.000000000  0.166781025
     0.500000000  0.000000000  0.499659311
     0.500000000  0.000000000  0.833553786
     0.000000000  0.000000000  0.997072905
     0.000000000  0.000000000  0.336317503
     0.000000000  0.000000000  0.666612701

  ion indices of the primitive-cell ions
   primitive index   ion index
                 1           1
                 2           2
                 3           3
                 4           4
                 5           5
                 6           6
                 7           7
                 8           8
                 9           9
                10          10
                11          11
                12          12

----------------------------------------------------------------------------------------

 
 
 KPOINTS: pymatgen with grid density = 8800 / numb

Automatic generation of k-mesh.
 Grid dimensions read from file:
 generate k-points for:   13   13    4

 Generating k-lattice:

  Cartesian coordinates                     Fractional coordinates (reciprocal lattice)
     0.020440816  0.000000000  0.000000000     0.076923077  0.000000000  0.000000000
     0.000000000  0.020440816  0.000000000     0.000000000  0.076923077  0.000000000
     0.000000000  0.000000000  0.021720470     0.000000000  0.000000000  0.250000000

  Length of vectors
     0.020440816  0.020440816  0.021720470

  Shift w.r.t. Gamma in fractional coordinates (k-lattice)
     0.000000000  0.000000000  0.000000000

 TETIRR: Found   1010 inequivalent tetrahedra from     4056
 
 Subroutine IBZKPT returns following result:
 ===========================================
 
 Found     84 irreducible k-points:
 
 Following reciprocal coordinates:
            Coordinates               Weight
  0.000000  0.000000  0.000000      1.000000
  0.076923  0.000000  0.000000      4.000000
  0.153846  0.000000  0.000000      4.000000
  0.230769  0.000000  0.000000      4.000000
  0.307692  0.000000  0.000000      4.000000
  0.384615  0.000000  0.000000      4.000000
  0.461538  0.000000  0.000000      4.000000
  0.076923  0.076923  0.000000      4.000000
  0.153846  0.076923  0.000000      8.000000
  0.230769  0.076923  0.000000      8.000000
  0.307692  0.076923  0.000000      8.000000
  0.384615  0.076923  0.000000      8.000000
  0.461538  0.076923  0.000000      8.000000
  0.153846  0.153846  0.000000      4.000000
  0.230769  0.153846  0.000000      8.000000
  0.307692  0.153846  0.000000      8.000000
  0.384615  0.153846  0.000000      8.000000
  0.461538  0.153846  0.000000      8.000000
  0.230769  0.230769  0.000000      4.000000
  0.307692  0.230769  0.000000      8.000000
  0.384615  0.230769  0.000000      8.000000
  0.461538  0.230769  0.000000      8.000000
  0.307692  0.307692  0.000000      4.000000
  0.384615  0.307692  0.000000      8.000000
  0.461538  0.307692  0.000000      8.000000
  0.384615  0.384615  0.000000      4.000000
  0.461538  0.384615  0.000000      8.000000
  0.461538  0.461538  0.000000      4.000000
  0.000000  0.000000  0.250000      2.000000
  0.076923  0.000000  0.250000      8.000000
  0.153846  0.000000  0.250000      8.000000
  0.230769  0.000000  0.250000      8.000000
  0.307692  0.000000  0.250000      8.000000
  0.384615  0.000000  0.250000      8.000000
  0.461538  0.000000  0.250000      8.000000
  0.076923  0.076923  0.250000      8.000000
  0.153846  0.076923  0.250000     16.000000
  0.230769  0.076923  0.250000     16.000000
  0.307692  0.076923  0.250000     16.000000
  0.384615  0.076923  0.250000     16.000000
  0.461538  0.076923  0.250000     16.000000
  0.153846  0.153846  0.250000      8.000000
  0.230769  0.153846  0.250000     16.000000
  0.307692  0.153846  0.250000     16.000000
  0.384615  0.153846  0.250000     16.000000
  0.461538  0.153846  0.250000     16.000000
  0.230769  0.230769  0.250000      8.000000
  0.307692  0.230769  0.250000     16.000000
  0.384615  0.230769  0.250000     16.000000
  0.461538  0.230769  0.250000     16.000000
  0.307692  0.307692  0.250000      8.000000
  0.384615  0.307692  0.250000     16.000000
  0.461538  0.307692  0.250000     16.000000
  0.384615  0.384615  0.250000      8.000000
  0.461538  0.384615  0.250000     16.000000
  0.461538  0.461538  0.250000      8.000000
  0.000000  0.000000  0.500000      1.000000
  0.076923  0.000000  0.500000      4.000000
  0.153846  0.000000  0.500000      4.000000
  0.230769  0.000000  0.500000      4.000000
  0.307692  0.000000  0.500000      4.000000
  0.384615  0.000000  0.500000      4.000000
  0.461538  0.000000  0.500000      4.000000
  0.076923  0.076923  0.500000      4.000000
  0.153846  0.076923  0.500000      8.000000
  0.230769  0.076923  0.500000      8.000000
  0.307692  0.076923  0.500000      8.000000
  0.384615  0.076923  0.500000      8.000000
  0.461538  0.076923  0.500000      8.000000
  0.153846  0.153846  0.500000      4.000000
  0.230769  0.153846  0.500000      8.000000
  0.307692  0.153846  0.500000      8.000000
  0.384615  0.153846  0.500000      8.000000
  0.461538  0.153846  0.500000      8.000000
  0.230769  0.230769  0.500000      4.000000
  0.307692  0.230769  0.500000      8.000000
  0.384615  0.230769  0.500000      8.000000
  0.461538  0.230769  0.500000      8.000000
  0.307692  0.307692  0.500000      4.000000
  0.384615  0.307692  0.500000      8.000000
  0.461538  0.307692  0.500000      8.000000
  0.384615  0.384615  0.500000      4.000000
  0.461538  0.384615  0.500000      8.000000
  0.461538  0.461538  0.500000      4.000000
 
 Following cartesian coordinates:
            Coordinates               Weight
  0.000000  0.000000  0.000000      1.000000
  0.020441  0.000000  0.000000      4.000000
  0.040882  0.000000  0.000000      4.000000
  0.061322  0.000000  0.000000      4.000000
  0.081763  0.000000  0.000000      4.000000
  0.102204  0.000000  0.000000      4.000000
  0.122645  0.000000  0.000000      4.000000
  0.020441  0.020441  0.000000      4.000000
  0.040882  0.020441  0.000000      8.000000
  0.061322  0.020441  0.000000      8.000000
  0.081763  0.020441  0.000000      8.000000
  0.102204  0.020441  0.000000      8.000000
  0.122645  0.020441  0.000000      8.000000
  0.040882  0.040882  0.000000      4.000000
  0.061322  0.040882  0.000000      8.000000
  0.081763  0.040882  0.000000      8.000000
  0.102204  0.040882  0.000000      8.000000
  0.122645  0.040882  0.000000      8.000000
  0.061322  0.061322  0.000000      4.000000
  0.081763  0.061322  0.000000      8.000000
  0.102204  0.061322  0.000000      8.000000
  0.122645  0.061322  0.000000      8.000000
  0.081763  0.081763  0.000000      4.000000
  0.102204  0.081763  0.000000      8.000000
  0.122645  0.081763  0.000000      8.000000
  0.102204  0.102204  0.000000      4.000000
  0.122645  0.102204  0.000000      8.000000
  0.122645  0.122645  0.000000      4.000000
  0.000000  0.000000  0.021720      2.000000
  0.020441  0.000000  0.021720      8.000000
  0.040882  0.000000  0.021720      8.000000
  0.061322  0.000000  0.021720      8.000000
  0.081763  0.000000  0.021720      8.000000
  0.102204  0.000000  0.021720      8.000000
  0.122645  0.000000  0.021720      8.000000
  0.020441  0.020441  0.021720      8.000000
  0.040882  0.020441  0.021720     16.000000
  0.061322  0.020441  0.021720     16.000000
  0.081763  0.020441  0.021720     16.000000
  0.102204  0.020441  0.021720     16.000000
  0.122645  0.020441  0.021720     16.000000
  0.040882  0.040882  0.021720      8.000000
  0.061322  0.040882  0.021720     16.000000
  0.081763  0.040882  0.021720     16.000000
  0.102204  0.040882  0.021720     16.000000
  0.122645  0.040882  0.021720     16.000000
  0.061322  0.061322  0.021720      8.000000
  0.081763  0.061322  0.021720     16.000000
  0.102204  0.061322  0.021720     16.000000
  0.122645  0.061322  0.021720     16.000000
  0.081763  0.081763  0.021720      8.000000
  0.102204  0.081763  0.021720     16.000000
  0.122645  0.081763  0.021720     16.000000
  0.102204  0.102204  0.021720      8.000000
  0.122645  0.102204  0.021720     16.000000
  0.122645  0.122645  0.021720      8.000000
  0.000000  0.000000  0.043441      1.000000
  0.020441  0.000000  0.043441      4.000000
  0.040882  0.000000  0.043441      4.000000
  0.061322  0.000000  0.043441      4.000000
  0.081763  0.000000  0.043441      4.000000
  0.102204  0.000000  0.043441      4.000000
  0.122645  0.000000  0.043441      4.000000
  0.020441  0.020441  0.043441      4.000000
  0.040882  0.020441  0.043441      8.000000
  0.061322  0.020441  0.043441      8.000000
  0.081763  0.020441  0.043441      8.000000
  0.102204  0.020441  0.043441      8.000000
  0.122645  0.020441  0.043441      8.000000
  0.040882  0.040882  0.043441      4.000000
  0.061322  0.040882  0.043441      8.000000
  0.081763  0.040882  0.043441      8.000000
  0.102204  0.040882  0.043441      8.000000
  0.122645  0.040882  0.043441      8.000000
  0.061322  0.061322  0.043441      4.000000
  0.081763  0.061322  0.043441      8.000000
  0.102204  0.061322  0.043441      8.000000
  0.122645  0.061322  0.043441      8.000000
  0.081763  0.081763  0.043441      4.000000
  0.102204  0.081763  0.043441      8.000000
  0.122645  0.081763  0.043441      8.000000
  0.102204  0.102204  0.043441      4.000000
  0.122645  0.102204  0.043441      8.000000
  0.122645  0.122645  0.043441      4.000000
 


--------------------------------------------------------------------------------------------------------




 Dimension of arrays:
   k-points           NKPTS =     84   k-points in BZ     NKDIM =     84   number of bands    NBANDS=     96
   number of dos      NEDOS =    301   number of ions     NIONS =     12
   non local maximal  LDIM  =      6   non local SUM 2l+1 LMDIM =     18
   total plane-waves  NPLWV =  70560
   max r-space proj   IRMAX =      1   max aug-charges    IRDMAX=  26415
   dimension x,y,z NGX =    28 NGY =   28 NGZ =   90
   dimension x,y,z NGXF=    56 NGYF=   56 NGZF=  180
   support grid    NGXF=    56 NGYF=   56 NGZF=  180
   ions per type =               9   3
   NGX,Y,Z   is equivalent  to a cutoff of  12.37, 12.37, 13.00 a.u.
   NGXF,Y,Z  is equivalent  to a cutoff of  24.74, 24.74, 26.00 a.u.

 SYSTEM =  unknown system                          
 POSCAR =  Fe9 Pt3                                 

 Startparameter for this run:
   NWRITE =      2    write-flag & timer
   PREC   = accura    normal or accurate (medium, high low for compatibility)
   ISTART =      0    job   : 0-new  1-cont  2-samecut
   ICHARG =      2    charge: 1-file 2-atom 10-const
   ISPIN  =      2    spin polarized calculation?
   LNONCOLLINEAR =      F non collinear calculations
   LSORBIT =      F    spin-orbit coupling
   INIWAV =      1    electr: 0-lowe 1-rand  2-diag
   LASPH  =      F    aspherical Exc in radial PAW
 Electronic Relaxation 1
   ENCUT  =  520.0 eV  38.22 Ry    6.18 a.u.   7.00  7.00 21.40*2*pi/ulx,y,z
   ENINI  =  520.0     initial cutoff
   ENAUG  =  578.3 eV  augmentation charge cutoff
   NELM   =    200;   NELMIN=  2; NELMDL=  0     # of ELM steps 
   EDIFF  = 0.1E-05   stopping-criterion for ELM
   LREAL  =      F    real-space projection
   NLSPLINE    = F    spline interpolate recip. space projectors
   LCOMPAT=      F    compatible to vasp.4.4
   GGA_COMPAT  = T    GGA compatible to vasp.4.4-vasp.4.6
   LMAXPAW     = -100 max onsite density
   LMAXMIX     =    2 max onsite mixed and CHGCAR
   VOSKOWN=      0    Vosko Wilk Nusair interpolation
   ROPT   =    0.00000   0.00000
 Ionic relaxation
   EDIFFG = -.1E-01   stopping-criterion for IOM
   NSW    =      0    number of steps for IOM
   NBLOCK =      1;   KBLOCK =      1    inner block; outer block 
   IBRION =     -1    ionic relax: 0-MD 1-quasi-New 2-CG
   NFREE  =      0    steps in history (QN), initial steepest desc. (CG)
   ISIF   =      4    stress and relaxation
   IWAVPR =     10    prediction:  0-non 1-charg 2-wave 3-comb
   ISYM   =      2    0-nonsym 1-usesym 2-fastsym
   LCORR  =      T    Harris-Foulkes like correction to forces

   POTIM  = 0.5000    time-step for ionic-motion
   TEIN   =    0.0    initial temperature
   TEBEG  =    0.0;   TEEND  =   0.0 temperature during run
   SMASS  =  -3.00    Nose mass-parameter (am)
   estimated Nose-frequenzy (Omega)   =  0.10E-29 period in steps = 0.13E+47 mass=  -0.324E-27a.u.
   SCALEE = 1.0000    scale energy and forces
   NPACO  =    256;   APACO  = 10.0  distance and # of slots for P.C.
   PSTRESS=    0.0 pullay stress

  Mass of Ions in am
   POMASS =  55.85195.08
  Ionic Valenz
   ZVAL   =  14.00 10.00
  Atomic Wigner-Seitz radii
   RWIGS  =  -1.00 -1.00
  virtual crystal weights 
   VCA    =   1.00  1.00
   NELECT =     156.0000    total number of electrons
   NUPDOWN=      -1.0000    fix difference up-down

 DOS related values:
   EMIN   =  10.00;   EMAX   =-10.00  energy-range for DOS
   EFERMI =   0.00;   METHOD = LEGACY      
   ISMEAR =    -5;   SIGMA  =   0.20  broadening in eV -4-tet -1-fermi 0-gaus

 Electronic relaxation 2 (details)
   IALGO  =     38    algorithm
   LDIAG  =      T    sub-space diagonalisation (order eigenvalues)
   LSUBROT=      F    optimize rotation matrix (better conditioning)
   TURBO    =      0    0=normal 1=particle mesh
   IRESTART =      0    0=no restart 2=restart with 2 vectors
   NREBOOT  =      0    no. of reboots
   NMIN     =      0    reboot dimension
   EREF     =   0.00    reference energy to select bands
   IMIX   =      4    mixing-type and parameters
     AMIX     =   0.40;   BMIX     =  1.00
     AMIX_MAG =   1.60;   BMIX_MAG =  1.00
     AMIN     =   0.10
     WC   =   100.;   INIMIX=   1;  MIXPRE=   1;  MAXMIX= -45

 Intra band minimization:
   WEIMIN = 0.0000     energy-eigenvalue tresh-hold
   EBREAK =  0.26E-08  absolut break condition
   DEPER  =   0.30     relativ break condition  

   TIME   =   0.40     timestep for ELM

  volume/ion in A,a.u.               =      13.58        91.66
  Fermi-wavevector in a.u.,A,eV,Ry     =   1.613320  3.048733 35.413260  2.602801
  Thomas-Fermi vector in A             =   2.708408
 
 Write flags
   LWAVE        =      F    write WAVECAR
   LDOWNSAMPLE  =      F    k-point downsampling of WAVECAR
   LCHARG       =      T    write CHGCAR
   LVTOT        =      F    write LOCPOT, total local potential
   LVHAR        =      F    write LOCPOT, Hartree potential only
   WRT_POTENTIAL= false  ! write potential to hdf5 file
   LELF         =      F    write electronic localiz. function (ELF)
   LORBIT       =     11    0 simple, 1 ext, 2 COOP (PROOUT), +10 PAW based schemes


 Dipole corrections
   LMONO      =      F    monopole corrections only (constant potential shift)
   LDIPOL     =      F    correct potential (dipole corrections)
   IDIPOL     =      0    1-x, 2-y, 3-z, 4-all directions 
   EPSILON    =  1.0000000 bulk dielectric constant
   LVACPOTAV  =      F  vacuum potentials using an averaging scheme for the charge density
   VACPOTFLAT =  0.1000000 required flatness to determine vacuum potential
 Exchange correlation treatment:
   GGA     = PE    functional components
   XC_C    = 1    coefficients multiplying the functional components
   LIBXC   =     F    Libxc                    
   VOSKOWN =     0    Vosko Wilk Nusair interpolation
   LHFCALC =     F    Hartree Fock is set to
   LHFONE  =     F    Hartree Fock one center treatment
   AEXX    =    0.0000 exact exchange contribution

 Parameters of functionals:
   PE:
     No parameter
 
 Van der Waals corrections
   IVDW    =     0    specifies the selected vdW correction

 Linear response parameters
   LEPSILON=     F    determine dielectric tensor
   LRPA    =     F    only Hartree local field effects (RPA)
   LNABLA  =     F    use nabla operator in PAW spheres
   LVEL    =     F    velocity operator in full k-point grid
   CSHIFT  =0.1000    complex shift for real part using Kramers Kronig
   OMEGAMAX=  -1.0    maximum frequency
   DEG_THRESHOLD= 0.2000000E-02 threshold for treating states as degnerate
   RTIME   =   -0.100 relaxation time in fs
  (WPLASMAI=    0.000 imaginary part of plasma frequency in eV, 0.658/RTIME)
   DFIELD  = 0.0000000 0.0000000 0.0000000 field for delta impulse in time
 
  Optional k-point grid parameters
   LKPOINTS_OPT  =     F    use optional k-point grid
   KPOINTS_OPT_MODE=     1    mode for optional k-point grid
 
 Orbital magnetization related:
   ORBITALMAG=     F  switch on orbital magnetization
   LCHIMAG   =     F  perturbation theory with respect to B field
   DQ        =  0.001000  dq finite difference perturbation B field
   LLRAUG    =     F  two centre corrections for induced B field
   LBONE     =     F  B-component reconstruction in AE one-centre
   LVGVCALC  =     T  calculate vGv susceptibility
   LVGVAPPL  =     F  apply vGv susceptibility instead of pGv for G=0

 Random number generation:
   RANDOM_GENERATOR = DEFAULT
   PCG_SEED         = not used


--------------------------------------------------------------------------------------------------------


 Static calculation
 charge density and potential will be updated during run
 spin polarized calculation
 Variant of blocked Davidson
 Davidson routine will perform the subspace rotation
 perform sub-space diagonalisation
    after iterative eigenvector-optimisation
 modified Broyden-mixing scheme, WC =      100.0
 initial mixing is a Kerker type mixing with AMIX =  0.4000 and BMIX =      1.0000
 Hartree-type preconditioning will be used
 using additional bands           18
 reciprocal scheme for non local part
 use partial core corrections
 calculate Harris-corrections to forces 
   (improved forces if not selfconsistent)
 use gradient corrections 
 use of overlap-Matrix (Vanderbilt PP)
 Fermi weights with tetrahedron method with Bloechl corrections


--------------------------------------------------------------------------------------------------------


  energy-cutoff  :      520.00
  volume of cell :      163.00
      direct lattice vectors                 reciprocal lattice vectors
     3.763209625  0.000000000  0.000000000     0.265730613  0.000000000  0.000000000
     0.000000000  3.763209625  0.000000000     0.000000000  0.265730613  0.000000000
     0.000000000  0.000000000 11.509879655     0.000000000  0.000000000  0.086881881

  length of vectors
     3.763209625  3.763209625 11.509879655     0.265730613  0.265730613  0.086881881


 
 k-points in units of 2pi/SCALE and weight: pymatgen with grid density = 8800 / numb
   0.00000000  0.00000000  0.00000000       0.001
   0.02044082  0.00000000  0.00000000       0.006
   0.04088163  0.00000000  0.00000000       0.006
   0.06132245  0.00000000  0.00000000       0.006
   0.08176327  0.00000000  0.00000000       0.006
   0.10220408  0.00000000  0.00000000       0.006
   0.12264490  0.00000000  0.00000000       0.006
   0.02044082  0.02044082  0.00000000       0.006
   0.04088163  0.02044082  0.00000000       0.012
   0.06132245  0.02044082  0.00000000       0.012
   0.08176327  0.02044082  0.00000000       0.012
   0.10220408  0.02044082  0.00000000       0.012
   0.12264490  0.02044082  0.00000000       0.012
   0.04088163  0.04088163  0.00000000       0.006
   0.06132245  0.04088163  0.00000000       0.012
   0.08176327  0.04088163  0.00000000       0.012
   0.10220408  0.04088163  0.00000000       0.012
   0.12264490  0.04088163  0.00000000       0.012
   0.06132245  0.06132245  0.00000000       0.006
   0.08176327  0.06132245  0.00000000       0.012
   0.10220408  0.06132245  0.00000000       0.012
   0.12264490  0.06132245  0.00000000       0.012
   0.08176327  0.08176327  0.00000000       0.006
   0.10220408  0.08176327  0.00000000       0.012
   0.12264490  0.08176327  0.00000000       0.012
   0.10220408  0.10220408  0.00000000       0.006
   0.12264490  0.10220408  0.00000000       0.012
   0.12264490  0.12264490  0.00000000       0.006
   0.00000000  0.00000000  0.02172047       0.003
   0.02044082  0.00000000  0.02172047       0.012
   0.04088163  0.00000000  0.02172047       0.012
   0.06132245  0.00000000  0.02172047       0.012
   0.08176327  0.00000000  0.02172047       0.012
   0.10220408  0.00000000  0.02172047       0.012
   0.12264490  0.00000000  0.02172047       0.012
   0.02044082  0.02044082  0.02172047       0.012
   0.04088163  0.02044082  0.02172047       0.024
   0.06132245  0.02044082  0.02172047       0.024
   0.08176327  0.02044082  0.02172047       0.024
   0.10220408  0.02044082  0.02172047       0.024
   0.12264490  0.02044082  0.02172047       0.024
   0.04088163  0.04088163  0.02172047       0.012
   0.06132245  0.04088163  0.02172047       0.024
   0.08176327  0.04088163  0.02172047       0.024
   0.10220408  0.04088163  0.02172047       0.024
   0.12264490  0.04088163  0.02172047       0.024
   0.06132245  0.06132245  0.02172047       0.012
   0.08176327  0.06132245  0.02172047       0.024
   0.10220408  0.06132245  0.02172047       0.024
   0.12264490  0.06132245  0.02172047       0.024
   0.08176327  0.08176327  0.02172047       0.012
   0.10220408  0.08176327  0.02172047       0.024
   0.12264490  0.08176327  0.02172047       0.024
   0.10220408  0.10220408  0.02172047       0.012
   0.12264490  0.10220408  0.02172047       0.024
   0.12264490  0.12264490  0.02172047       0.012
   0.00000000  0.00000000  0.04344094       0.001
   0.02044082  0.00000000  0.04344094       0.006
   0.04088163  0.00000000  0.04344094       0.006
   0.06132245  0.00000000  0.04344094       0.006
   0.08176327  0.00000000  0.04344094       0.006
   0.10220408  0.00000000  0.04344094       0.006
   0.12264490  0.00000000  0.04344094       0.006
   0.02044082  0.02044082  0.04344094       0.006
   0.04088163  0.02044082  0.04344094       0.012
   0.06132245  0.02044082  0.04344094       0.012
   0.08176327  0.02044082  0.04344094       0.012
   0.10220408  0.02044082  0.04344094       0.012
   0.12264490  0.02044082  0.04344094       0.012
   0.04088163  0.04088163  0.04344094       0.006
   0.06132245  0.04088163  0.04344094       0.012
   0.08176327  0.04088163  0.04344094       0.012
   0.10220408  0.04088163  0.04344094       0.012
   0.12264490  0.04088163  0.04344094       0.012
   0.06132245  0.06132245  0.04344094       0.006
   0.08176327  0.06132245  0.04344094       0.012
   0.10220408  0.06132245  0.04344094       0.012
   0.12264490  0.06132245  0.04344094       0.012
   0.08176327  0.08176327  0.04344094       0.006
   0.10220408  0.08176327  0.04344094       0.012
   0.12264490  0.08176327  0.04344094       0.012
   0.10220408  0.10220408  0.04344094       0.006
   0.12264490  0.10220408  0.04344094       0.012
   0.12264490  0.12264490  0.04344094       0.006
 
 k-points in reciprocal lattice and weights: pymatgen with grid density = 8800 / numb
   0.00000000  0.00000000  0.00000000       0.001
   0.07692308  0.00000000  0.00000000       0.006
   0.15384615  0.00000000  0.00000000       0.006
   0.23076923  0.00000000  0.00000000       0.006
   0.30769231  0.00000000  0.00000000       0.006
   0.38461538  0.00000000  0.00000000       0.006
   0.46153846  0.00000000  0.00000000       0.006
   0.07692308  0.07692308  0.00000000       0.006
   0.15384615  0.07692308  0.00000000       0.012
   0.23076923  0.07692308  0.00000000       0.012
   0.30769231  0.07692308  0.00000000       0.012
   0.38461538  0.07692308  0.00000000       0.012
   0.46153846  0.07692308  0.00000000       0.012
   0.15384615  0.15384615  0.00000000       0.006
   0.23076923  0.15384615  0.00000000       0.012
   0.30769231  0.15384615  0.00000000       0.012
   0.38461538  0.15384615  0.00000000       0.012
   0.46153846  0.15384615  0.00000000       0.012
   0.23076923  0.23076923  0.00000000       0.006
   0.30769231  0.23076923  0.00000000       0.012
   0.38461538  0.23076923  0.00000000       0.012
   0.46153846  0.23076923  0.00000000       0.012
   0.30769231  0.30769231  0.00000000       0.006
   0.38461538  0.30769231  0.00000000       0.012
   0.46153846  0.30769231  0.00000000       0.012
   0.38461538  0.38461538  0.00000000       0.006
   0.46153846  0.38461538  0.00000000       0.012
   0.46153846  0.46153846  0.00000000       0.006
   0.00000000  0.00000000  0.25000000       0.003
   0.07692308  0.00000000  0.25000000       0.012
   0.15384615  0.00000000  0.25000000       0.012
   0.23076923  0.00000000  0.25000000       0.012
   0.30769231  0.00000000  0.25000000       0.012
   0.38461538  0.00000000  0.25000000       0.012
   0.46153846  0.00000000  0.25000000       0.012
   0.07692308  0.07692308  0.25000000       0.012
   0.15384615  0.07692308  0.25000000       0.024
   0.23076923  0.07692308  0.25000000       0.024
   0.30769231  0.07692308  0.25000000       0.024
   0.38461538  0.07692308  0.25000000       0.024
   0.46153846  0.07692308  0.25000000       0.024
   0.15384615  0.15384615  0.25000000       0.012
   0.23076923  0.15384615  0.25000000       0.024
   0.30769231  0.15384615  0.25000000       0.024
   0.38461538  0.15384615  0.25000000       0.024
   0.46153846  0.15384615  0.25000000       0.024
   0.23076923  0.23076923  0.25000000       0.012
   0.30769231  0.23076923  0.25000000       0.024
   0.38461538  0.23076923  0.25000000       0.024
   0.46153846  0.23076923  0.25000000       0.024
   0.30769231  0.30769231  0.25000000       0.012
   0.38461538  0.30769231  0.25000000       0.024
   0.46153846  0.30769231  0.25000000       0.024
   0.38461538  0.38461538  0.25000000       0.012
   0.46153846  0.38461538  0.25000000       0.024
   0.46153846  0.46153846  0.25000000       0.012
   0.00000000  0.00000000  0.50000000       0.001
   0.07692308  0.00000000  0.50000000       0.006
   0.15384615  0.00000000  0.50000000       0.006
   0.23076923  0.00000000  0.50000000       0.006
   0.30769231  0.00000000  0.50000000       0.006
   0.38461538  0.00000000  0.50000000       0.006
   0.46153846  0.00000000  0.50000000       0.006
   0.07692308  0.07692308  0.50000000       0.006
   0.15384615  0.07692308  0.50000000       0.012
   0.23076923  0.07692308  0.50000000       0.012
   0.30769231  0.07692308  0.50000000       0.012
   0.38461538  0.07692308  0.50000000       0.012
   0.46153846  0.07692308  0.50000000       0.012
   0.15384615  0.15384615  0.50000000       0.006
   0.23076923  0.15384615  0.50000000       0.012
   0.30769231  0.15384615  0.50000000       0.012
   0.38461538  0.15384615  0.50000000       0.012
   0.46153846  0.15384615  0.50000000       0.012
   0.23076923  0.23076923  0.50000000       0.006
   0.30769231  0.23076923  0.50000000       0.012
   0.38461538  0.23076923  0.50000000       0.012
   0.46153846  0.23076923  0.50000000       0.012
   0.30769231  0.30769231  0.50000000       0.006
   0.38461538  0.30769231  0.50000000       0.012
   0.46153846  0.30769231  0.50000000       0.012
   0.38461538  0.38461538  0.50000000       0.006
   0.46153846  0.38461538  0.50000000       0.012
   0.46153846  0.46153846  0.50000000       0.006
 
 position of ions in fractional coordinates (direct lattice) 
   0.00000000  0.50000000  0.16678103
   0.00000000  0.50000000  0.49965931
   0.00000000  0.50000000  0.83355379
   0.50000000  0.50000000  0.00898321
   0.50000000  0.50000000  0.32446699
   0.50000000  0.50000000  0.66655845
   0.50000000  0.00000000  0.16678103
   0.50000000  0.00000000  0.49965931
   0.50000000  0.00000000  0.83355379
   0.00000000  0.00000000  0.99707290
   0.00000000  0.00000000  0.33631750
   0.00000000  0.00000000  0.66661270
 
 position of ions in cartesian coordinates  (Angst):
   0.00000000  1.88160481  1.91962953
   0.00000000  1.88160481  5.75101854
   0.00000000  1.88160481  9.59410376
   1.88160481  1.88160481  0.10339565
   1.88160481  1.88160481  3.73457604
   1.88160481  1.88160481  7.67200749
   1.88160481  0.00000000  1.91962953
   1.88160481  0.00000000  5.75101854
   1.88160481  0.00000000  9.59410376
   0.00000000  0.00000000 11.47618914
   0.00000000  0.00000000  3.87097399
   0.00000000  0.00000000  7.67263196
 


--------------------------------------------------------------------------------------------------------


 k-point     1 :   0.0000 0.0000 0.0000  plane waves:    4347
 k-point     2 :   0.0769 0.0000 0.0000  plane waves:    4352
 k-point     3 :   0.1538 0.0000 0.0000  plane waves:    4388
 k-point     4 :   0.2308 0.0000 0.0000  plane waves:    4358
 k-point     5 :   0.3077 0.0000 0.0000  plane waves:    4372
 k-point     6 :   0.3846 0.0000 0.0000  plane waves:    4376
 k-point     7 :   0.4615 0.0000 0.0000  plane waves:    4386
 k-point     8 :   0.0769 0.0769 0.0000  plane waves:    4374
 k-point     9 :   0.1538 0.0769 0.0000  plane waves:    4383
 k-point    10 :   0.2308 0.0769 0.0000  plane waves:    4385
 k-point    11 :   0.3077 0.0769 0.0000  plane waves:    4382
 k-point    12 :   0.3846 0.0769 0.0000  plane waves:    4395
 k-point    13 :   0.4615 0.0769 0.0000  plane waves:    4399
 k-point    14 :   0.1538 0.1538 0.0000  plane waves:    4374
 k-point    15 :   0.2308 0.1538 0.0000  plane waves:    4386
 k-point    16 :   0.3077 0.1538 0.0000  plane waves:    4381
 k-point    17 :   0.3846 0.1538 0.0000  plane waves:    4404
 k-point    18 :   0.4615 0.1538 0.0000  plane waves:    4414
 k-point    19 :   0.2308 0.2308 0.0000  plane waves:    4378
 k-point    20 :   0.3077 0.2308 0.0000  plane waves:    4390
 k-point    21 :   0.3846 0.2308 0.0000  plane waves:    4402
 k-point    22 :   0.4615 0.2308 0.0000  plane waves:    4418
 k-point    23 :   0.3077 0.3077 0.0000  plane waves:    4414
 k-point    24 :   0.3846 0.3077 0.0000  plane waves:    4402
 k-point    25 :   0.4615 0.3077 0.0000  plane waves:    4411
 k-point    26 :   0.3846 0.3846 0.0000  plane waves:    4388
 k-point    27 :   0.4615 0.3846 0.0000  plane waves:    4390
 k-point    28 :   0.4615 0.4615 0.0000  plane waves:    4386
 k-point    29 :   0.0000 0.0000 0.2500  plane waves:    4335
 k-point    30 :   0.0769 0.0000 0.2500  plane waves:    4341
 k-point    31 :   0.1538 0.0000 0.2500  plane waves:    4355
 k-point    32 :   0.2308 0.0000 0.2500  plane waves:    4368
 k-point    33 :   0.3077 0.0000 0.2500  plane waves:    4380
 k-point    34 :   0.3846 0.0000 0.2500  plane waves:    4384
 k-point    35 :   0.4615 0.0000 0.2500  plane waves:    4394
 k-point    36 :   0.0769 0.0769 0.2500  plane waves:    4354
 k-point    37 :   0.1538 0.0769 0.2500  plane waves:    4369
 k-point    38 :   0.2308 0.0769 0.2500  plane waves:    4372
 k-point    39 :   0.3077 0.0769 0.2500  plane waves:    4381
 k-point    40 :   0.3846 0.0769 0.2500  plane waves:    4394
 k-point    41 :   0.4615 0.0769 0.2500  plane waves:    4390
 k-point    42 :   0.1538 0.1538 0.2500  plane waves:    4375
 k-point    43 :   0.2308 0.1538 0.2500  plane waves:    4387
 k-point    44 :   0.3077 0.1538 0.2500  plane waves:    4391
 k-point    45 :   0.3846 0.1538 0.2500  plane waves:    4398
 k-point    46 :   0.4615 0.1538 0.2500  plane waves:    4402
 k-point    47 :   0.2308 0.2308 0.2500  plane waves:    4378
 k-point    48 :   0.3077 0.2308 0.2500  plane waves:    4398
 k-point    49 :   0.3846 0.2308 0.2500  plane waves:    4397
 k-point    50 :   0.4615 0.2308 0.2500  plane waves:    4406
 k-point    51 :   0.3077 0.3077 0.2500  plane waves:    4401
 k-point    52 :   0.3846 0.3077 0.2500  plane waves:    4403
 k-point    53 :   0.4615 0.3077 0.2500  plane waves:    4403
 k-point    54 :   0.3846 0.3846 0.2500  plane waves:    4399
 k-point    55 :   0.4615 0.3846 0.2500  plane waves:    4401
 k-point    56 :   0.4615 0.4615 0.2500  plane waves:    4403
 k-point    57 :   0.0000 0.0000 0.5000  plane waves:    4346
 k-point    58 :   0.0769 0.0000 0.5000  plane waves:    4336
 k-point    59 :   0.1538 0.0000 0.5000  plane waves:    4338
 k-point    60 :   0.2308 0.0000 0.5000  plane waves:    4358
 k-point    61 :   0.3077 0.0000 0.5000  plane waves:    4374
 k-point    62 :   0.3846 0.0000 0.5000  plane waves:    4378
 k-point    63 :   0.4615 0.0000 0.5000  plane waves:    4394
 k-point    64 :   0.0769 0.0769 0.5000  plane waves:    4338
 k-point    65 :   0.1538 0.0769 0.5000  plane waves:    4342
 k-point    66 :   0.2308 0.0769 0.5000  plane waves:    4380
 k-point    67 :   0.3077 0.0769 0.5000  plane waves:    4390
 k-point    68 :   0.3846 0.0769 0.5000  plane waves:    4388
 k-point    69 :   0.4615 0.0769 0.5000  plane waves:    4406
 k-point    70 :   0.1538 0.1538 0.5000  plane waves:    4370
 k-point    71 :   0.2308 0.1538 0.5000  plane waves:    4376
 k-point    72 :   0.3077 0.1538 0.5000  plane waves:    4394
 k-point    73 :   0.3846 0.1538 0.5000  plane waves:    4400
 k-point    74 :   0.4615 0.1538 0.5000  plane waves:    4394
 k-point    75 :   0.2308 0.2308 0.5000  plane waves:    4398
 k-point    76 :   0.3077 0.2308 0.5000  plane waves:    4402
 k-point    77 :   0.3846 0.2308 0.5000  plane waves:    4410
 k-point    78 :   0.4615 0.2308 0.5000  plane waves:    4402
 k-point    79 :   0.3077 0.3077 0.5000  plane waves:    4392
 k-point    80 :   0.3846 0.3077 0.5000  plane waves:    4408
 k-point    81 :   0.4615 0.3077 0.5000  plane waves:    4404
 k-point    82 :   0.3846 0.3846 0.5000  plane waves:    4422
 k-point    83 :   0.4615 0.3846 0.5000  plane waves:    4400
 k-point    84 :   0.4615 0.4615 0.5000  plane waves:    4386

 maximum and minimum number of plane-waves per node :      4422     4335

 maximum number of plane-waves:      4422
 maximum index in each direction: 
   IXMAX=    6   IYMAX=    6   IZMAX=   21
   IXMIN=   -7   IYMIN=   -7   IZMIN=  -21


 serial   3D FFT for wavefunctions
 parallel 3D FFT for charge:
    minimum data exchange during FFTs selected (reduces bandwidth)


 total amount of memory used by VASP MPI-rank0   184760. kBytes
=======================================================================

   base      :      30000. kBytes
   nonl-proj :     108460. kBytes
   fftplans  :        955. kBytes
   grid      :       7297. kBytes
   one-center:        373. kBytes
   wavefun   :      37675. kBytes
 
     INWAV:  cpu time      0.0000: real time      0.0004
 Broyden mixing: mesh for mixing (old mesh)
   NGX = 13   NGY = 13   NGZ = 43
  (NGX  = 56   NGY  = 56   NGZ  =180)
  gives a total of   7267 points

 initial charge density was supplied:
 charge density of overlapping atoms calculated
 number of electron     156.0000000 magnetization       2.8640000
 keeping initial charge density in first step


--------------------------------------------------------------------------------------------------------


 Maximum index for augmentation-charges         1062 (set IRDMAX)


--------------------------------------------------------------------------------------------------------


 First call to EWALD:  gamma=   0.324
 Maximum number of real-space cells 4x 4x 2
 Maximum number of reciprocal cells 2x 2x 5

    FEWALD:  cpu time      2.3355: real time      2.3453


--------------------------------------- Ionic step        1  -------------------------------------------




--------------------------------------- Iteration      1(   1)  ---------------------------------------


    POTLOK:  cpu time      0.0292: real time      0.0682
    SETDIJ:  cpu time      3.5630: real time      3.5773
     EDDAV:  cpu time      5.0580: real time      5.0966
 BZINTS: Fermi energy:   23.747972;  156.000000 electrons
         Band energy: 0.411042E+03;  BLOECHL correction:   -0.100058
       DOS:  cpu time      0.1018: real time      0.1032
    --------------------------------------------
      LOOP:  cpu time      8.7521: real time      8.8455

 eigenvalue-minimisations  : 32256
 total energy-change (2. order) : 0.1735243E+04  (-0.9191316E+04)
 number of electron     156.0000000 magnetization       2.8640000
 augmentation part      156.0000000 magnetization       2.8640000

 Free energy of the ion-electron system (eV)
  ---------------------------------------------------
  alpha Z        PSCENC =      1044.11122432
  Ewald energy   TEWEN  =    -17817.44908504
  -Hartree energ DENC   =     -6137.96641793
  -exchange      EXHF   =         0.00000000
  -V(xc)+E(xc)   XCENC  =       655.32182040
  PAW double counting   =     20093.90147872   -20817.82021641
  entropy T*S    EENTRO =         0.00000000
  eigenvalues    EBANDS =       411.04155872
  atomic energy  EATOM  =     24304.10294433
  Solvation  Ediel_sol  =         0.00000000
  ---------------------------------------------------
  free energy    TOTEN  =      1735.24330711 eV

  energy without entropy =     1735.24330711  energy(sigma->0) =     1735.24330711


--------------------------------------------------------------------------------------------------------




--------------------------------------- Iteration      1(   2)  ---------------------------------------


     EDDAV:  cpu time      4.6789: real time      4.7268
 BZINTS: Fermi energy:   12.029150;  156.000000 electrons
         Band energy:-0.131285E+04;  BLOECHL correction:   -0.049569
       DOS:  cpu time      0.1004: real time      0.1011
    --------------------------------------------
      LOOP:  cpu time      4.7792: real time      4.8279

 eigenvalue-minimisations  : 32384
 total energy-change (2. order) :-0.1723892E+04  (-0.1694657E+04)
 number of electron     156.0000000 magnetization       2.8640000
 augmentation part      156.0000000 magnetization       2.8640000

 Free energy of the ion-electron system (eV)
  ---------------------------------------------------
  alpha Z        PSCENC =      1044.11122432
  Ewald energy   TEWEN  =    -17817.44908504
  -Hartree energ DENC   =     -6137.96641793
  -exchange      EXHF   =         0.00000000
  -V(xc)+E(xc)   XCENC  =       655.32182040
  PAW double counting   =     20093.90147872   -20817.82021641
  entropy T*S    EENTRO =         0.00000000
  eigenvalues    EBANDS =     -1312.85004547
  atomic energy  EATOM  =     24304.10294433
  Solvation  Ediel_sol  =         0.00000000
  ---------------------------------------------------
  free energy    TOTEN  =        11.35170292 eV

  energy without entropy =       11.35170292  energy(sigma->0) =       11.35170292


--------------------------------------------------------------------------------------------------------




--------------------------------------- Iteration      1(   3)  ---------------------------------------


     EDDAV:  cpu time      5.9134: real time      5.9649
 BZINTS: Fermi energy:   11.079442;  156.000000 electrons
         Band energy:-0.142645E+04;  BLOECHL correction:   -0.027492
       DOS:  cpu time      0.1001: real time      0.1009
    --------------------------------------------
      LOOP:  cpu time      6.0135: real time      6.0658

 eigenvalue-minimisations  : 41568
 total energy-change (2. order) :-0.1136040E+03  (-0.1123468E+03)
 number of electron     156.0000000 magnetization       2.8640000
 augmentation part      156.0000000 magnetization       2.8640000

 Free energy of the ion-electron system (eV)
  ---------------------------------------------------
  alpha Z        PSCENC =      1044.11122432
  Ewald energy   TEWEN  =    -17817.44908504
  -Hartree energ DENC   =     -6137.96641793
  -exchange      EXHF   =         0.00000000
  -V(xc)+E(xc)   XCENC  =       655.32182040
  PAW double counting   =     20093.90147872   -20817.82021641
  entropy T*S    EENTRO =         0.00000000
  eigenvalues    EBANDS =     -1426.45406521
  atomic energy  EATOM  =     24304.10294433
  Solvation  Ediel_sol  =         0.00000000
  ---------------------------------------------------
  free energy    TOTEN  =      -102.25231682 eV

  energy without entropy =     -102.25231682  energy(sigma->0) =     -102.25231682


--------------------------------------------------------------------------------------------------------




--------------------------------------- Iteration      1(   4)  ---------------------------------------


     EDDAV:  cpu time      4.5923: real time      4.6365
 BZINTS: Fermi energy:   11.067439;  156.000000 electrons
         Band energy:-0.142897E+04;  BLOECHL correction:   -0.027117
       DOS:  cpu time      0.1007: real time      0.1017
    --------------------------------------------
      LOOP:  cpu time      4.6929: real time      4.7382

 eigenvalue-minimisations  : 32672
 total energy-change (2. order) :-0.2515301E+01  (-0.2513657E+01)
 number of electron     156.0000000 magnetization       2.8640000
 augmentation part      156.0000000 magnetization       2.8640000

 Free energy of the ion-electron system (eV)
  ---------------------------------------------------
  alpha Z        PSCENC =      1044.11122432
  Ewald energy   TEWEN  =    -17817.44908504
  -Hartree energ DENC   =     -6137.96641793
  -exchange      EXHF   =         0.00000000
  -V(xc)+E(xc)   XCENC  =       655.32182040
  PAW double counting   =     20093.90147872   -20817.82021641
  entropy T*S    EENTRO =         0.00000000
  eigenvalues    EBANDS =     -1428.96936619
  atomic energy  EATOM  =     24304.10294433
  Solvation  Ediel_sol  =         0.00000000
  ---------------------------------------------------
  free energy    TOTEN  =      -104.76761780 eV

  energy without entropy =     -104.76761780  energy(sigma->0) =     -104.76761780


--------------------------------------------------------------------------------------------------------




--------------------------------------- Iteration      1(   5)  ---------------------------------------


     EDDAV:  cpu time      6.0189: real time      6.0724
 BZINTS: Fermi energy:   11.067235;  156.000000 electrons
         Band energy:-0.142903E+04;  BLOECHL correction:   -0.027131
       DOS:  cpu time      0.0994: real time      0.1001
    CHARGE:  cpu time      0.1616: real time      0.1629
    MIXING:  cpu time      0.0056: real time      0.0057
    --------------------------------------------
      LOOP:  cpu time      6.2855: real time      6.3410

 eigenvalue-minimisations  : 41344
 total energy-change (2. order) :-0.5659971E-01  (-0.5658520E-01)
 number of electron     156.0000096 magnetization       2.8058177
 augmentation part       79.2624912 magnetization       1.9848448

 Broyden mixing:
  rms(total) = 0.36616E+01    rms(broyden)= 0.36608E+01
  rms(prec ) = 0.41859E+01
  weight for this iteration     100.00

 Free energy of the ion-electron system (eV)
  ---------------------------------------------------
  alpha Z        PSCENC =      1044.11122432
  Ewald energy   TEWEN  =    -17817.44908504
  -Hartree energ DENC   =     -6137.96641793
  -exchange      EXHF   =         0.00000000
  -V(xc)+E(xc)   XCENC  =       655.32182040
  PAW double counting   =     20093.90147872   -20817.82021641
  entropy T*S    EENTRO =         0.00000000
  eigenvalues    EBANDS =     -1429.02596589
  atomic energy  EATOM  =     24304.10294433
  Solvation  Ediel_sol  =         0.00000000
  ---------------------------------------------------
  free energy    TOTEN  =      -104.82421751 eV

  energy without entropy =     -104.82421751  energy(sigma->0) =     -104.82421751


--------------------------------------------------------------------------------------------------------




--------------------------------------- Iteration      1(   6)  ---------------------------------------


    POTLOK:  cpu time      0.0342: real time      0.0463
    SETDIJ:  cpu time      0.0083: real time      0.0084
     EDDAV:  cpu time      5.4350: real time      5.4727
 BZINTS: Fermi energy:    8.350497;  156.000000 electrons
         Band energy:-0.187290E+04;  BLOECHL correction:   -0.031397
       DOS:  cpu time      0.1085: real time      0.1092
    CHARGE:  cpu time      0.1553: real time      0.1564
    MIXING:  cpu time      0.0034: real time      0.0035
    --------------------------------------------
      LOOP:  cpu time      5.7447: real time      5.7966

 eigenvalue-minimisations  : 37664
 total energy-change (2. order) :-0.6861799E+01  (-0.2431813E+02)
 number of electron     156.0000122 magnetization       2.7971684
 augmentation part       88.9511837 magnetization       2.3542568

 Broyden mixing:
  rms(total) = 0.68338E+01    rms(broyden)= 0.68336E+01
  rms(prec ) = 0.90842E+01
  weight for this iteration     100.00

 eigenvalues of (default mixing * dielectric matrix)
  average eigenvalue GAMMA=   0.2089
  0.2089

 Free energy of the ion-electron system (eV)
  ---------------------------------------------------
  alpha Z        PSCENC =      1044.11122432
  Ewald energy   TEWEN  =    -17817.44908504
  -Hartree energ DENC   =     -5708.68323727
  -exchange      EXHF   =         0.00000000
  -V(xc)+E(xc)   XCENC  =       637.61105682
  PAW double counting   =     20274.18001517   -20972.65875697
  entropy T*S    EENTRO =         0.00000000
  eigenvalues    EBANDS =     -1872.90017750
  atomic energy  EATOM  =     24304.10294433
  Solvation  Ediel_sol  =         0.00000000
  ---------------------------------------------------
  free energy    TOTEN  =      -111.68601615 eV

  energy without entropy =     -111.68601615  energy(sigma->0) =     -111.68601615


--------------------------------------------------------------------------------------------------------




--------------------------------------- Iteration      1(   7)  ---------------------------------------


    POTLOK:  cpu time      0.0335: real time      0.0462
    SETDIJ:  cpu time      0.0076: real time      0.0077
     EDDAV:  cpu time      6.1806: real time      6.2216
 BZINTS: Fermi energy:    9.197257;  156.000000 electrons
         Band energy:-0.176738E+04;  BLOECHL correction:   -0.020808
       DOS:  cpu time      0.1078: real time      0.1085
    CHARGE:  cpu time      0.3430: real time      0.3448
    MIXING:  cpu time      0.0025: real time      0.0026
    --------------------------------------------
      LOOP:  cpu time      6.6751: real time      6.7312

 eigenvalue-minimisations  : 43584
 total energy-change (2. order) : 0.2436028E+01  (-0.4547759E+02)
 number of electron     156.0000103 magnetization       3.1745460
 augmentation part       85.9884706 magnetization       1.3728840

 Broyden mixing:
  rms(total) = 0.56435E+01    rms(broyden)= 0.56431E+01
  rms(prec ) = 0.77696E+01
  weight for this iteration     100.00

 eigenvalues of (default mixing * dielectric matrix)
  average eigenvalue GAMMA=   0.2942
  0.4497  0.1387

 Free energy of the ion-electron system (eV)
  ---------------------------------------------------
  alpha Z        PSCENC =      1044.11122432
  Ewald energy   TEWEN  =    -17817.44908504
  -Hartree energ DENC   =     -5796.41639471
  -exchange      EXHF   =         0.00000000
  -V(xc)+E(xc)   XCENC  =       639.83998338
  PAW double counting   =     20606.30246774   -21322.36480862
  entropy T*S    EENTRO =         0.00000000
  eigenvalues    EBANDS =     -1767.37631969
  atomic energy  EATOM  =     24304.10294433
  Solvation  Ediel_sol  =         0.00000000
  ---------------------------------------------------
  free energy    TOTEN  =      -109.24998829 eV

  energy without entropy =     -109.24998829  energy(sigma->0) =     -109.24998829


--------------------------------------------------------------------------------------------------------




--------------------------------------- Iteration      1(   8)  ---------------------------------------


    POTLOK:  cpu time      0.0336: real time      0.0456
    SETDIJ:  cpu time      0.0078: real time      0.0079
     EDDAV:  cpu time      6.3374: real time      6.3805
 BZINTS: Fermi energy:    9.598718;  156.000000 electrons
         Band energy:-0.166549E+04;  BLOECHL correction:   -0.020030
       DOS:  cpu time      0.1089: real time      0.1096
    CHARGE:  cpu time      0.1553: real time      0.1561
    MIXING:  cpu time      0.0019: real time      0.0019
    --------------------------------------------
      LOOP:  cpu time      6.6448: real time      6.7016

 eigenvalue-minimisations  : 44288
 total energy-change (2. order) : 0.1443010E+02  (-0.7388278E+01)
 number of electron     156.0000096 magnetization       3.1277598
 augmentation part       83.9682208 magnetization       3.2962465

 Broyden mixing:
  rms(total) = 0.22730E+01    rms(broyden)= 0.22722E+01
  rms(prec ) = 0.32199E+01
  weight for this iteration     100.00

 eigenvalues of (default mixing * dielectric matrix)
  average eigenvalue GAMMA=   0.4615
  0.9259  0.3264  0.1322

 Free energy of the ion-electron system (eV)
  ---------------------------------------------------
  alpha Z        PSCENC =      1044.11122432
  Ewald energy   TEWEN  =    -17817.44908504
  -Hartree energ DENC   =     -5867.04030358
  -exchange      EXHF   =         0.00000000
  -V(xc)+E(xc)   XCENC  =       642.11029406
  PAW double counting   =     21025.16056443   -21760.32309318
  entropy T*S    EENTRO =         0.00000000
  eigenvalues    EBANDS =     -1665.49243467
  atomic energy  EATOM  =     24304.10294433
  Solvation  Ediel_sol  =         0.00000000
  ---------------------------------------------------
  free energy    TOTEN  =       -94.81988935 eV

  energy without entropy =      -94.81988935  energy(sigma->0) =      -94.81988935


--------------------------------------------------------------------------------------------------------




--------------------------------------- Iteration      1(   9)  ---------------------------------------


    POTLOK:  cpu time      0.0459: real time      0.0467
    SETDIJ:  cpu time      0.0080: real time      0.0080
     EDDAV:  cpu time      6.3778: real time      6.4202
 BZINTS: Fermi energy:    9.517354;  156.000000 electrons
         Band energy:-0.169193E+04;  BLOECHL correction:   -0.015004
       DOS:  cpu time      0.1090: real time      0.1097
    CHARGE:  cpu time      0.1558: real time      0.1566
    MIXING:  cpu time      0.0019: real time      0.0020
    --------------------------------------------
      LOOP:  cpu time      6.6984: real time      6.7433

 eigenvalue-minimisations  : 44192
 total energy-change (2. order) :-0.8980521E+01  (-0.1703571E+02)
 number of electron     156.0000115 magnetization       3.4508136
 augmentation part       84.5494146 magnetization       0.5203482

 Broyden mixing:
  rms(total) = 0.50305E+01    rms(broyden)= 0.50300E+01
  rms(prec ) = 0.74365E+01
  weight for this iteration     100.00

 eigenvalues of (default mixing * dielectric matrix)
  average eigenvalue GAMMA=   0.4293
  1.1326  0.3507  0.1352  0.0989

 Free energy of the ion-electron system (eV)
  ---------------------------------------------------
  alpha Z        PSCENC =      1044.11122432
  Ewald energy   TEWEN  =    -17817.44908504
  -Hartree energ DENC   =     -5842.99659114
  -exchange      EXHF   =         0.00000000
  -V(xc)+E(xc)   XCENC  =       641.66374557
  PAW double counting   =     21252.46722899   -21993.77172285
  entropy T*S    EENTRO =         0.00000000
  eigenvalues    EBANDS =     -1691.92815432
  atomic energy  EATOM  =     24304.10294433
  Solvation  Ediel_sol  =         0.00000000
  ---------------------------------------------------
  free energy    TOTEN  =      -103.80041015 eV

  energy without entropy =     -103.80041015  energy(sigma->0) =     -103.80041015


--------------------------------------------------------------------------------------------------------




--------------------------------------- Iteration      1(  10)  ---------------------------------------


    POTLOK:  cpu time      0.0450: real time      0.0459
    SETDIJ:  cpu time      0.0081: real time      0.0081
     EDDAV:  cpu time      6.4739: real time      6.5183
 BZINTS: Fermi energy:    9.186550;  156.000000 electrons
         Band energy:-0.170395E+04;  BLOECHL correction:   -0.018657
       DOS:  cpu time      0.1085: real time      0.1092
    CHARGE:  cpu time      0.1564: real time      0.1576
    MIXING:  cpu time      0.0019: real time      0.0019
    --------------------------------------------
      LOOP:  cpu time      6.7938: real time      6.8411

 eigenvalue-minimisations  : 45504
 total energy-change (2. order) : 0.1092720E+02  (-0.5238001E+01)
 number of electron     156.0000101 magnetization       3.4675178
 augmentation part       84.8238648 magnetization       2.6174744

 Broyden mixing:
  rms(total) = 0.14917E+01    rms(broyden)= 0.14909E+01
  rms(prec ) = 0.18500E+01
  weight for this iteration     100.00

 eigenvalues of (default mixing * dielectric matrix)
  average eigenvalue GAMMA=   0.3762
  1.1193  0.2841  0.2268  0.1341  0.1169

 Free energy of the ion-electron system (eV)
  ---------------------------------------------------
  alpha Z        PSCENC =      1044.11122432
  Ewald energy   TEWEN  =    -17817.44908504
  -Hartree energ DENC   =     -5815.83516850
  -exchange      EXHF   =         0.00000000
  -V(xc)+E(xc)   XCENC  =       640.76403957
  PAW double counting   =     21408.02559322   -22152.64721364
  entropy T*S    EENTRO =         0.00000000
  eigenvalues    EBANDS =     -1703.94554696
  atomic energy  EATOM  =     24304.10294433
  Solvation  Ediel_sol  =         0.00000000
  ---------------------------------------------------
  free energy    TOTEN  =       -92.87321272 eV

  energy without entropy =      -92.87321272  energy(sigma->0) =      -92.87321272


--------------------------------------------------------------------------------------------------------




--------------------------------------- Iteration      1(  11)  ---------------------------------------


    POTLOK:  cpu time      0.0342: real time      0.0461
    SETDIJ:  cpu time      0.0080: real time      0.0080
     EDDAV:  cpu time      6.5524: real time      6.5959
 BZINTS: Fermi energy:    9.211122;  156.000000 electrons
         Band energy:-0.170443E+04;  BLOECHL correction:   -0.020648
       DOS:  cpu time      0.1075: real time      0.1083
    CHARGE:  cpu time      0.1542: real time      0.1554
    MIXING:  cpu time      0.0021: real time      0.0021
    --------------------------------------------
      LOOP:  cpu time      6.8584: real time      6.9158

 eigenvalue-minimisations  : 45120
 total energy-change (2. order) :-0.1549350E+00  (-0.1355311E+01)
 number of electron     156.0000099 magnetization       3.4906364
 augmentation part       84.8055284 magnetization       2.5967556

 Broyden mixing:
  rms(total) = 0.12441E+01    rms(broyden)= 0.12438E+01
  rms(prec ) = 0.17708E+01
  weight for this iteration     100.00

 eigenvalues of (default mixing * dielectric matrix)
  average eigenvalue GAMMA=   0.3482
  1.1073  0.2898  0.2898  0.1485  0.1485  0.1052

 Free energy of the ion-electron system (eV)
  ---------------------------------------------------
  alpha Z        PSCENC =      1044.11122432
  Ewald energy   TEWEN  =    -17817.44908504
  -Hartree energ DENC   =     -5814.45016212
  -exchange      EXHF   =         0.00000000
  -V(xc)+E(xc)   XCENC  =       640.99415916
  PAW double counting   =     21444.89815848   -22190.80950259
  entropy T*S    EENTRO =         0.00000000
  eigenvalues    EBANDS =     -1704.42588422
  atomic energy  EATOM  =     24304.10294433
  Solvation  Ediel_sol  =         0.00000000
  ---------------------------------------------------
  free energy    TOTEN  =       -93.02814769 eV

  energy without entropy =      -93.02814769  energy(sigma->0) =      -93.02814769


--------------------------------------------------------------------------------------------------------




--------------------------------------- Iteration      1(  12)  ---------------------------------------


    POTLOK:  cpu time      0.0450: real time      0.0458
    SETDIJ:  cpu time      0.0083: real time      0.0083
     EDDAV:  cpu time      6.5267: real time      6.5703
 BZINTS: Fermi energy:    9.239483;  156.000000 electrons
         Band energy:-0.170424E+04;  BLOECHL correction:   -0.023132
       DOS:  cpu time      0.1079: real time      0.1086
    CHARGE:  cpu time      0.1573: real time      0.1582
    MIXING:  cpu time      0.0019: real time      0.0020
    --------------------------------------------
      LOOP:  cpu time      6.8472: real time      6.8932

 eigenvalue-minimisations  : 44352
 total energy-change (2. order) :-0.6048858E-01  (-0.6775871E+00)
 number of electron     156.0000098 magnetization       3.5050492
 augmentation part       84.7665602 magnetization       2.7216845

 Broyden mixing:
  rms(total) = 0.95774E+00    rms(broyden)= 0.95764E+00
  rms(prec ) = 0.12946E+01
  weight for this iteration     100.00

 eigenvalues of (default mixing * dielectric matrix)
  average eigenvalue GAMMA=   0.3632
  1.1024  0.3949  0.3949  0.2876  0.1433  0.1181  0.1008

 Free energy of the ion-electron system (eV)
  ---------------------------------------------------
  alpha Z        PSCENC =      1044.11122432
  Ewald energy   TEWEN  =    -17817.44908504
  -Hartree energ DENC   =     -5813.43470217
  -exchange      EXHF   =         0.00000000
  -V(xc)+E(xc)   XCENC  =       641.45045326
  PAW double counting   =     21492.06388417   -22239.69236316
  entropy T*S    EENTRO =         0.00000000
  eigenvalues    EBANDS =     -1704.24099196
  atomic energy  EATOM  =     24304.10294433
  Solvation  Ediel_sol  =         0.00000000
  ---------------------------------------------------
  free energy    TOTEN  =       -93.08863627 eV

  energy without entropy =      -93.08863627  energy(sigma->0) =      -93.08863627


--------------------------------------------------------------------------------------------------------




--------------------------------------- Iteration      1(  13)  ---------------------------------------


    POTLOK:  cpu time      0.0452: real time      0.0461
    SETDIJ:  cpu time      0.0078: real time      0.0081
     EDDAV:  cpu time      6.4134: real time      6.4565
 BZINTS: Fermi energy:    9.247636;  156.000000 electrons
         Band energy:-0.170509E+04;  BLOECHL correction:   -0.025530
       DOS:  cpu time      0.1084: real time      0.1091
    CHARGE:  cpu time      0.1546: real time      0.1555
    MIXING:  cpu time      0.0021: real time      0.0021
    --------------------------------------------
      LOOP:  cpu time      6.7316: real time      6.7774

 eigenvalue-minimisations  : 44800
 total energy-change (2. order) :-0.1155779E-01  (-0.3976476E+00)
 number of electron     156.0000098 magnetization       3.4047182
 augmentation part       84.7590272 magnetization       2.8192903

 Broyden mixing:
  rms(total) = 0.83701E+00    rms(broyden)= 0.83693E+00
  rms(prec ) = 0.10010E+01
  weight for this iteration     100.00

 eigenvalues of (default mixing * dielectric matrix)
  average eigenvalue GAMMA=   0.5157
  1.4874  0.9008  0.9008  0.3550  0.1388  0.1388  0.1018  0.1018

 Free energy of the ion-electron system (eV)
  ---------------------------------------------------
  alpha Z        PSCENC =      1044.11122432
  Ewald energy   TEWEN  =    -17817.44908504
  -Hartree energ DENC   =     -5811.73362673
  -exchange      EXHF   =         0.00000000
  -V(xc)+E(xc)   XCENC  =       641.70484342
  PAW double counting   =     21526.21989001   -22274.96799781
  entropy T*S    EENTRO =         0.00000000
  eigenvalues    EBANDS =     -1705.08838654
  atomic energy  EATOM  =     24304.10294433
  Solvation  Ediel_sol  =         0.00000000
  ---------------------------------------------------
  free energy    TOTEN  =       -93.10019405 eV

  energy without entropy =      -93.10019405  energy(sigma->0) =      -93.10019405


--------------------------------------------------------------------------------------------------------




--------------------------------------- Iteration      1(  14)  ---------------------------------------


    POTLOK:  cpu time      0.0326: real time      0.0457
    SETDIJ:  cpu time      0.0082: real time      0.0082
     EDDAV:  cpu time      6.0673: real time      6.1084
[...]
     81       9.4551      0.00000
     82       9.4703      0.00000
     83       9.7121      0.00000
     84       9.9985      0.00000
     85      10.0466      0.00000
     86      10.1551      0.00000
     87      10.2299      0.00000
     88      10.2552      0.00000
     89      10.6096      0.00000
     90      10.6259      0.00000
     91      10.7130      0.00000
     92      10.8353      0.00000
     93      10.8508      0.00000
     94      11.2878      0.00000
     95      11.3612      0.00000
     96      11.4730      0.00000


--------------------------------------------------------------------------------------------------------


 soft charge-density along one line, spin component           1
         0         1         2         3         4         5         6         7         8         9
 total charge-density along one line
 
 soft charge-density along one line, spin component           2
         0         1         2         3         4         5         6         7         8         9
 total charge-density along one line
 
 pseudopotential strength for first ion, spin component:           1
-43.169  -0.000   0.000   6.849   0.000  -0.000   0.000  -0.000
 -0.000 -43.167  -0.000   0.000   6.848   0.000   0.000   0.000
  0.000  -0.000 -43.104  -0.000   0.000   6.821   0.000   0.000
  6.849   0.000  -0.000   5.860   0.000  -0.000   0.000   0.000
  0.000   6.848   0.000   0.000   5.861   0.000  -0.000  -0.000
 -0.000   0.000   6.821  -0.000   0.000   5.868  -0.000  -0.000
  0.000   0.000   0.000   0.000  -0.000  -0.000  -0.629  -0.000
 -0.000   0.000   0.000   0.000  -0.000  -0.000  -0.000  -0.608
 -0.000  -0.000   0.000   0.000   0.000  -0.000  -0.000  -0.000
  0.000   0.000  -0.000  -0.000  -0.000   0.000  -0.000   0.000
 -0.000   0.000  -0.000   0.000  -0.000   0.000   0.000   0.000
  0.000   0.000   0.000  -0.000  -0.000  -0.000  -1.167  -0.000
 -0.000   0.000   0.000   0.000  -0.000  -0.000  -0.000  -1.145
 -0.000  -0.000   0.000   0.000   0.000  -0.000  -0.000  -0.000
  0.000   0.000  -0.000  -0.000   0.000   0.000  -0.000   0.000
 -0.000   0.000   0.000   0.000  -0.000   0.000   0.000   0.000
 -0.000   0.000   0.000  -0.000   0.000   0.000  -0.000   0.000
 -0.000   0.000   0.000  -0.000   0.000  -0.000  -0.000   0.000
 pseudopotential strength for first ion, spin component:           2
-45.499  -0.000   0.000   7.828   0.000  -0.000  -0.000  -0.000
 -0.000 -45.471  -0.000   0.000   7.816   0.000  -0.000   0.000
  0.000  -0.000 -45.316  -0.000   0.000   7.754   0.000  -0.000
  7.828   0.000  -0.000   5.585   0.000  -0.000   0.000   0.000
  0.000   7.816   0.000   0.000   5.587   0.000   0.000  -0.000
 -0.000   0.000   7.754  -0.000   0.000   5.600  -0.000   0.000
 -0.000  -0.000   0.000   0.000   0.000  -0.000  -2.440  -0.000
 -0.000   0.000  -0.000   0.000  -0.000   0.000  -0.000  -2.610
 -0.000  -0.000   0.000   0.000   0.000  -0.000  -0.000  -0.000
 -0.000  -0.000  -0.000   0.000  -0.000   0.000  -0.000   0.000
 -0.000   0.000  -0.000   0.000  -0.000   0.000   0.000   0.000
 -0.000  -0.000   0.000   0.000   0.000  -0.000  -2.948  -0.000
 -0.000   0.000  -0.000   0.000  -0.000   0.000  -0.000  -3.115
 -0.000  -0.000   0.000   0.000   0.000  -0.000  -0.000  -0.000
 -0.000  -0.000  -0.000   0.000   0.000   0.000  -0.000   0.000
 -0.000   0.000  -0.000   0.000  -0.000   0.000   0.000   0.000
 -0.000   0.000   0.000  -0.000  -0.000   0.000  -0.000   0.000
 -0.000   0.000   0.000  -0.000  -0.000   0.000  -0.000   0.000
 total augmentation occupancy for first ion, spin component:           1
  1.992   0.000   0.000  -0.027   0.000   0.000   0.000  -0.000   0.000   0.000   0.000   0.000   0.000   0.000   0.000  -0.000
  0.000   1.992   0.000   0.000  -0.027   0.000  -0.000   0.000  -0.000   0.000   0.000   0.000   0.000   0.000  -0.000  -0.000
  0.000   0.000   1.992   0.000   0.000  -0.026   0.000   0.000   0.000  -0.000   0.000   0.000   0.000   0.000   0.000   0.000
 -0.027   0.000   0.000   0.161   0.000   0.000   0.000  -0.001   0.000   0.000   0.000  -0.000   0.001   0.000   0.000   0.000
  0.000  -0.027   0.000   0.000   0.164  -0.000   0.000   0.000  -0.000   0.000   0.000   0.000   0.000   0.000   0.000  -0.000
  0.000   0.000  -0.026   0.000  -0.000   0.164   0.000  -0.000   0.000  -0.000   0.000   0.000  -0.000   0.000   0.000   0.000
  0.000  -0.000   0.000   0.000   0.000   0.000   2.784   0.000   0.000  -0.000   0.000  -1.485  -0.000   0.000   0.000   0.000
 -0.000   0.000   0.000  -0.001   0.000  -0.000   0.000   3.006   0.000   0.000   0.000   0.000  -1.942   0.000   0.000  -0.000
  0.000  -0.000   0.000   0.000  -0.000   0.000   0.000   0.000   3.301  -0.000   0.146   0.000  -0.000  -1.843  -0.000  -0.022
  0.000   0.000  -0.000   0.000   0.000  -0.000  -0.000   0.000  -0.000   2.728   0.000  -0.000   0.000   0.000  -1.446  -0.000
  0.000   0.000   0.000   0.000   0.000   0.000   0.000   0.000   0.146   0.000   3.120  -0.000   0.000  -0.023  -0.000  -1.754
  0.000   0.000   0.000  -0.000   0.000   0.000  -1.485   0.000   0.000  -0.000  -0.000   1.592   0.000   0.000   0.000   0.000
  0.000   0.000   0.000   0.001   0.000  -0.000  -0.000  -1.942  -0.000   0.000   0.000   0.000   2.089   0.000   0.000   0.000
  0.000   0.000   0.000   0.000   0.000   0.000   0.000   0.000  -1.843   0.000  -0.023   0.000   0.000   1.686   0.000  -0.053
  0.000  -0.000   0.000   0.000   0.000   0.000   0.000   0.000  -0.000  -1.446  -0.000   0.000   0.000   0.000   1.627  -0.000
 -0.000  -0.000   0.000   0.000  -0.000   0.000   0.000  -0.000  -0.022  -0.000  -1.754   0.000   0.000  -0.053  -0.000   1.666
  0.000   0.000   0.000   0.000   0.000   0.000   0.000   0.000  -0.070   0.000   0.095   0.000   0.000   0.051  -0.000  -0.018
  0.000   0.000   0.000  -0.000  -0.000   0.000   0.000   0.000   0.008  -0.000  -0.015   0.000   0.000  -0.005   0.000   0.006
 total augmentation occupancy for first ion, spin component:           2
  0.002   0.000   0.000   0.009   0.000   0.000   0.000  -0.000   0.000   0.000   0.000   0.000   0.000   0.000   0.000   0.000
  0.000   0.002  -0.000   0.000   0.009   0.000   0.000   0.000  -0.000   0.000   0.000   0.000   0.000   0.000   0.000  -0.000
  0.000  -0.000   0.002   0.000  -0.000   0.010   0.000  -0.000   0.000  -0.000   0.000   0.000   0.000   0.000   0.000   0.000
  0.009   0.000   0.000  -0.003   0.000   0.000   0.000   0.000   0.000   0.000   0.000  -0.000   0.000   0.000   0.000   0.000
  0.000   0.009  -0.000   0.000   0.006  -0.000  -0.000  -0.000   0.000   0.000   0.000   0.000   0.000  -0.000   0.000  -0.000
  0.000   0.000   0.010   0.000  -0.000   0.007   0.000   0.000   0.000   0.000   0.000   0.000   0.000   0.000  -0.000   0.000
  0.000   0.000   0.000   0.000  -0.000   0.000  -2.291   0.000   0.000   0.000   0.000   0.989   0.000  -0.000   0.000  -0.000
 -0.000   0.000  -0.000   0.000  -0.000   0.000   0.000  -2.251   0.000   0.000   0.000   0.000   0.770   0.000   0.000   0.000
  0.000  -0.000   0.000   0.000   0.000   0.000   0.000   0.000  -2.687   0.000  -0.077   0.000   0.000   1.152  -0.000   0.121
  0.000   0.000  -0.000   0.000   0.000   0.000   0.000   0.000   0.000  -2.180   0.000  -0.000   0.000  -0.000   0.940   0.000
  0.000   0.000   0.000   0.000   0.000   0.000   0.000   0.000  -0.077   0.000  -2.567   0.000   0.000   0.121   0.000   1.024
  0.000   0.000   0.000  -0.000   0.000   0.000   0.989   0.000   0.000  -0.000   0.000  -0.226   0.000   0.000   0.000   0.000
  0.000   0.000   0.000   0.000   0.000   0.000   0.000   0.770   0.000   0.000   0.000   0.000   0.004   0.000   0.000   0.000
  0.000   0.000   0.000   0.000  -0.000   0.000  -0.000   0.000   1.152  -0.000   0.121   0.000   0.000  -0.356  -0.000  -0.139
  0.000   0.000   0.000   0.000   0.000  -0.000   0.000   0.000  -0.000   0.940   0.000   0.000   0.000  -0.000  -0.170  -0.000
  0.000  -0.000   0.000   0.000  -0.000   0.000  -0.000   0.000   0.121   0.000   1.024   0.000   0.000  -0.139  -0.000  -0.221
  0.000   0.000   0.000   0.000   0.000   0.000   0.000   0.000  -0.002   0.000  -0.043   0.000   0.000  -0.002  -0.000   0.066
  0.000   0.000   0.000  -0.000  -0.000   0.000   0.000   0.000  -0.004  -0.000   0.011   0.000   0.000   0.001   0.000  -0.004


------------------------ aborting loop because EDIFF is reached ----------------------------------------





 total charge

# of ion       s       p       d       tot
------------------------------------------
    1        0.340   6.302   6.023  12.664
    2        0.336   6.299   5.992  12.627
    3        0.335   6.298   5.992  12.626
    4        0.342   6.306   5.986  12.633
    5        0.342   6.306   5.987  12.635
    6        0.338   6.304   5.986  12.629
    7        0.340   6.302   6.023  12.664
    8        0.336   6.299   5.992  12.627
    9        0.335   6.298   5.992  12.626
   10        0.750   0.632   8.016   9.398
   11        0.750   0.633   8.016   9.400
   12        0.735   0.656   8.011   9.402
--------------------------------------------------
tot          5.278  58.635  78.017 141.930



 magnetization (x)

# of ion       s       p       d       tot
------------------------------------------
    1       -0.007   0.009  -2.683  -2.680
    2        0.011   0.002   2.667   2.681
    3        0.011   0.002   2.669   2.683
    4       -0.016  -0.026  -2.677  -2.719
    5       -0.016  -0.026  -2.674  -2.715
    6        0.005  -0.017   2.869   2.858
    7       -0.007   0.009  -2.683  -2.680
    8        0.011   0.002   2.667   2.681
    9        0.011   0.002   2.669   2.683
   10        0.008   0.019  -0.108  -0.082
   11        0.008   0.019  -0.108  -0.081
   12       -0.039  -0.091   0.374   0.245
--------------------------------------------------
tot         -0.017  -0.093   2.983   2.873
 
    CHARGE:  cpu time      0.1546: real time      0.1557
    FORLOC:  cpu time      0.0010: real time      0.0010
    FORNL :  cpu time      0.5691: real time      0.5718
    STRESS:  cpu time      4.4589: real time      4.4961
    FORCOR:  cpu time      0.0220: real time      0.0222
    FORHAR:  cpu time      0.0026: real time      0.0027
    MIXING:  cpu time      0.0027: real time      0.0027
    OFIELD:  cpu time      0.0014: real time      0.0016

  FORCE on cell =-STRESS in cart. coord.  units (eV):
  Direction    XX          YY          ZZ          XY          YZ          ZX
  --------------------------------------------------------------------------------------
  Alpha Z  1044.11122  1044.11122  1044.11122
  Ewald   -5923.67685 -5923.67685 -5970.12142     0.00000     0.00000     0.00000
  Hartree  1944.00556  1944.00556  1900.89517    -0.00000    -0.00000    -0.00000
  E(xc)    -942.43821  -942.43821  -942.36487    -0.00000     0.00000    -0.00000
  Local     962.19466   962.19466  1061.92893     0.00000     0.00000     0.00000
  n-local  -221.96725  -236.63266  -229.86282    13.83103     0.02192    -0.01523
  augment  1442.20938  1442.20938  1436.05045     0.00000     0.00000     0.00000
  Kinetic  1701.04509  1686.85455  1690.63181     2.06634     0.26895     0.51108
  Fock        0.00000     0.00000     0.00000     0.00000     0.00000     0.00000
  -------------------------------------------------------------------------------------
  Total      -8.94437    -8.94437    -8.73152     0.00000     0.00000     0.00000
  in kB     -87.91698   -87.91698   -85.82483     0.00000     0.00000     0.00000
  external pressure =      -87.22 kB  Pullay stress =        0.00 kB


 VOLUME and BASIS-vectors are now :
 -----------------------------------------------------------------------------
  energy-cutoff  :      520.00
  volume of cell :      163.00
      direct lattice vectors                 reciprocal lattice vectors
     3.763209625  0.000000000  0.000000000     0.265730613  0.000000000  0.000000000
     0.000000000  3.763209625  0.000000000     0.000000000  0.265730613  0.000000000
     0.000000000  0.000000000 11.509879655     0.000000000  0.000000000  0.086881881

  length of vectors
     3.763209625  3.763209625 11.509879655     0.265730613  0.265730613  0.086881881


 FORCES acting on ions
    electron-ion (+dipol)            ewald-force                    non-local-force                 convergence-correction
 -----------------------------------------------------------------------------------------------
   -.749E-13 0.115E-11 0.289E+01   0.276E-14 -.658E-14 -.292E+01   0.708E-21 0.199E-20 -.653E-02   0.219E-13 0.258E-13 0.221E-01
   -.743E-13 0.201E-11 -.138E+02   -.362E-14 -.497E-15 0.150E+02   -.555E-19 -.151E-17 -.118E+01   0.470E-14 0.108E-14 -.349E-01
   -.631E-13 -.216E-12 0.107E+02   0.263E-13 0.145E-13 -.119E+02   0.151E-18 0.211E-17 0.119E+01   -.223E-13 0.176E-13 0.138E-01
   0.107E-11 0.686E-11 0.131E+03   -.326E-13 0.344E-15 -.128E+03   0.228E-18 -.648E-18 -.229E+01   -.310E-12 0.647E-13 0.403E-01
   0.114E-11 -.292E-11 -.128E+03   0.583E-13 0.147E-13 0.126E+03   -.213E-18 0.689E-18 0.229E+01   -.216E-12 -.560E-13 -.228E-01
   0.113E-11 -.488E-11 -.242E+01   0.432E-13 0.371E-13 0.243E+01   0.665E-22 -.678E-21 0.383E-02   -.238E-12 -.222E-13 -.161E-01
   0.115E-11 -.606E-13 0.289E+01   -.597E-13 -.442E-14 -.292E+01   0.213E-20 -.236E-21 -.653E-02   -.267E-12 0.664E-14 0.221E-01
   0.115E-11 -.428E-12 -.138E+02   -.350E-13 -.182E-13 0.150E+02   -.974E-18 0.583E-18 -.118E+01   -.265E-12 -.224E-14 -.349E-01
   0.115E-11 0.175E-13 0.107E+02   -.369E-13 0.461E-13 -.119E+02   -.569E-18 -.719E-19 0.119E+01   -.236E-12 0.245E-13 0.138E-01
   -.455E-13 -.533E-13 0.357E+02   0.290E-13 0.318E-14 -.361E+02   0.694E-18 -.566E-19 0.310E+00   0.486E-13 -.104E-14 0.289E-01
   -.531E-13 -.111E-12 -.342E+02   -.160E-13 0.113E-14 0.346E+02   -.251E-18 -.997E-18 -.310E+00   0.579E-13 0.375E-14 -.182E-01
   -.512E-13 -.229E-13 -.147E+01   -.401E-13 -.315E-13 0.148E+01   0.177E-21 -.118E-20 -.119E-02   0.517E-13 0.861E-14 -.115E-01
 -----------------------------------------------------------------------------------------------
   0.642E-11 0.135E-11 -.352E-02   -.644E-13 0.559E-13 -.519E-12   -.986E-18 0.958E-19 0.692E-03   -.137E-11 0.713E-13 0.252E-02
 
 
 POSITION                                       TOTAL-FORCE (eV/Angst)
 -----------------------------------------------------------------------------------
      0.00000      1.88160      1.91963        -0.000000     -0.000000     -0.006833
      0.00000      1.88160      5.75102        -0.000000      0.000000     -0.004005
      0.00000      1.88160      9.59410        -0.000000      0.000000      0.011305
      1.88160      1.88160      0.10340         0.000000     -0.000000      0.013834
      1.88160      1.88160      3.73458        -0.000000      0.000000     -0.013913
      1.88160      1.88160      7.67201        -0.000000      0.000000      0.001126
      1.88160      0.00000      1.91963         0.000000      0.000000     -0.006833
      1.88160      0.00000      5.75102         0.000000      0.000000     -0.004005
      1.88160      0.00000      9.59410        -0.000000      0.000000      0.011305
      0.00000      0.00000     11.47619        -0.000000      0.000000     -0.028046
      0.00000      0.00000      3.87097        -0.000000      0.000000      0.026109
      0.00000      0.00000      7.67263        -0.000000      0.000000     -0.000043
 -----------------------------------------------------------------------------------
    total drift:                                0.000000      0.000000     -0.000305


--------------------------------------------------------------------------------------------------------



  FREE ENERGIE OF THE ION-ELECTRON SYSTEM (eV)
  ---------------------------------------------------
  free  energy   TOTEN  =       -93.14590564 eV

  energy  without entropy=      -93.14590564  energy(sigma->0) =      -93.14590564
 


--------------------------------------------------------------------------------------------------------


    POTLOK:  cpu time      0.0383: real time      0.0386


--------------------------------------------------------------------------------------------------------


     LOOP+:  cpu time    170.5476: real time    172.6777
 -----------------------------------------------------------------------------
|                                                                             |
|           W    W    AA    RRRRR   N    N  II  N    N   GGGG   !!!           |
|           W    W   A  A   R    R  NN   N  II  NN   N  G    G  !!!           |
|           W    W  A    A  R    R  N N  N  II  N N  N  G       !!!           |
|           W WW W  AAAAAA  RRRRR   N  N N  II  N  N N  G  GGG   !            |
|           WW  WW  A    A  R   R   N   NN  II  N   NN  G    G                |
|           W    W  A    A  R    R  N    N  II  N    N   GGGG   !!!           |
|                                                                             |
|     Tetrahedron method does not include variations of the Fermi             |
|     occupations, so forces and stress will be inaccurate. We suggest        |
|     using a different smearing scheme ISMEAR = 1 or 2 for metals in         |
|     relaxations.                                                            |
|                                                                             |
 -----------------------------------------------------------------------------

    4ORBIT:  cpu time      0.0000: real time      0.0000



 total charge

# of ion       s       p       d       tot
------------------------------------------
    1        0.340   6.302   6.023  12.664
    2        0.336   6.299   5.992  12.627
    3        0.335   6.298   5.992  12.626
    4        0.342   6.306   5.986  12.633
    5        0.342   6.306   5.987  12.635
    6        0.338   6.304   5.986  12.629
    7        0.340   6.302   6.023  12.664
    8        0.336   6.299   5.992  12.627
    9        0.335   6.298   5.992  12.626
   10        0.750   0.632   8.016   9.398
   11        0.750   0.633   8.016   9.400
   12        0.735   0.656   8.011   9.402
--------------------------------------------------
tot          5.278  58.635  78.017 141.930



 magnetization (x)

# of ion       s       p       d       tot
------------------------------------------
    1       -0.007   0.009  -2.683  -2.680
    2        0.011   0.002   2.667   2.681
    3        0.011   0.002   2.669   2.683
    4       -0.016  -0.026  -2.677  -2.719
    5       -0.016  -0.026  -2.674  -2.715
    6        0.005  -0.017   2.869   2.858
    7       -0.007   0.009  -2.683  -2.680
    8        0.011   0.002   2.667   2.681
    9        0.011   0.002   2.669   2.683
   10        0.008   0.019  -0.108  -0.082
   11        0.008   0.019  -0.108  -0.081
   12       -0.039  -0.091   0.374   0.245
--------------------------------------------------
tot         -0.017  -0.093   2.983   2.873
 
 BZINTS: Fermi energy:    9.267249;  156.000000 electrons
         Band energy:-0.171810E+04;  BLOECHL correction:   -0.025150

 total amount of memory used by VASP MPI-rank0   184760. kBytes
=======================================================================

   base      :      30000. kBytes
   nonl-proj :     108460. kBytes
   fftplans  :        955. kBytes
   grid      :       7297. kBytes
   one-center:        373. kBytes
   wavefun   :      37675. kBytes
 
  
  
 General timing and accounting informations for this job:
 ========================================================
  
                  Total CPU time used (sec):      199.255
                            User time (sec):      189.659
                          System time (sec):        9.595
                         Elapsed time (sec):      209.264
  
                   Maximum memory used (kb):      865908.
                   Average memory used (kb):          N/A
  
                          Minor page faults:       205339
                          Major page faults:          716
                 Voluntary context switches:         8949
