  16  16   1   0
  0.1731250E+02  0.7197510E-09  0.7197510E-09  0.5403745E-09  0.5000000E-15
  1.000000000000000E-004
  CAR 
 unknown system                          
     12.62136385    -52.58816122  301      4.95635503      1.00000000
    -52.588  0.0000E+00  0.0000E+00  0.0000E+00  0.0000E+00
    -52.371  0.0000E+00  0.0000E+00  0.0000E+00  0.0000E+00
    -52.153  0.0000E+00  0.0000E+00  0.0000E+00  0.0000E+00
    -51.936  0.0000E+00  0.0000E+00  0.0000E+00  0.0000E+00
    -51.719  0.0000E+00  0.0000E+00  0.0000E+00  0.0000E+00
    -51.501  0.0000E+00  0.0000E+00  0.0000E+00  0.0000E+00
    -51.284  0.0000E+00  0.0000E+00  0.0000E+00  0.0000E+00
    -51.067  0.0000E+00  0.0000E+00  0.0000E+00  0.0000E+00
    -50.849  0.0000E+00  0.0000E+00  0.0000E+00  0.0000E+00
    -50.632  0.0000E+00  0.0000E+00  0.0000E+00  0.0000E+00
    -50.415  0.0000E+00  0.0000E+00  0.0000E+00  0.0000E+00
    -50.197  0.0000E+00  0.0000E+00  0.0000E+00  0.0000E+00
    -49.980  0.0000E+00  0.0000E+00  0.0000E+00  0.0000E+00
    -49.762  0.2639E-05  0.2639E-05  0.5735E-06  0.5735E-06
    -49.545  0.2252E+00  0.2252E+00  0.4894E-01  0.4894E-01
    -49.328  0.2580E+00  0.2580E+00  0.1050E+00  0.1050E+00
    -49.110  0.7384E-01  0.7384E-01  0.1211E+00  0.1211E+00
    -48.893  0.6883E-03  0.6883E-03  0.1212E+00  0.1212E+00
    -48.676  0.0000E+00  0.0000E+00  0.1212E+00  0.1212E+00
    -48.458  0.0000E+00  0.0000E+00  0.1212E+00  0.1212E+00
    -48.241  0.0000E+00  0.0000E+00  0.1212E+00  0.1212E+00
    -48.023  0.0000E+00  0.0000E+00  0.1212E+00  0.1212E+00
    -47.806  0.0000E+00  0.0000E+00  0.1212E+00  0.1212E+00
    -47.589  0.0000E+00  0.0000E+00  0.1212E+00  0.1212E+00
    -47.371  0.3685E-18  0.3685E-18  0.1212E+00  0.1212E+00
    -47.154  0.1434E-02  0.1434E-02  0.1215E+00  0.1215E+00
    -46.937  0.2524E+00  0.2524E+00  0.1764E+00  0.1764E+00
    -46.719  0.1066E+00  0.1066E+00  0.1996E+00  0.1996E+00
    -46.502  0.1972E+00  0.1972E+00  0.2424E+00  0.2424E+00
    -46.285  0.4284E-04  0.4284E-04  0.2424E+00  0.2424E+00
    -46.067  0.0000E+00  0.0000E+00  0.2424E+00  0.2424E+00
    -45.850  0.0000E+00  0.0000E+00  0.2424E+00  0.2424E+00
    -45.632  0.0000E+00  0.0000E+00  0.2424E+00  0.2424E+00
    -45.415  0.0000E+00  0.0000E+00  0.2424E+00  0.2424E+00
    -45.198  0.0000E+00  0.0000E+00  0.2424E+00  0.2424E+00
    -44.980  0.0000E+00  0.0000E+00  0.2424E+00  0.2424E+00
    -44.763  0.0000E+00  0.0000E+00  0.2424E+00  0.2424E+00
    -44.546  0.0000E+00  0.0000E+00  0.2424E+00  0.2424E+00
    -44.328  0.0000E+00  0.0000E+00  0.2424E+00  0.2424E+00
    -44.111  0.0000E+00  0.0000E+00  0.2424E+00  0.2424E+00
    -43.894  0.0000E+00  0.0000E+00  0.2424E+00  0.2424E+00
    -43.676  0.0000E+00  0.0000E+00  0.2424E+00  0.2424E+00
    -43.459  0.0000E+00  0.0000E+00  0.2424E+00  0.2424E+00
    -43.241  0.0000E+00  0.0000E+00  0.2424E+00  0.2424E+00
    -43.024  0.0000E+00  0.0000E+00  0.2424E+00  0.2424E+00
    -42.807  0.0000E+00  0.0000E+00  0.2424E+00  0.2424E+00
    -42.589  0.0000E+00  0.0000E+00  0.2424E+00  0.2424E+00
    -42.372  0.0000E+00  0.0000E+00  0.2424E+00  0.2424E+00
    -42.155  0.0000E+00  0.0000E+00  0.2424E+00  0.2424E+00
    -41.937  0.0000E+00  0.0000E+00  0.2424E+00  0.2424E+00
    -41.720  0.0000E+00  0.0000E+00  0.2424E+00  0.2424E+00
    -41.503  0.0000E+00  0.0000E+00  0.2424E+00  0.2424E+00
    -41.285  0.0000E+00  0.0000E+00  0.2424E+00  0.2424E+00
    -41.068  0.0000E+00  0.0000E+00  0.2424E+00  0.2424E+00
    -40.850  0.0000E+00  0.0000E+00  0.2424E+00  0.2424E+00
    -40.633  0.0000E+00  0.0000E+00  0.2424E+00  0.2424E+00
    -40.416  0.0000E+00  0.0000E+00  0.2424E+00  0.2424E+00
    -40.198  0.0000E+00  0.0000E+00  0.2424E+00  0.2424E+00
    -39.981  0.0000E+00  0.0000E+00  0.2424E+00  0.2424E+00
    -39.764  0.0000E+00  0.0000E+00  0.2424E+00  0.2424E+00
    -39.546  0.0000E+00  0.0000E+00  0.2424E+00  0.2424E+00
    -39.329  0.0000E+00  0.0000E+00  0.2424E+00  0.2424E+00
    -39.112  0.0000E+00  0.0000E+00  0.2424E+00  0.2424E+00
    -38.894  0.0000E+00  0.0000E+00  0.2424E+00  0.2424E+00
    -38.677  0.0000E+00  0.0000E+00  0.2424E+00  0.2424E+00
    -38.459  0.0000E+00  0.0000E+00  0.2424E+00  0.2424E+00
    -38.242  0.0000E+00  0.0000E+00  0.2424E+00  0.2424E+00
    -38.025  0.0000E+00  0.0000E+00  0.2424E+00  0.2424E+00
    -37.807  0.0000E+00  0.0000E+00  0.2424E+00  0.2424E+00
    -37.590  0.0000E+00  0.0000E+00  0.2424E+00  0.2424E+00
    -37.373  0.0000E+00  0.0000E+00  0.2424E+00  0.2424E+00
    -37.155  0.0000E+00  0.0000E+00  0.2424E+00  0.2424E+00
    -36.938  0.0000E+00  0.0000E+00  0.2424E+00  0.2424E+00
    -36.721  0.0000E+00  0.0000E+00  0.2424E+00  0.2424E+00
    -36.503  0.0000E+00  0.0000E+00  0.2424E+00  0.2424E+00
    -36.286  0.0000E+00  0.0000E+00  0.2424E+00  0.2424E+00
    -36.068  0.0000E+00  0.0000E+00  0.2424E+00  0.2424E+00
    -35.851  0.0000E+00  0.0000E+00  0.2424E+00  0.2424E+00
    -35.634  0.0000E+00  0.0000E+00  0.2424E+00  0.2424E+00
    -35.416  0.0000E+00  0.0000E+00  0.2424E+00  0.2424E+00
    -35.199  0.0000E+00  0.0000E+00  0.2424E+00  0.2424E+00
    -34.982  0.0000E+00  0.0000E+00  0.2424E+00  0.2424E+00
    -34.764  0.0000E+00  0.0000E+00  0.2424E+00  0.2424E+00
    -34.547  0.0000E+00  0.0000E+00  0.2424E+00  0.2424E+00
    -34.329  0.0000E+00  0.0000E+00  0.2424E+00  0.2424E+00
    -34.112  0.0000E+00  0.0000E+00  0.2424E+00  0.2424E+00
    -33.895  0.0000E+00  0.0000E+00  0.2424E+00  0.2424E+00
    -33.677  0.0000E+00  0.0000E+00  0.2424E+00  0.2424E+00
    -33.460  0.0000E+00  0.0000E+00  0.2424E+00  0.2424E+00
    -33.243  0.0000E+00  0.0000E+00  0.2424E+00  0.2424E+00
    -33.025  0.0000E+00  0.0000E+00  0.2424E+00  0.2424E+00
    -32.808  0.0000E+00  0.0000E+00  0.2424E+00  0.2424E+00
    -32.591  0.0000E+00  0.0000E+00  0.2424E+00  0.2424E+00
    -32.373  0.0000E+00  0.0000E+00  0.2424E+00  0.2424E+00
    -32.156  0.0000E+00  0.0000E+00  0.2424E+00  0.2424E+00
    -31.938  0.0000E+00  0.0000E+00  0.2424E+00  0.2424E+00
    -31.721  0.0000E+00  0.0000E+00  0.2424E+00  0.2424E+00
    -31.504  0.0000E+00  0.0000E+00  0.2424E+00  0.2424E+00
    -31.286  0.0000E+00  0.0000E+00  0.2424E+00  0.2424E+00
    -31.069  0.0000E+00  0.0000E+00  0.2424E+00  0.2424E+00
    -30.852  0.0000E+00  0.0000E+00  0.2424E+00  0.2424E+00
    -30.634  0.0000E+00  0.0000E+00  0.2424E+00  0.2424E+00
    -30.417  0.0000E+00  0.0000E+00  0.2424E+00  0.2424E+00
    -30.200  0.0000E+00  0.0000E+00  0.2424E+00  0.2424E+00
    -29.982  0.0000E+00  0.0000E+00  0.2424E+00  0.2424E+00
    -29.765  0.0000E+00  0.0000E+00  0.2424E+00  0.2424E+00
    -29.547  0.0000E+00  0.0000E+00  0.2424E+00  0.2424E+00
    -29.330  0.0000E+00  0.0000E+00  0.2424E+00  0.2424E+00
    -29.113  0.0000E+00  0.0000E+00  0.2424E+00  0.2424E+00
    -28.895  0.0000E+00  0.0000E+00  0.2424E+00  0.2424E+00
    -28.678  0.0000E+00  0.0000E+00  0.2424E+00  0.2424E+00
    -28.461  0.0000E+00  0.0000E+00  0.2424E+00  0.2424E+00
    -28.243  0.0000E+00  0.0000E+00  0.2424E+00  0.2424E+00
    -28.026  0.0000E+00  0.0000E+00  0.2424E+00  0.2424E+00
    -27.809  0.0000E+00  0.0000E+00  0.2424E+00  0.2424E+00
    -27.591  0.0000E+00  0.0000E+00  0.2424E+00  0.2424E+00
    -27.374  0.0000E+00  0.0000E+00  0.2424E+00  0.2424E+00
    -27.156  0.0000E+00  0.0000E+00  0.2424E+00  0.2424E+00
    -26.939  0.0000E+00  0.0000E+00  0.2424E+00  0.2424E+00
    -26.722  0.0000E+00  0.0000E+00  0.2424E+00  0.2424E+00
    -26.504  0.0000E+00  0.0000E+00  0.2424E+00  0.2424E+00
    -26.287  0.0000E+00  0.0000E+00  0.2424E+00  0.2424E+00
    -26.070  0.0000E+00  0.0000E+00  0.2424E+00  0.2424E+00
    -25.852  0.0000E+00  0.0000E+00  0.2424E+00  0.2424E+00
    -25.635  0.0000E+00  0.0000E+00  0.2424E+00  0.2424E+00
    -25.418  0.0000E+00  0.0000E+00  0.2424E+00  0.2424E+00
    -25.200  0.0000E+00  0.0000E+00  0.2424E+00  0.2424E+00
    -24.983  0.0000E+00  0.0000E+00  0.2424E+00  0.2424E+00
    -24.765  0.0000E+00  0.0000E+00  0.2424E+00  0.2424E+00
    -24.548  0.0000E+00  0.0000E+00  0.2424E+00  0.2424E+00
    -24.331  0.0000E+00  0.0000E+00  0.2424E+00  0.2424E+00
    -24.113  0.0000E+00  0.0000E+00  0.2424E+00  0.2424E+00
    -23.896  0.0000E+00  0.0000E+00  0.2424E+00  0.2424E+00
    -23.679  0.0000E+00  0.0000E+00  0.2424E+00  0.2424E+00
    -23.461  0.0000E+00  0.0000E+00  0.2424E+00  0.2424E+00
    -23.244  0.0000E+00  0.0000E+00  0.2424E+00  0.2424E+00
    -23.027  0.0000E+00  0.0000E+00  0.2424E+00  0.2424E+00
    -22.809  0.0000E+00  0.0000E+00  0.2424E+00  0.2424E+00
    -22.592  0.0000E+00  0.0000E+00  0.2424E+00  0.2424E+00
    -22.374  0.0000E+00  0.0000E+00  0.2424E+00  0.2424E+00
    -22.157  0.0000E+00  0.0000E+00  0.2424E+00  0.2424E+00
    -21.940  0.0000E+00  0.0000E+00  0.2424E+00  0.2424E+00
    -21.722  0.0000E+00  0.0000E+00  0.2424E+00  0.2424E+00
    -21.505  0.0000E+00  0.0000E+00  0.2424E+00  0.2424E+00
    -21.288  0.0000E+00  0.0000E+00  0.2424E+00  0.2424E+00
    -21.070  0.0000E+00  0.0000E+00  0.2424E+00  0.2424E+00
    -20.853  0.0000E+00  0.0000E+00  0.2424E+00  0.2424E+00
    -20.635  0.0000E+00  0.0000E+00  0.2424E+00  0.2424E+00
    -20.418  0.0000E+00  0.0000E+00  0.2424E+00  0.2424E+00
    -20.201  0.0000E+00  0.0000E+00  0.2424E+00  0.2424E+00
    -19.983  0.0000E+00  0.0000E+00  0.2424E+00  0.2424E+00
    -19.766  0.0000E+00  0.0000E+00  0.2424E+00  0.2424E+00
    -19.549  0.0000E+00  0.0000E+00  0.2424E+00  0.2424E+00
    -19.331  0.0000E+00  0.0000E+00  0.2424E+00  0.2424E+00
    -19.114  0.0000E+00  0.0000E+00  0.2424E+00  0.2424E+00
    -18.897  0.0000E+00  0.0000E+00  0.2424E+00  0.2424E+00
    -18.679  0.0000E+00  0.0000E+00  0.2424E+00  0.2424E+00
    -18.462  0.0000E+00  0.0000E+00  0.2424E+00  0.2424E+00
    -18.244  0.0000E+00  0.0000E+00  0.2424E+00  0.2424E+00
    -18.027  0.0000E+00  0.0000E+00  0.2424E+00  0.2424E+00
    -17.810  0.0000E+00  0.0000E+00  0.2424E+00  0.2424E+00
    -17.592  0.0000E+00  0.0000E+00  0.2424E+00  0.2424E+00
    -17.375  0.0000E+00  0.0000E+00  0.2424E+00  0.2424E+00
    -17.158  0.0000E+00  0.0000E+00  0.2424E+00  0.2424E+00
    -16.940  0.0000E+00  0.0000E+00  0.2424E+00  0.2424E+00
    -16.723  0.0000E+00  0.0000E+00  0.2424E+00  0.2424E+00
    -16.506  0.0000E+00  0.0000E+00  0.2424E+00  0.2424E+00
    -16.288  0.0000E+00  0.0000E+00  0.2424E+00  0.2424E+00
    -16.071  0.0000E+00  0.0000E+00  0.2424E+00  0.2424E+00
    -15.853  0.0000E+00  0.0000E+00  0.2424E+00  0.2424E+00
    -15.636  0.0000E+00  0.0000E+00  0.2424E+00  0.2424E+00
    -15.419  0.0000E+00  0.0000E+00  0.2424E+00  0.2424E+00
    -15.201  0.0000E+00  0.0000E+00  0.2424E+00  0.2424E+00
    -14.984  0.0000E+00  0.0000E+00  0.2424E+00  0.2424E+00
    -14.767  0.0000E+00  0.0000E+00  0.2424E+00  0.2424E+00
    -14.549  0.0000E+00  0.0000E+00  0.2424E+00  0.2424E+00
    -14.332  0.0000E+00  0.0000E+00  0.2424E+00  0.2424E+00
    -14.115  0.0000E+00  0.0000E+00  0.2424E+00  0.2424E+00
    -13.897  0.0000E+00  0.0000E+00  0.2424E+00  0.2424E+00
    -13.680  0.0000E+00  0.0000E+00  0.2424E+00  0.2424E+00
    -13.462  0.0000E+00  0.0000E+00  0.2424E+00  0.2424E+00
    -13.245  0.0000E+00  0.0000E+00  0.2424E+00  0.2424E+00
    -13.028  0.0000E+00  0.0000E+00  0.2424E+00  0.2424E+00
    -12.810  0.0000E+00  0.0000E+00  0.2424E+00  0.2424E+00
    -12.593  0.0000E+00  0.0000E+00  0.2424E+00  0.2424E+00
    -12.376  0.0000E+00  0.0000E+00  0.2424E+00  0.2424E+00
    -12.158  0.0000E+00  0.0000E+00  0.2424E+00  0.2424E+00
    -11.941  0.0000E+00  0.0000E+00  0.2424E+00  0.2424E+00
    -11.724  0.0000E+00  0.0000E+00  0.2424E+00  0.2424E+00
    -11.506  0.0000E+00  0.0000E+00  0.2424E+00  0.2424E+00
    -11.289  0.0000E+00  0.0000E+00  0.2424E+00  0.2424E+00
    -11.071  0.0000E+00  0.0000E+00  0.2424E+00  0.2424E+00
    -10.854  0.0000E+00  0.0000E+00  0.2424E+00  0.2424E+00
    -10.637  0.0000E+00  0.0000E+00  0.2424E+00  0.2424E+00
    -10.419  0.1967E-14  0.1967E-14  0.2424E+00  0.2424E+00
    -10.202  0.7568E-04  0.7568E-04  0.2424E+00  0.2424E+00
     -9.985  0.5520E-02  0.5520E-02  0.2436E+00  0.2436E+00
     -9.767  0.1250E-01  0.1250E-01  0.2464E+00  0.2464E+00
     -9.550  0.1838E-01  0.1838E-01  0.2504E+00  0.2504E+00
     -9.333  0.2010E-01  0.2010E-01  0.2547E+00  0.2547E+00
     -9.115  0.2272E-01  0.2272E-01  0.2597E+00  0.2597E+00
     -8.898  0.2371E-01  0.2371E-01  0.2648E+00  0.2648E+00
     -8.680  0.2865E-01  0.2865E-01  0.2710E+00  0.2710E+00
     -8.463  0.4508E-01  0.4508E-01  0.2808E+00  0.2808E+00
     -8.246  0.5381E-01  0.5381E-01  0.2925E+00  0.2925E+00
     -8.028  0.5540E-01  0.5540E-01  0.3046E+00  0.3046E+00
     -7.811  0.5323E-01  0.5323E-01  0.3161E+00  0.3161E+00
     -7.594  0.3111E-01  0.3111E-01  0.3229E+00  0.3229E+00
     -7.376  0.1475E-02  0.1475E-02  0.3232E+00  0.3232E+00
     -7.159  0.6089E-10  0.6089E-10  0.3232E+00  0.3232E+00
     -6.941  0.0000E+00  0.0000E+00  0.3232E+00  0.3232E+00
     -6.724  0.0000E+00  0.0000E+00  0.3232E+00  0.3232E+00
     -6.507  0.0000E+00  0.0000E+00  0.3232E+00  0.3232E+00
     -6.289  0.0000E+00  0.0000E+00  0.3232E+00  0.3232E+00
     -6.072  0.0000E+00  0.0000E+00  0.3232E+00  0.3232E+00
     -5.855  0.0000E+00  0.0000E+00  0.3232E+00  0.3232E+00
     -5.637  0.0000E+00  0.0000E+00  0.3232E+00  0.3232E+00
     -5.420  0.0000E+00  0.0000E+00  0.3232E+00  0.3232E+00
     -5.203  0.0000E+00  0.0000E+00  0.3232E+00  0.3232E+00
     -4.985  0.0000E+00  0.0000E+00  0.3232E+00  0.3232E+00
     -4.768  0.0000E+00  0.0000E+00  0.3232E+00  0.3232E+00
     -4.550  0.0000E+00  0.0000E+00  0.3232E+00  0.3232E+00
     -4.333  0.0000E+00  0.0000E+00  0.3232E+00  0.3232E+00
     -4.116  0.0000E+00  0.0000E+00  0.3232E+00  0.3232E+00
     -3.898  0.0000E+00  0.0000E+00  0.3232E+00  0.3232E+00
     -3.681  0.0000E+00  0.0000E+00  0.3232E+00  0.3232E+00
     -3.464  0.0000E+00  0.0000E+00  0.3232E+00  0.3232E+00
     -3.246  0.0000E+00  0.0000E+00  0.3232E+00  0.3232E+00
     -3.029  0.0000E+00  0.0000E+00  0.3232E+00  0.3232E+00
     -2.812  0.0000E+00  0.0000E+00  0.3232E+00  0.3232E+00
     -2.594  0.0000E+00  0.0000E+00  0.3232E+00  0.3232E+00
     -2.377  0.0000E+00  0.0000E+00  0.3232E+00  0.3232E+00
     -2.159  0.0000E+00  0.0000E+00  0.3232E+00  0.3232E+00
     -1.942  0.9418E-18  0.9418E-18  0.3232E+00  0.3232E+00
     -1.725  0.7492E-05  0.7492E-05  0.3232E+00  0.3232E+00
     -1.507  0.4970E-02  0.4970E-02  0.3243E+00  0.3243E+00
     -1.290  0.2585E-01  0.2585E-01  0.3299E+00  0.3299E+00
     -1.073  0.5274E-01  0.5274E-01  0.3414E+00  0.3414E+00
     -0.855  0.6821E-01  0.6821E-01  0.3562E+00  0.3562E+00
     -0.638  0.5846E-01  0.5846E-01  0.3689E+00  0.3689E+00
     -0.421  0.6266E-01  0.6266E-01  0.3826E+00  0.3826E+00
     -0.203  0.3641E-01  0.3641E-01  0.3905E+00  0.3905E+00
      0.014  0.3235E-01  0.3235E-01  0.3975E+00  0.3975E+00
      0.232  0.3762E-01  0.3762E-01  0.4057E+00  0.4057E+00
      0.449  0.4445E-01  0.4445E-01  0.4153E+00  0.4153E+00
      0.666  0.3966E-01  0.3966E-01  0.4240E+00  0.4240E+00
      0.884  0.7241E-01  0.7241E-01  0.4397E+00  0.4397E+00
      1.101  0.8726E-01  0.8726E-01  0.4587E+00  0.4587E+00
      1.318  0.9415E-01  0.9415E-01  0.4791E+00  0.4791E+00
      1.536  0.1130E+00  0.1130E+00  0.5037E+00  0.5037E+00
      1.753  0.9103E-01  0.9103E-01  0.5235E+00  0.5235E+00
      1.970  0.8166E-01  0.8166E-01  0.5412E+00  0.5412E+00
      2.188  0.7428E-01  0.7428E-01  0.5574E+00  0.5574E+00
      2.405  0.1020E+00  0.1020E+00  0.5795E+00  0.5795E+00
      2.623  0.1006E+00  0.1006E+00  0.6014E+00  0.6014E+00
      2.840  0.1006E+00  0.1006E+00  0.6233E+00  0.6233E+00
      3.057  0.1413E+00  0.1413E+00  0.6540E+00  0.6540E+00
      3.275  0.1335E+00  0.1335E+00  0.6830E+00  0.6830E+00
      3.492  0.1108E+00  0.1108E+00  0.7071E+00  0.7071E+00
      3.709  0.9019E-01  0.9019E-01  0.7267E+00  0.7267E+00
      3.927  0.7460E-01  0.7460E-01  0.7429E+00  0.7429E+00
      4.144  0.6788E-01  0.6788E-01  0.7577E+00  0.7577E+00
      4.361  0.4927E-01  0.4927E-01  0.7684E+00  0.7684E+00
      4.579  0.5170E-01  0.5170E-01  0.7796E+00  0.7796E+00
      4.796  0.7513E-01  0.7513E-01  0.7960E+00  0.7960E+00
      5.014  0.7825E-01  0.7825E-01  0.8130E+00  0.8130E+00
      5.231  0.7465E-01  0.7465E-01  0.8292E+00  0.8292E+00
      5.448  0.1217E+00  0.1217E+00  0.8557E+00  0.8557E+00
      5.666  0.9924E-01  0.9924E-01  0.8772E+00  0.8772E+00
      5.883  0.8443E-01  0.8443E-01  0.8956E+00  0.8956E+00
      6.100  0.8543E-01  0.8543E-01  0.9142E+00  0.9142E+00
      6.318  0.7750E-01  0.7750E-01  0.9310E+00  0.9310E+00
      6.535  0.9642E-01  0.9642E-01  0.9520E+00  0.9520E+00
      6.753  0.3025E-01  0.3025E-01  0.9585E+00  0.9585E+00
      6.970  0.1558E-01  0.1558E-01  0.9619E+00  0.9619E+00
      7.187  0.1412E-01  0.1412E-01  0.9650E+00  0.9650E+00
      7.405  0.1656E-01  0.1656E-01  0.9686E+00  0.9686E+00
      7.622  0.1062E-01  0.1062E-01  0.9709E+00  0.9709E+00
      7.839  0.7221E-02  0.7221E-02  0.9725E+00  0.9725E+00
      8.057  0.1111E-01  0.1111E-01  0.9749E+00  0.9749E+00
      8.274  0.1455E-01  0.1455E-01  0.9780E+00  0.9780E+00
      8.491  0.1915E-01  0.1914E-01  0.9822E+00  0.9822E+00
      8.709  0.3003E-01  0.3030E-01  0.9887E+00  0.9888E+00
      8.926  0.3809E-01  0.3817E-01  0.9970E+00  0.9971E+00
      9.144  0.3529E-01  0.3458E-01  0.1005E+01  0.1005E+01
      9.361  0.1640E-01  0.1667E-01  0.1008E+01  0.1008E+01
      9.578  0.7386E-02  0.7518E-02  0.1010E+01  0.1010E+01
      9.796  0.1109E-02  0.1091E-02  0.1010E+01  0.1010E+01
     10.013  0.3852E-07  0.1490E-07  0.1010E+01  0.1010E+01
     10.230  0.0000E+00  0.0000E+00  0.1010E+01  0.1010E+01
     10.448  0.0000E+00  0.0000E+00  0.1010E+01  0.1010E+01
     10.665  0.0000E+00  0.0000E+00  0.1010E+01  0.1010E+01
     10.882  0.0000E+00  0.0000E+00  0.1010E+01  0.1010E+01
     11.100  0.0000E+00  0.0000E+00  0.1010E+01  0.1010E+01
     11.317  0.0000E+00  0.0000E+00  0.1010E+01  0.1010E+01
     11.535  0.0000E+00  0.0000E+00  0.1010E+01  0.1010E+01
     11.752  0.0000E+00  0.0000E+00  0.1010E+01  0.1010E+01
     11.969  0.0000E+00  0.0000E+00  0.1010E+01  0.1010E+01
     12.187  0.0000E+00  0.0000E+00  0.1010E+01  0.1010E+01
     12.404  0.0000E+00  0.0000E+00  0.1010E+01  0.1010E+01
     12.621  0.0000E+00  0.0000E+00  0.1010E+01  0.1010E+01
     12.62136385    -52.58816122  301      4.95635503      1.00000000
    -52.588  0.0000E+00  0.0000E+00  0.0000E+00  0.0000E+00  0.0000E+00  0.0000E+00  0.0000E+00  0.0000E+00  0.0000E+00  0.0000E+00  0.0000E+00  0.0000E+00  0.0000E+00  0.0000E+00  0.0000E+00  0.0000E+00  0.0000E+00  0.0000E+00
    -52.371  0.0000E+00  0.0000E+00  0.0000E+00  0.0000E+00  0.0000E+00  0.0000E+00  0.0000E+00  0.0000E+00  0.0000E+00  0.0000E+00  0.0000E+00  0.0000E+00  0.0000E+00  0.0000E+00  0.0000E+00  0.0000E+00  0.0000E+00  0.0000E+00
    -52.153  0.0000E+00  0.0000E+00  0.0000E+00  0.0000E+00  0.0000E+00  0.0000E+00  0.0000E+00  0.0000E+00  0.0000E+00  0.0000E+00  0.0000E+00  0.0000E+00  0.0000E+00  0.0000E+00  0.0000E+00  0.0000E+00  0.0000E+00  0.0000E+00
    -51.936  0.0000E+00  0.0000E+00  0.0000E+00  0.0000E+00  0.0000E+00  0.0000E+00  0.0000E+00  0.0000E+00  0.0000E+00  0.0000E+00  0.0000E+00  0.0000E+00  0.0000E+00  0.0000E+00  0.0000E+00  0.0000E+00  0.0000E+00  0.0000E+00
    -51.719  0.0000E+00  0.0000E+00  0.0000E+00  0.0000E+00  0.0000E+00  0.0000E+00  0.0000E+00  0.0000E+00  0.0000E+00  0.0000E+00  0.0000E+00  0.0000E+00  0.0000E+00  0.0000E+00  0.0000E+00  0.0000E+00  0.0000E+00  0.0000E+00
    -51.501  0.0000E+00  0.0000E+00  0.0000E+00  0.0000E+00  0.0000E+00  0.0000E+00  0.0000E+00  0.0000E+00  0.0000E+00  0.0000E+00  0.0000E+00  0.0000E+00  0.0000E+00  0.0000E+00  0.0000E+00  0.0000E+00  0.0000E+00  0.0000E+00
    -51.284  0.0000E+00  0.0000E+00  0.0000E+00  0.0000E+00  0.0000E+00  0.0000E+00  0.0000E+00  0.0000E+00  0.0000E+00  0.0000E+00  0.0000E+00  0.0000E+00  0.0000E+00  0.0000E+00  0.0000E+00  0.0000E+00  0.0000E+00  0.0000E+00
    -51.067  0.0000E+00  0.0000E+00  0.0000E+00  0.0000E+00  0.0000E+00  0.0000E+00  0.0000E+00  0.0000E+00  0.0000E+00  0.0000E+00  0.0000E+00  0.0000E+00  0.0000E+00  0.0000E+00  0.0000E+00  0.0000E+00  0.0000E+00  0.0000E+00
    -50.849  0.0000E+00  0.0000E+00  0.0000E+00  0.0000E+00  0.0000E+00  0.0000E+00  0.0000E+00  0.0000E+00  0.0000E+00  0.0000E+00  0.0000E+00  0.0000E+00  0.0000E+00  0.0000E+00  0.0000E+00  0.0000E+00  0.0000E+00  0.0000E+00
    -50.632  0.0000E+00  0.0000E+00  0.0000E+00  0.0000E+00  0.0000E+00  0.0000E+00  0.0000E+00  0.0000E+00  0.0000E+00  0.0000E+00  0.0000E+00  0.0000E+00  0.0000E+00  0.0000E+00  0.0000E+00  0.0000E+00  0.0000E+00  0.0000E+00
    -50.415  0.0000E+00  0.0000E+00  0.0000E+00  0.0000E+00  0.0000E+00  0.0000E+00  0.0000E+00  0.0000E+00  0.0000E+00  0.0000E+00  0.0000E+00  0.0000E+00  0.0000E+00  0.0000E+00  0.0000E+00  0.0000E+00  0.0000E+00  0.0000E+00
    -50.197  0.0000E+00  0.0000E+00  0.0000E+00  0.0000E+00  0.0000E+00  0.0000E+00  0.0000E+00  0.0000E+00  0.0000E+00  0.0000E+00  0.0000E+00  0.0000E+00  0.0000E+00  0.0000E+00  0.0000E+00  0.0000E+00  0.0000E+00  0.0000E+00
    -49.980  0.0000E+00  0.0000E+00  0.0000E+00  0.0000E+00  0.0000E+00  0.0000E+00  0.0000E+00  0.0000E+00  0.0000E+00  0.0000E+00  0.0000E+00  0.0000E+00  0.0000E+00  0.0000E+00  0.0000E+00  0.0000E+00  0.0000E+00  0.0000E+00
    -49.762  0.8773E-11  0.2440E-10  0.7813E-05  0.1514E-08  0.5477E-04  0.2242E-09  0.2421E-05  0.6706E-11  0.2056E-10  0.4355E-12  0.5549E-15  0.1051E-10  0.4103E-11  0.7010E-11  0.1228E-09  0.6432E-14  0.1231E-10  0.2933E-10
    -49.545  0.2541E-04  0.2771E-05  0.8637E+00  0.1710E-03  0.3579E+01  0.1583E-04  0.1103E+01  0.2713E-05  0.2834E-05  0.1715E-06  0.1364E-09  0.6961E-06  0.1189E-04  0.8643E-06  0.1219E-04  0.6877E-09  0.3568E-04  0.3135E-05
    -49.328  0.1467E-03  0.9490E-05  0.3717E+01  0.6470E-03  0.1002E+01  0.2702E-05  0.1639E+01  0.3299E-05  0.1270E-04  0.2206E-06  0.5843E-09  0.4499E-07  0.6867E-04  0.3727E-05  0.3262E-05  0.2149E-09  0.2061E-03  0.1178E-04
    -49.110  0.8037E-04  0.6231E-08  0.4585E-03  0.2640E-06  0.6737E-04  0.2499E-08  0.1824E+01  0.1780E-05  0.1106E-08  0.1313E-06  0.2453E-09  0.1287E-10  0.3763E-04  0.2161E-08  0.1861E-09  0.1079E-09  0.1129E-03  0.1557E-08
    -48.893  0.1122E-06  0.6804E-11  0.1450E-11  0.2837E-09  0.1827E-13  0.3434E-11  0.1701E-01  0.1391E-07  0.2021E-12  0.1079E-08  0.3910E-12  0.1082E-12  0.5245E-07  0.2336E-11  0.5549E-13  0.1812E-11  0.1574E-06  0.1989E-12
    -48.676  0.0000E+00  0.0000E+00  0.0000E+00  0.0000E+00  0.0000E+00  0.0000E+00  0.0000E+00  0.0000E+00  0.0000E+00  0.0000E+00  0.0000E+00  0.0000E+00  0.0000E+00  0.0000E+00  0.0000E+00  0.0000E+00  0.0000E+00  0.0000E+00
    -48.458  0.0000E+00  0.0000E+00  0.0000E+00  0.0000E+00  0.0000E+00  0.0000E+00  0.0000E+00  0.0000E+00  0.0000E+00  0.0000E+00  0.0000E+00  0.0000E+00  0.0000E+00  0.0000E+00  0.0000E+00  0.0000E+00  0.0000E+00  0.0000E+00
    -48.241  0.0000E+00  0.0000E+00  0.0000E+00  0.0000E+00  0.0000E+00  0.0000E+00  0.0000E+00  0.0000E+00  0.0000E+00  0.0000E+00  0.0000E+00  0.0000E+00  0.0000E+00  0.0000E+00  0.0000E+00  0.0000E+00  0.0000E+00  0.0000E+00
    -48.023  0.0000E+00  0.0000E+00  0.0000E+00  0.0000E+00  0.0000E+00  0.0000E+00  0.0000E+00  0.0000E+00  0.0000E+00  0.0000E+00  0.0000E+00  0.0000E+00  0.0000E+00  0.0000E+00  0.0000E+00  0.0000E+00  0.0000E+00  0.0000E+00
    -47.806  0.0000E+00  0.0000E+00  0.0000E+00  0.0000E+00  0.0000E+00  0.0000E+00  0.0000E+00  0.0000E+00  0.0000E+00  0.0000E+00  0.0000E+00  0.0000E+00  0.0000E+00  0.0000E+00  0.0000E+00  0.0000E+00  0.0000E+00  0.0000E+00
    -47.589  0.0000E+00  0.0000E+00  0.0000E+00  0.0000E+00  0.0000E+00  0.0000E+00  0.0000E+00  0.0000E+00  0.0000E+00  0.0000E+00  0.0000E+00  0.0000E+00  0.0000E+00  0.0000E+00  0.0000E+00  0.0000E+00  0.0000E+00  0.0000E+00
    -47.371  0.3390E-28  0.9497E-29  0.6915E-30  0.8361E-30  0.2061E-30  0.8495E-30  0.2784E-22  0.9063E-17  0.2032E-23  0.7850E-27  0.4712E-28  0.5434E-28  0.1941E-28  0.3064E-28  0.8151E-27  0.1857E-26  0.2238E-28  0.4638E-28
    -47.154  0.5042E-07  0.3879E-07  0.3206E-05  0.1267E-01  0.6283E-07  0.1652E-01  0.2105E-07  0.6136E-02  0.1389E-08  0.4830E-07  0.5841E-08  0.1309E-11  0.1664E-07  0.1821E-07  0.1731E-11  0.6291E-07  0.5950E-07  0.5485E-07
    -46.937  0.8018E-05  0.7423E-04  0.5188E-03  0.2014E+01  0.9698E-05  0.2537E+01  0.5056E-05  0.1667E+01  0.3433E-06  0.7923E-05  0.8859E-06  0.1147E-08  0.2651E-05  0.3482E-04  0.3133E-09  0.1015E-04  0.9345E-05  0.1049E-03
    -46.719  0.2267E-05  0.1650E-03  0.1154E-03  0.6763E+00  0.7733E-06  0.5446E+00  0.2661E-05  0.1407E+01  0.1984E-06  0.2766E-05  0.4588E-07  0.2458E-08  0.9288E-06  0.7736E-04  0.1318E-09  0.2242E-05  0.2824E-05  0.2330E-03
    -46.502  0.6194E-05  0.5973E-04  0.3204E-03  0.1879E+01  0.2125E-05  0.1485E+01  0.1877E-05  0.1503E+01  0.1468E-06  0.7498E-05  0.1238E-06  0.1251E-08  0.2539E-05  0.2796E-04  0.2509E-09  0.6017E-05  0.7785E-05  0.8423E-04
    -46.285  0.3290E-12  0.5859E-08  0.1094E-10  0.3796E-12  0.2084E-14  0.1762E-12  0.1006E-08  0.1060E-02  0.9009E-10  0.4365E-13  0.7716E-14  0.1304E-12  0.9596E-13  0.2735E-08  0.1423E-12  0.3311E-13  0.1076E-12  0.8240E-08
    -46.067  0.0000E+00  0.0000E+00  0.0000E+00  0.0000E+00  0.0000E+00  0.0000E+00  0.0000E+00  0.0000E+00  0.0000E+00  0.0000E+00  0.0000E+00  0.0000E+00  0.0000E+00  0.0000E+00  0.0000E+00  0.0000E+00  0.0000E+00  0.0000E+00
    -45.850  0.0000E+00  0.0000E+00  0.0000E+00  0.0000E+00  0.0000E+00  0.0000E+00  0.0000E+00  0.0000E+00  0.0000E+00  0.0000E+00  0.0000E+00  0.0000E+00  0.0000E+00  0.0000E+00  0.0000E+00  0.0000E+00  0.0000E+00  0.0000E+00
    -45.632  0.0000E+00  0.0000E+00  0.0000E+00  0.0000E+00  0.0000E+00  0.0000E+00  0.0000E+00  0.0000E+00  0.0000E+00  0.0000E+00  0.0000E+00  0.0000E+00  0.0000E+00  0.0000E+00  0.0000E+00  0.0000E+00  0.0000E+00  0.0000E+00
    -45.415  0.0000E+00  0.0000E+00  0.0000E+00  0.0000E+00  0.0000E+00  0.0000E+00  0.0000E+00  0.0000E+00  0.0000E+00  0.0000E+00  0.0000E+00  0.0000E+00  0.0000E+00  0.0000E+00  0.0000E+00  0.0000E+00  0.0000E+00  0.0000E+00
    -45.198  0.0000E+00  0.0000E+00  0.0000E+00  0.0000E+00  0.0000E+00  0.0000E+00  0.0000E+00  0.0000E+00  0.0000E+00  0.0000E+00  0.0000E+00  0.0000E+00  0.0000E+00  0.0000E+00  0.0000E+00  0.0000E+00  0.0000E+00  0.0000E+00
    -44.980  0.0000E+00  0.0000E+00  0.0000E+00  0.0000E+00  0.0000E+00  0.0000E+00  0.0000E+00  0.0000E+00  0.0000E+00  0.0000E+00  0.0000E+00  0.0000E+00  0.0000E+00  0.0000E+00  0.0000E+00  0.0000E+00  0.0000E+00  0.0000E+00
    -44.763  0.0000E+00  0.0000E+00  0.0000E+00  0.0000E+00  0.0000E+00  0.0000E+00  0.0000E+00  0.0000E+00  0.0000E+00  0.0000E+00  0.0000E+00  0.0000E+00  0.0000E+00  0.0000E+00  0.0000E+00  0.0000E+00  0.0000E+00  0.0000E+00
    -44.546  0.0000E+00  0.0000E+00  0.0000E+00  0.0000E+00  0.0000E+00  0.0000E+00  0.0000E+00  0.0000E+00  0.0000E+00  0.0000E+00  0.0000E+00  0.0000E+00  0.0000E+00  0.0000E+00  0.0000E+00  0.0000E+00  0.0000E+00  0.0000E+00
    -44.328  0.0000E+00  0.0000E+00  0.0000E+00  0.0000E+00  0.0000E+00  0.0000E+00  0.0000E+00  0.0000E+00  0.0000E+00  0.0000E+00  0.0000E+00  0.0000E+00  0.0000E+00  0.0000E+00  0.0000E+00  0.0000E+00  0.0000E+00  0.0000E+00
    -44.111  0.0000E+00  0.0000E+00  0.0000E+00  0.0000E+00  0.0000E+00  0.0000E+00  0.0000E+00  0.0000E+00  0.0000E+00  0.0000E+00  0.0000E+00  0.0000E+00  0.0000E+00  0.0000E+00  0.0000E+00  0.0000E+00  0.0000E+00  0.0000E+00
    -43.894  0.0000E+00  0.0000E+00  0.0000E+00  0.0000E+00  0.0000E+00  0.0000E+00  0.0000E+00  0.0000E+00  0.0000E+00  0.0000E+00  0.0000E+00  0.0000E+00  0.0000E+00  0.0000E+00  0.0000E+00  0.0000E+00  0.0000E+00  0.0000E+00
    -43.676  0.0000E+00  0.0000E+00  0.0000E+00  0.0000E+00  0.0000E+00  0.0000E+00  0.0000E+00  0.0000E+00  0.0000E+00  0.0000E+00  0.0000E+00  0.0000E+00  0.0000E+00  0.0000E+00  0.0000E+00  0.0000E+00  0.0000E+00  0.0000E+00
    -43.459  0.0000E+00  0.0000E+00  0.0000E+00  0.0000E+00  0.0000E+00  0.0000E+00  0.0000E+00  0.0000E+00  0.0000E+00  0.0000E+00  0.0000E+00  0.0000E+00  0.0000E+00  0.0000E+00  0.0000E+00  0.0000E+00  0.0000E+00  0.0000E+00
    -43.241  0.0000E+00  0.0000E+00  0.0000E+00  0.0000E+00  0.0000E+00  0.0000E+00  0.0000E+00  0.0000E+00  0.0000E+00  0.0000E+00  0.0000E+00  0.0000E+00  0.0000E+00  0.0000E+00  0.0000E+00  0.0000E+00  0.0000E+00  0.0000E+00
    -43.024  0.0000E+00  0.0000E+00  0.0000E+00  0.0000E+00  0.0000E+00  0.0000E+00  0.0000E+00  0.0000E+00  0.0000E+00  0.0000E+00  0.0000E+00  0.0000E+00  0.0000E+00  0.0000E+00  0.0000E+00  0.0000E+00  0.0000E+00  0.0000E+00
    -42.807  0.0000E+00  0.0000E+00  0.0000E+00  0.0000E+00  0.0000E+00  0.0000E+00  0.0000E+00  0.0000E+00  0.0000E+00  0.0000E+00  0.0000E+00  0.0000E+00  0.0000E+00  0.0000E+00  0.0000E+00  0.0000E+00  0.0000E+00  0.0000E+00
    -42.589  0.0000E+00  0.0000E+00  0.0000E+00  0.0000E+00  0.0000E+00  0.0000E+00  0.0000E+00  0.0000E+00  0.0000E+00  0.0000E+00  0.0000E+00  0.0000E+00  0.0000E+00  0.0000E+00  0.0000E+00  0.0000E+00  0.0000E+00  0.0000E+00
    -42.372  0.0000E+00  0.0000E+00  0.0000E+00  0.0000E+00  0.0000E+00  0.0000E+00  0.0000E+00  0.0000E+00  0.0000E+00  0.0000E+00  0.0000E+00  0.0000E+00  0.0000E+00  0.0000E+00  0.0000E+00  0.0000E+00  0.0000E+00  0.0000E+00
    -42.155  0.0000E+00  0.0000E+00  0.0000E+00  0.0000E+00  0.0000E+00  0.0000E+00  0.0000E+00  0.0000E+00  0.0000E+00  0.0000E+00  0.0000E+00  0.0000E+00  0.0000E+00  0.0000E+00  0.0000E+00  0.0000E+00  0.0000E+00  0.0000E+00
    -41.937  0.0000E+00  0.0000E+00  0.0000E+00  0.0000E+00  0.0000E+00  0.0000E+00  0.0000E+00  0.0000E+00  0.0000E+00  0.0000E+00  0.0000E+00  0.0000E+00  0.0000E+00  0.0000E+00  0.0000E+00  0.0000E+00  0.0000E+00  0.0000E+00
    -41.720  0.0000E+00  0.0000E+00  0.0000E+00  0.0000E+00  0.0000E+00  0.0000E+00  0.0000E+00  0.0000E+00  0.0000E+00  0.0000E+00  0.0000E+00  0.0000E+00  0.0000E+00  0.0000E+00  0.0000E+00  0.0000E+00  0.0000E+00  0.0000E+00