Automatically generated mesh
      80
Reciprocal lattice
    0.00000000000000    0.00000000000000    0.00000000000000             1
    0.14285714285715    0.00000000000000    0.00000000000000             4
    0.28571428571428    0.00000000000000    0.00000000000000             4
    0.42857142857143    0.00000000000000    0.00000000000000             4
    0.14285714285715    0.14285714285715    0.00000000000000             2
    0.28571428571428    0.14285714285715    0.00000000000000             4
    0.42857142857143    0.14285714285715    0.00000000000000             4
   -0.42857142857143    0.14285714285715    0.00000000000000             4
   -0.28571428571428    0.14285714285715    0.00000000000000             4
   -0.14285714285715    0.14285714285715    0.00000000000000             2
    0.28571428571428    0.28571428571428    0.00000000000000             2
    0.42857142857143    0.28571428571428    0.00000000000000             4
   -0.42857142857143    0.28571428571428    0.00000000000000             4
   -0.28571428571428    0.28571428571428    0.00000000000000             2
    0.42857142857143    0.42857142857143    0.00000000000000             2
   -0.42857142857143    0.42857142857143    0.00000000000000             2
    0.00000000000000    0.00000000000000    0.11111111111111             2
    0.14285714285715    0.00000000000000    0.11111111111111             8
    0.28571428571428    0.00000000000000    0.11111111111111             8
    0.42857142857143    0.00000000000000    0.11111111111111             8
    0.14285714285715    0.14285714285715    0.11111111111111             4
    0.28571428571428    0.14285714285715    0.11111111111111             8
    0.42857142857143    0.14285714285715    0.11111111111111             8
   -0.42857142857143    0.14285714285715    0.11111111111111             8
   -0.28571428571428    0.14285714285715    0.11111111111111             8
   -0.14285714285715    0.14285714285715    0.11111111111111             4
    0.28571428571428    0.28571428571428    0.11111111111111             4
    0.42857142857143    0.28571428571428    0.11111111111111             8
   -0.42857142857143    0.28571428571428    0.11111111111111             8
   -0.28571428571428    0.28571428571428    0.11111111111111             4
    0.42857142857143    0.42857142857143    0.11111111111111             4
   -0.42857142857143    0.42857142857143    0.11111111111111             4
    0.00000000000000    0.00000000000000    0.22222222222222             2
    0.14285714285715    0.00000000000000    0.22222222222222             8
    0.28571428571428    0.00000000000000    0.22222222222222             8
    0.42857142857143    0.00000000000000    0.22222222222222             8
    0.14285714285715    0.14285714285715    0.22222222222222             4
    0.28571428571428    0.14285714285715    0.22222222222222             8
    0.42857142857143    0.14285714285715    0.22222222222222             8
   -0.42857142857143    0.14285714285715    0.22222222222222             8
   -0.28571428571428    0.14285714285715    0.22222222222222             8
   -0.14285714285715    0.14285714285715    0.22222222222222             4
    0.28571428571428    0.28571428571428    0.22222222222222             4
    0.42857142857143    0.28571428571428    0.22222222222222             8
   -0.42857142857143    0.28571428571428    0.22222222222222             8
   -0.28571428571428    0.28571428571428    0.22222222222222             4
    0.42857142857143    0.42857142857143    0.22222222222222             4
   -0.42857142857143    0.42857142857143    0.22222222222222             4
    0.00000000000000    0.00000000000000    0.33333333333334             2
    0.14285714285715    0.00000000000000    0.33333333333334             8
    0.28571428571428    0.00000000000000    0.33333333333334             8
    0.42857142857143    0.00000000000000    0.33333333333334             8
    0.14285714285715    0.14285714285715    0.33333333333334             4
    0.28571428571428    0.14285714285715    0.33333333333334             8
    0.42857142857143    0.14285714285715    0.33333333333334             8
   -0.42857142857143    0.14285714285715    0.33333333333334             8
   -0.28571428571428    0.14285714285715    0.33333333333334             8
   -0.14285714285715    0.14285714285715    0.33333333333334             4
    0.28571428571428    0.28571428571428    0.33333333333334             4
    0.42857142857143    0.28571428571428    0.33333333333334             8
   -0.42857142857143    0.28571428571428    0.33333333333334             8
   -0.28571428571428    0.28571428571428    0.33333333333334             4
    0.42857142857143    0.42857142857143    0.33333333333334             4
   -0.42857142857143    0.42857142857143    0.33333333333334             4
    0.00000000000000    0.00000000000000    0.44444444444444             2
    0.14285714285715    0.00000000000000    0.44444444444444             8
    0.28571428571428    0.00000000000000    0.44444444444444             8
    0.42857142857143    0.00000000000000    0.44444444444444             8
    0.14285714285715    0.14285714285715    0.44444444444444             4
    0.28571428571428    0.14285714285715    0.44444444444444             8
    0.42857142857143    0.14285714285715    0.44444444444444             8
   -0.42857142857143    0.14285714285715    0.44444444444444             8
   -0.28571428571428    0.14285714285715    0.44444444444444             8
   -0.14285714285715    0.14285714285715    0.44444444444444             4
    0.28571428571428    0.28571428571428    0.44444444444444             4
    0.42857142857143    0.28571428571428    0.44444444444444             8
   -0.42857142857143    0.28571428571428    0.44444444444444             8
   -0.28571428571428    0.28571428571428    0.44444444444444             4
    0.42857142857143    0.42857142857143    0.44444444444444             4
   -0.42857142857143    0.42857142857143    0.44444444444444             4
