 vasp.6.4.1 05Apr23 (build Jun 01 2023 13:46:15) complex                        
  
 executed on             LinuxIFC date 2023.12.17  01:14:06
 running   20 mpi-ranks, on    5 nodes
 distrk:  each k-point on   20 cores,    1 groups
 distr:  one band on NCORE=   1 cores,   20 groups


--------------------------------------------------------------------------------------------------------


 INCAR:
   ALGO = Fast
   EDIFF = 0.0002
   ENCUT = 550
   IBRION = 2
   ISIF = 4
   ISMEAR = 0
   ISPIN = 2
   IVDW = 13
   LASPH = True
   LMAXMIX = 4
   LORBIT = 11
   LREAL = Auto
   LWAVE = False
   MAGMOM = 1*2.371 2*-2.371 2*2.371 2*-2.371 1*2.371 8*0.0
   NELM = 100
   NSW = 99
   PREC = Accurate
   SIGMA = 0.05

 POTCAR:   PAW_PBE Fe_pv 06Sep2000                
 POTCAR:   PAW_PBE Se 06Sep2000                   
 -----------------------------------------------------------------------------
|                                                                             |
|           W    W    AA    RRRRR   N    N  II  N    N   GGGG   !!!           |
|           W    W   A  A   R    R  NN   N  II  NN   N  G    G  !!!           |
|           W    W  A    A  R    R  N N  N  II  N N  N  G       !!!           |
|           W WW W  AAAAAA  RRRRR   N  N N  II  N  N N  G  GGG   !            |
|           WW  WW  A    A  R   R   N   NN  II  N   NN  G    G                |
|           W    W  A    A  R    R  N    N  II  N    N   GGGG   !!!           |
|                                                                             |
|     For optimal performance we recommend to set                             |
|       NCORE = 2 up to number-of-cores-per-socket                            |
|     NCORE specifies how many cores store one orbital (NPAR=cpu/NCORE).      |
|     This setting can greatly improve the performance of VASP for DFT.       |
|     The default, NCORE=1 might be grossly inefficient on modern             |
|     multi-core architectures or massively parallel machines. Do your        |
|     own testing! More info at https://www.vasp.at/wiki/index.php/NCORE      |
|     Unfortunately you need to use the default for GW and RPA                |
|     calculations (for HF NCORE is supported but not extensively tested      |
|     yet).                                                                   |
|                                                                             |
 -----------------------------------------------------------------------------

 POTCAR:   PAW_PBE Fe_pv 06Sep2000                
   VRHFIN =Fe:  3pd7s1                                                                              
   LEXCH  = PE                                                                                      
   EATOM  =  2456.8974 eV,  180.5769 Ry                                                             
                                                                                                    
   TITEL  = PAW_PBE Fe_pv 06Sep2000                                                                 
   LULTRA =        F    use ultrasoft PP ?                                                          
   IUNSCR =        1    unscreen: 0-lin 1-nonlin 2-no                                               
   RPACOR =    1.750    partial core radius                                                         
   POMASS =   55.847; ZVAL   =   14.000    mass and valenz                                          
   RCORE  =    2.200    outmost cutoff radius                                                       
   RWIGS  =    2.200; RWIGS  =    1.164    wigner-seitz radius (au A)                               
   ENMAX  =  293.238; ENMIN  =  219.929 eV                                                          
   RCLOC  =    1.701    cutoff for local pot                                                        
   LCOR   =        T    correct aug charges                                                         
   LPAW   =        T    paw PP                                                                      
   EAUG   =  578.342                                                                                
   DEXC   =    -.002                                                                                
   RMAX   =    2.693    core radius for proj-oper                                                   
   RAUG   =    1.300    factor for augmentation sphere                                              
   RDEP   =    2.296    radius for radial grids                                                     
   QCUT   =   -4.642; QGAM   =    9.285    optimization parameters                                  
                                                                                                    
   Description                                                                                      
     l     E      TYP  RCUT    TYP  RCUT                                                            
     1   .000     23  2.000                                                                         
     1  -.400     23  2.000                                                                         
     2   .000     23  2.200                                                                         
     2   .000     23  2.200                                                                         
     0   .000     23  2.000                                                                         
     0  2.000     23  2.000                                                                         
     3   .000      7   .000                                                                         
  local pseudopotential read in
  partial core-charges read in
  atomic valenz-charges read in
  non local Contribution for L=           1  read in
    real space projection operators read in
  non local Contribution for L=           1  read in
    real space projection operators read in
  non local Contribution for L=           2  read in
    real space projection operators read in
  non local Contribution for L=           2  read in
    real space projection operators read in
  non local Contribution for L=           0  read in
    real space projection operators read in
  non local Contribution for L=           0  read in
    real space projection operators read in
    PAW grid and wavefunctions read in
 
   number of l-projection  operators is LMAX  =           6
   number of lm-projection operators is LMMAX =          18
 
 POTCAR:   PAW_PBE Se 06Sep2000                   
   VRHFIN =Se: s2p4                                                                                 
   LEXCH  = PE                                                                                      
   EATOM  =   256.9644 eV,   18.8864 Ry                                                             
                                                                                                    
   TITEL  = PAW_PBE Se 06Sep2000                                                                    
   LULTRA =        F    use ultrasoft PP ?                                                          
   IUNSCR =        1    unscreen: 0-lin 1-nonlin 2-no                                               
   RPACOR =    1.900    partial core radius                                                         
   POMASS =   78.960; ZVAL   =    6.000    mass and valenz                                          
   RCORE  =    2.100    outmost cutoff radius                                                       
   RWIGS  =    2.200; RWIGS  =    1.164    wigner-seitz radius (au A)                               
   ENMAX  =  211.534; ENMIN  =  158.651 eV                                                          
   ICORE  =        3    local potential                                                             
   LCOR   =        T    correct aug charges                                                         
   LPAW   =        T    paw PP                                                                      
   EAUG   =  446.842                                                                                
   DEXC   =    -.031                                                                                
   RMAX   =    3.170    core radius for proj-oper                                                   
   RAUG   =    1.300    factor for augmentation sphere                                              
   RDEP   =    2.177    radius for radial grids                                                     
   QCUT   =   -3.943; QGAM   =    7.886    optimization parameters                                  
                                                                                                    
   Description                                                                                      
     l     E      TYP  RCUT    TYP  RCUT                                                            
     0   .000     23  2.100                                                                         
     0   .000     23  2.100                                                                         
     1   .000     23  2.100                                                                         
     1   .000     23  2.100                                                                         
     2   .000     23  2.100                                                                         
     3  -.100      7  2.100                                                                         
  local pseudopotential read in
  partial core-charges read in
  atomic valenz-charges read in
  non local Contribution for L=           0  read in
    real space projection operators read in
  non local Contribution for L=           0  read in
    real space projection operators read in
  non local Contribution for L=           1  read in
    real space projection operators read in
  non local Contribution for L=           1  read in
    real space projection operators read in
  non local Contribution for L=           2  read in
    real space projection operators read in
    PAW grid and wavefunctions read in
 
   number of l-projection  operators is LMAX  =           5
   number of lm-projection operators is LMMAX =          13
 
 Optimization of the real space projectors (new method)

 maximal supplied QI-value         = 17.01
 optimisation between [QCUT,QGAM] = [ 11.91, 23.98] = [ 39.69,161.04] Ry 
 Optimized for a Real-space Cutoff    1.45 Angstroem

   l    n(q)    QCUT    max X(q) W(low)/X(q) W(high)/X(q)  e(spline) 
   1     10    11.905     4.550    0.27E-05    0.11E-05    0.28E-07
   1     10    11.905     5.234    0.10E-04    0.61E-04    0.17E-06
   2      9    11.905     3.960    0.19E-04    0.73E-05    0.50E-07
   2      9    11.905    29.565    0.24E-03    0.51E-04    0.27E-06
   0     10    11.905    23.582    0.17E-04    0.10E-05    0.14E-07
   0     10    11.905    39.747    0.23E-04    0.68E-05    0.74E-07
 Optimization of the real space projectors (new method)

 maximal supplied QI-value         = 17.95
 optimisation between [QCUT,QGAM] = [ 11.85, 23.88] = [ 39.31,159.64] Ry 
 Optimized for a Real-space Cutoff    1.18 Angstroem

   l    n(q)    QCUT    max X(q) W(low)/X(q) W(high)/X(q)  e(spline) 
   0      8    11.849     6.499    0.17E-04    0.94E-05    0.89E-08
   0      8    11.849    52.623    0.21E-03    0.78E-04    0.81E-07
   1      8    11.849     4.229    0.79E-04    0.83E-04    0.23E-07
   1      8    11.849    29.991    0.12E-03    0.43E-03    0.14E-06
   2      7    11.849     3.719    0.22E-03    0.64E-04    0.38E-07
 PAW_PBE Fe_pv 06Sep2000                :
 energy of atom  1       EATOM=-2456.8974
 kinetic energy error for atom=    0.0060 (will be added to EATOM!!)
 PAW_PBE Se 06Sep2000                   :
 energy of atom  2       EATOM= -256.9644
 kinetic energy error for atom=    0.0007 (will be added to EATOM!!)
 
 
 POSCAR: Fe8 Se8
  positions in direct lattice
  velocities in cartesian coordinates
 exchange correlation table for  LEXCH =        8
   RHO(1)=    0.500       N(1)  =     2000
   RHO(2)=  100.500       N(2)  =     4000
 


--------------------------------------------------------------------------------------------------------


 ion  position               nearest neighbor table
   1  0.000  0.000  0.000-  11 2.28  14 2.28   5 2.35   8 2.35   7 2.74   6 2.74
   2  0.000  0.500  0.000-  12 2.28  13 2.28   6 2.35   7 2.35   5 2.74   8 2.74
   3  0.500  0.000  0.000-   9 2.28  16 2.28   6 2.35   7 2.35   5 2.74   8 2.74
   4  0.500  0.500  0.000-  10 2.28  15 2.28   5 2.35   8 2.35   7 2.74   6 2.74
   5  0.250  0.250  0.000-   9 2.28  13 2.28   1 2.35   4 2.35   3 2.74   2 2.74
   6  0.250  0.750  0.000-  10 2.28  14 2.28   2 2.35   3 2.35   1 2.74   4 2.74
   7  0.750  0.250  0.000-  11 2.28  15 2.28   2 2.35   3 2.35   1 2.74   4 2.74
   8  0.750  0.750  0.000-  12 2.28  16 2.28   1 2.35   4 2.35   3 2.74   2 2.74
   9  0.375  0.125  0.662-   3 2.28   5 2.28
  10  0.375  0.625  0.662-   4 2.28   6 2.28
  11  0.875  0.125  0.662-   1 2.28   7 2.28
  12  0.875  0.625  0.662-   2 2.28   8 2.28
  13  0.125  0.375  0.338-   2 2.28   5 2.28
  14  0.125  0.875  0.338-   1 2.28   6 2.28
  15  0.625  0.375  0.338-   4 2.28   7 2.28
  16  0.625  0.875  0.338-   3 2.28   8 2.28
 
  LATTYP: Found a base centered orthorhombic cell.
 ALAT       =     9.3853935436
 B/A-ratio  =     1.1659589271
 C/A-ratio  =     0.5747368573
  
  Lattice vectors:
  
 A1 = (   4.6926967718,  -5.4714916933,   0.0000000000)
 A2 = (   4.6926967718,   5.4714916933,   0.0000000000)
 A3 = (   0.0000000000,   0.0000000000,   5.3941315901)


Analysis of symmetry for initial positions (statically):
=====================================================================
 Subroutine PRICEL returns following result:
 
  LATTYP: Found a base centered orthorhombic cell.
 ALAT       =     4.6926967718
 B/A-ratio  =     1.1659589271
 C/A-ratio  =     1.1494737147
  
  Lattice vectors:
  
 A1 = (   2.3463483859,  -2.7357458467,   0.0000000000)
 A2 = (   2.3463483859,   2.7357458467,   0.0000000000)
 A3 = (   0.0000000000,   0.0000000000,   5.3941315901)
 
   4 primitive cells build up your supercell.
 

 Routine SETGRP: Setting up the symmetry group for a 
 base centered orthorhombic supercell.


 Subroutine GETGRP returns: Found  8 space group operations
 (whereof  4 operations were pure point group operations)
 out of a pool of  8 trial point group operations.


The static configuration has the point symmetry C_2h.
 The point group associated with its full space group is D_2h.


Analysis of symmetry for dynamics (positions and initial velocities):
=====================================================================
 Subroutine PRICEL returns following result:
 
  LATTYP: Found a base centered orthorhombic cell.
 ALAT       =     4.6926967718
 B/A-ratio  =     1.1659589271
 C/A-ratio  =     1.1494737147
  
  Lattice vectors:
  
 A1 = (   2.3463483859,  -2.7357458467,   0.0000000000)
 A2 = (   2.3463483859,   2.7357458467,   0.0000000000)
 A3 = (   0.0000000000,   0.0000000000,   5.3941315901)
 
   4 primitive cells build up your supercell.
 

 Routine SETGRP: Setting up the symmetry group for a 
 base centered orthorhombic supercell.


 Subroutine GETGRP returns: Found  8 space group operations
 (whereof  4 operations were pure point group operations)
 out of a pool of  8 trial point group operations.


The dynamic configuration has the point symmetry C_2h.
 The point group associated with its full space group is D_2h.


Analysis of structural, dynamic, and magnetic symmetry:
=====================================================================
 Subroutine PRICEL returns following result:
 
  LATTYP: Found a base centered orthorhombic cell.
 ALAT       =     4.6926967718
 B/A-ratio  =     1.1659589271
 C/A-ratio  =     1.1494737147
  
  Lattice vectors:
  
 A1 = (   2.3463483859,  -2.7357458467,   0.0000000000)
 A2 = (   2.3463483859,   2.7357458467,   0.0000000000)
 A3 = (   0.0000000000,   0.0000000000,   5.3941315901)
 
   4 primitive cells build up your supercell.
 

 Routine SETGRP: Setting up the symmetry group for a 
 base centered orthorhombic supercell.


 Subroutine GETGRP returns: Found  8 space group operations
 (whereof  4 operations were pure point group operations)
 out of a pool of  8 trial point group operations.


The overall configuration has the point symmetry C_2h.
 The point group associated with its full space group is D_2h.


 Subroutine INISYM returns: Found  8 space group operations
 (whereof  4 operations are pure point group operations),
 and found     4 'primitive' translations


----------------------------------------------------------------------------------------

                                     Primitive cell                                     

  volume of cell :      69.2500

  direct lattice vectors                    reciprocal lattice vectors
     2.346348386 -2.735745847  0.000000000     0.213097084 -0.182765516  0.000000000
     2.346348386  2.735745847  0.000000000     0.213097084  0.182765516  0.000000000
     0.000000000  0.000000000  5.394131590     0.000000000  0.000000000  0.185386653

  length of vectors
     3.604116547  3.604116547  5.394131590     0.280737602  0.280737602  0.185386653

  position of ions in fractional coordinates (direct lattice)
     0.000000000  0.000000000  0.000000000
     0.500000000  0.500000000  0.000000000
     0.750000000  0.250000000  0.662098785
     0.250000000  0.750000000  0.337901215

  ion indices of the primitive-cell ions
   primitive index   ion index
                 1           1
                 2           5
                 3          11
                 4          14

----------------------------------------------------------------------------------------

 
 
 KPOINTS: KPOINTS                                 

Automatic generation of k-mesh.
 Grid dimensions read from file:
 generate k-points for:    7    7    9

 Generating k-lattice:

  Cartesian coordinates                     Fractional coordinates (reciprocal lattice)
     0.015221220 -0.013054680  0.000000000     0.142857143  0.000000000  0.000000000
     0.015221220  0.013054680  0.000000000     0.000000000  0.142857143  0.000000000
     0.000000000  0.000000000  0.020598517     0.000000000  0.000000000  0.111111111

  Length of vectors
     0.020052686  0.020052686  0.020598517

  Shift w.r.t. Gamma in fractional coordinates (k-lattice)
     0.000000000  0.000000000  0.000000000

 
 Subroutine IBZKPT returns following result:
 ===========================================
 
 Found     80 irreducible k-points:
 
 Following reciprocal coordinates:
            Coordinates               Weight
  0.000000  0.000000  0.000000      1.000000
  0.142857  0.000000  0.000000      4.000000
  0.285714  0.000000  0.000000      4.000000
  0.428571  0.000000  0.000000      4.000000
  0.142857  0.142857  0.000000      2.000000
  0.285714  0.142857  0.000000      4.000000
  0.428571  0.142857  0.000000      4.000000
 -0.428571  0.142857  0.000000      4.000000
 -0.285714  0.142857  0.000000      4.000000
 -0.142857  0.142857  0.000000      2.000000
  0.285714  0.285714  0.000000      2.000000
  0.428571  0.285714  0.000000      4.000000
 -0.428571  0.285714  0.000000      4.000000
 -0.285714  0.285714  0.000000      2.000000
  0.428571  0.428571  0.000000      2.000000
 -0.428571  0.428571  0.000000      2.000000
  0.000000  0.000000  0.111111      2.000000
  0.142857  0.000000  0.111111      8.000000
  0.285714  0.000000  0.111111      8.000000
  0.428571  0.000000  0.111111      8.000000
  0.142857  0.142857  0.111111      4.000000
  0.285714  0.142857  0.111111      8.000000
  0.428571  0.142857  0.111111      8.000000
 -0.428571  0.142857  0.111111      8.000000
 -0.285714  0.142857  0.111111      8.000000
 -0.142857  0.142857  0.111111      4.000000
  0.285714  0.285714  0.111111      4.000000
  0.428571  0.285714  0.111111      8.000000
 -0.428571  0.285714  0.111111      8.000000
 -0.285714  0.285714  0.111111      4.000000
  0.428571  0.428571  0.111111      4.000000
 -0.428571  0.428571  0.111111      4.000000
  0.000000  0.000000  0.222222      2.000000
  0.142857  0.000000  0.222222      8.000000
  0.285714  0.000000  0.222222      8.000000
  0.428571  0.000000  0.222222      8.000000
  0.142857  0.142857  0.222222      4.000000
  0.285714  0.142857  0.222222      8.000000
  0.428571  0.142857  0.222222      8.000000
 -0.428571  0.142857  0.222222      8.000000
 -0.285714  0.142857  0.222222      8.000000
 -0.142857  0.142857  0.222222      4.000000
  0.285714  0.285714  0.222222      4.000000
  0.428571  0.285714  0.222222      8.000000
 -0.428571  0.285714  0.222222      8.000000
 -0.285714  0.285714  0.222222      4.000000
  0.428571  0.428571  0.222222      4.000000
 -0.428571  0.428571  0.222222      4.000000
  0.000000  0.000000  0.333333      2.000000
  0.142857  0.000000  0.333333      8.000000
  0.285714  0.000000  0.333333      8.000000
  0.428571  0.000000  0.333333      8.000000
  0.142857  0.142857  0.333333      4.000000
  0.285714  0.142857  0.333333      8.000000
  0.428571  0.142857  0.333333      8.000000
 -0.428571  0.142857  0.333333      8.000000
 -0.285714  0.142857  0.333333      8.000000
 -0.142857  0.142857  0.333333      4.000000
  0.285714  0.285714  0.333333      4.000000
  0.428571  0.285714  0.333333      8.000000
 -0.428571  0.285714  0.333333      8.000000
 -0.285714  0.285714  0.333333      4.000000
  0.428571  0.428571  0.333333      4.000000
 -0.428571  0.428571  0.333333      4.000000
  0.000000  0.000000  0.444444      2.000000
  0.142857  0.000000  0.444444      8.000000
  0.285714  0.000000  0.444444      8.000000
  0.428571  0.000000  0.444444      8.000000
  0.142857  0.142857  0.444444      4.000000
  0.285714  0.142857  0.444444      8.000000
  0.428571  0.142857  0.444444      8.000000
 -0.428571  0.142857  0.444444      8.000000
 -0.285714  0.142857  0.444444      8.000000
 -0.142857  0.142857  0.444444      4.000000
  0.285714  0.285714  0.444444      4.000000
  0.428571  0.285714  0.444444      8.000000
 -0.428571  0.285714  0.444444      8.000000
 -0.285714  0.285714  0.444444      4.000000
  0.428571  0.428571  0.444444      4.000000
 -0.428571  0.428571  0.444444      4.000000
 
 Following cartesian coordinates:
            Coordinates               Weight
  0.000000  0.000000  0.000000      1.000000
  0.015221 -0.013055  0.000000      4.000000
  0.030442 -0.026109  0.000000      4.000000
  0.045664 -0.039164  0.000000      4.000000
  0.030442  0.000000  0.000000      2.000000
  0.045664 -0.013055  0.000000      4.000000
  0.060885 -0.026109  0.000000      4.000000
 -0.030442  0.052219  0.000000      4.000000
 -0.015221  0.039164  0.000000      4.000000
  0.000000  0.026109  0.000000      2.000000
  0.060885  0.000000  0.000000      2.000000
  0.076106 -0.013055  0.000000      4.000000
 -0.015221  0.065273  0.000000      4.000000
 -0.000000  0.052219  0.000000      2.000000
  0.091327  0.000000  0.000000      2.000000
  0.000000  0.078328  0.000000      2.000000
  0.000000  0.000000  0.020599      2.000000
  0.015221 -0.013055  0.020599      8.000000
  0.030442 -0.026109  0.020599      8.000000
  0.045664 -0.039164  0.020599      8.000000
  0.030442  0.000000  0.020599      4.000000
  0.045664 -0.013055  0.020599      8.000000
  0.060885 -0.026109  0.020599      8.000000
 -0.030442  0.052219  0.020599      8.000000
 -0.015221  0.039164  0.020599      8.000000
  0.000000  0.026109  0.020599      4.000000
  0.060885  0.000000  0.020599      4.000000
  0.076106 -0.013055  0.020599      8.000000
 -0.015221  0.065273  0.020599      8.000000
 -0.000000  0.052219  0.020599      4.000000
  0.091327  0.000000  0.020599      4.000000
  0.000000  0.078328  0.020599      4.000000
  0.000000  0.000000  0.041197      2.000000
  0.015221 -0.013055  0.041197      8.000000
  0.030442 -0.026109  0.041197      8.000000
  0.045664 -0.039164  0.041197      8.000000
  0.030442  0.000000  0.041197      4.000000
  0.045664 -0.013055  0.041197      8.000000
  0.060885 -0.026109  0.041197      8.000000
 -0.030442  0.052219  0.041197      8.000000
 -0.015221  0.039164  0.041197      8.000000
  0.000000  0.026109  0.041197      4.000000
  0.060885  0.000000  0.041197      4.000000
  0.076106 -0.013055  0.041197      8.000000
 -0.015221  0.065273  0.041197      8.000000
 -0.000000  0.052219  0.041197      4.000000
  0.091327  0.000000  0.041197      4.000000
  0.000000  0.078328  0.041197      4.000000
  0.000000  0.000000  0.061796      2.000000
  0.015221 -0.013055  0.061796      8.000000
  0.030442 -0.026109  0.061796      8.000000
  0.045664 -0.039164  0.061796      8.000000
  0.030442  0.000000  0.061796      4.000000
  0.045664 -0.013055  0.061796      8.000000
  0.060885 -0.026109  0.061796      8.000000
 -0.030442  0.052219  0.061796      8.000000
 -0.015221  0.039164  0.061796      8.000000
  0.000000  0.026109  0.061796      4.000000
  0.060885  0.000000  0.061796      4.000000
  0.076106 -0.013055  0.061796      8.000000
 -0.015221  0.065273  0.061796      8.000000
 -0.000000  0.052219  0.061796      4.000000
  0.091327  0.000000  0.061796      4.000000
  0.000000  0.078328  0.061796      4.000000
  0.000000  0.000000  0.082394      2.000000
  0.015221 -0.013055  0.082394      8.000000
  0.030442 -0.026109  0.082394      8.000000
  0.045664 -0.039164  0.082394      8.000000
  0.030442  0.000000  0.082394      4.000000
  0.045664 -0.013055  0.082394      8.000000
  0.060885 -0.026109  0.082394      8.000000
 -0.030442  0.052219  0.082394      8.000000
 -0.015221  0.039164  0.082394      8.000000
  0.000000  0.026109  0.082394      4.000000
  0.060885  0.000000  0.082394      4.000000
  0.076106 -0.013055  0.082394      8.000000
 -0.015221  0.065273  0.082394      8.000000
 -0.000000  0.052219  0.082394      4.000000
  0.091327  0.000000  0.082394      4.000000
  0.000000  0.078328  0.082394      4.000000
 


--------------------------------------------------------------------------------------------------------




 Dimension of arrays:
   k-points           NKPTS =     80   k-points in BZ     NKDIM =     80   number of bands    NBANDS=    100
   number of dos      NEDOS =    301   number of ions     NIONS =     16
   non local maximal  LDIM  =      6   non local SUM 2l+1 LMDIM =     18
   total plane-waves  NPLWV = 131712
   max r-space proj   IRMAX =   6096   max aug-charges    IRDMAX=  20933
   dimension x,y,z NGX =    56 NGY =   56 NGZ =   42
   dimension x,y,z NGXF=   112 NGYF=  112 NGZF=   84
   support grid    NGXF=   112 NGYF=  112 NGZF=   84
   ions per type =               8   8
   NGX,Y,Z   is equivalent  to a cutoff of  12.92, 12.92, 12.94 a.u.
   NGXF,Y,Z  is equivalent  to a cutoff of  25.83, 25.83, 25.89 a.u.

 SYSTEM =  unknown system                          
 POSCAR =  Fe8 Se8                                 

 Startparameter for this run:
   NWRITE =      2    write-flag & timer
   PREC   = accura    normal or accurate (medium, high low for compatibility)
   ISTART =      0    job   : 0-new  1-cont  2-samecut
   ICHARG =      2    charge: 1-file 2-atom 10-const
   ISPIN  =      2    spin polarized calculation?
   LNONCOLLINEAR =      F non collinear calculations
   LSORBIT =      F    spin-orbit coupling
   INIWAV =      1    electr: 0-lowe 1-rand  2-diag
   LASPH  =      T    aspherical Exc in radial PAW
 Electronic Relaxation 1
   ENCUT  =  550.0 eV  40.42 Ry    6.36 a.u.  13.78 13.78 10.31*2*pi/ulx,y,z
   ENINI  =  550.0     initial cutoff
   ENAUG  =  578.3 eV  augmentation charge cutoff
   NELM   =    100;   NELMIN=  2; NELMDL=  0     # of ELM steps 
   EDIFF  = 0.2E-03   stopping-criterion for ELM
   LREAL  =      T    real-space projection
   NLSPLINE    = F    spline interpolate recip. space projectors
   LCOMPAT=      F    compatible to vasp.4.4
   GGA_COMPAT  = T    GGA compatible to vasp.4.4-vasp.4.6
   LMAXPAW     = -100 max onsite density
   LMAXMIX     =    4 max onsite mixed and CHGCAR
   VOSKOWN=      0    Vosko Wilk Nusair interpolation
   ROPT   =   -0.00025  -0.00025
 Ionic relaxation
   EDIFFG = 0.2E-02   stopping-criterion for IOM
   NSW    =     99    number of steps for IOM
   NBLOCK =      1;   KBLOCK =     99    inner block; outer block 
   IBRION =      2    ionic relax: 0-MD 1-quasi-New 2-CG
   NFREE  =      1    steps in history (QN), initial steepest desc. (CG)
   ISIF   =      4    stress and relaxation
   IWAVPR =     11    prediction:  0-non 1-charg 2-wave 3-comb
   ISYM   =      2    0-nonsym 1-usesym 2-fastsym
   LCORR  =      T    Harris-Foulkes like correction to forces

   POTIM  = 0.5000    time-step for ionic-motion
   TEIN   =    0.0    initial temperature
   TEBEG  =    0.0;   TEEND  =   0.0 temperature during run
   SMASS  =  -3.00    Nose mass-parameter (am)
   estimated Nose-frequenzy (Omega)   =  0.10E-29 period in steps = 0.13E+47 mass=  -0.119E-26a.u.
   SCALEE = 1.0000    scale energy and forces
   NPACO  =    256;   APACO  = 10.0  distance and # of slots for P.C.
   PSTRESS=    0.0 pullay stress

  Mass of Ions in am
   POMASS =  55.85 78.96
  Ionic Valenz
   ZVAL   =  14.00  6.00
  Atomic Wigner-Seitz radii
   RWIGS  =  -1.00 -1.00
  virtual crystal weights 
   VCA    =   1.00  1.00
   NELECT =     160.0000    total number of electrons
   NUPDOWN=      -1.0000    fix difference up-down

 DOS related values:
   EMIN   =  10.00;   EMAX   =-10.00  energy-range for DOS
   EFERMI =   0.00;   METHOD = LEGACY      
   ISMEAR =     0;   SIGMA  =   0.05  broadening in eV -4-tet -1-fermi 0-gaus

 Electronic relaxation 2 (details)
   IALGO  =     68    algorithm
   LDIAG  =      T    sub-space diagonalisation (order eigenvalues)
   LSUBROT=      F    optimize rotation matrix (better conditioning)
   TURBO    =      0    0=normal 1=particle mesh
   IRESTART =      0    0=no restart 2=restart with 2 vectors
   NREBOOT  =      0    no. of reboots
   NMIN     =      0    reboot dimension
   EREF     =   0.00    reference energy to select bands
   IMIX   =      4    mixing-type and parameters
     AMIX     =   0.40;   BMIX     =  1.00
     AMIX_MAG =   1.60;   BMIX_MAG =  1.00
     AMIN     =   0.10
     WC   =   100.;   INIMIX=   1;  MIXPRE=   1;  MAXMIX= -45

 Intra band minimization:
   WEIMIN = 0.0010     energy-eigenvalue tresh-hold
   EBREAK =  0.50E-06  absolut break condition
   DEPER  =   0.30     relativ break condition  

   TIME   =   0.40     timestep for ELM

  volume/ion in A,a.u.               =      17.31       116.83
  Fermi-wavevector in a.u.,A,eV,Ry     =   1.363395  2.576442 25.291119  1.858845
  Thomas-Fermi vector in A             =   2.489801
 
 Write flags
   LWAVE        =      F    write WAVECAR
   LDOWNSAMPLE  =      F    k-point downsampling of WAVECAR
   LCHARG       =      T    write CHGCAR
   LVTOT        =      F    write LOCPOT, total local potential
   LVHAR        =      F    write LOCPOT, Hartree potential only
   LELF         =      F    write electronic localiz. function (ELF)
   LORBIT       =     11    0 simple, 1 ext, 2 COOP (PROOUT), +10 PAW based schemes


 Dipole corrections
   LMONO  =      F    monopole corrections only (constant potential shift)
   LDIPOL =      F    correct potential (dipole corrections)
   IDIPOL =      0    1-x, 2-y, 3-z, 4-all directions 
   EPSILON=  1.0000000 bulk dielectric constant

 Exchange correlation treatment:
   GGA     =    --    GGA type
   LEXCH   =     8    internal setting for exchange type
   LIBXC   =     F    Libxc                    
   VOSKOWN =     0    Vosko Wilk Nusair interpolation
   LHFCALC =     F    Hartree Fock is set to
   LHFONE  =     F    Hartree Fock one center treatment
   AEXX    =    0.0000 exact exchange contribution

 Linear response parameters
   LEPSILON=     F    determine dielectric tensor
   LRPA    =     F    only Hartree local field effects (RPA)
   LNABLA  =     F    use nabla operator in PAW spheres
   LVEL    =     F    velocity operator in full k-point grid
   CSHIFT  =0.1000    complex shift for real part using Kramers Kronig
   OMEGAMAX=  -1.0    maximum frequency
   DEG_THRESHOLD= 0.2000000E-02 threshold for treating states as degnerate
   RTIME   =   -0.100 relaxation time in fs
  (WPLASMAI=    0.000 imaginary part of plasma frequency in eV, 0.658/RTIME)
   DFIELD  = 0.0000000 0.0000000 0.0000000 field for delta impulse in time
 
  Optional k-point grid parameters
   LKPOINTS_OPT  =     F    use optional k-point grid
   KPOINTS_OPT_MODE=     1    mode for optional k-point grid
 
 Orbital magnetization related:
   ORBITALMAG=     F  switch on orbital magnetization
   LCHIMAG   =     F  perturbation theory with respect to B field
   DQ        =  0.001000  dq finite difference perturbation B field
   LLRAUG    =     F  two centre corrections for induced B field
   LBONE     =     F  B-component reconstruction in AE one-centre
   LVGVCALC  =     T  calculate vGv susceptibility
   LVGVAPPL  =     F  apply vGv susceptibility instead of pGv for G=0

 Random number generation:
   RANDOM_GENERATOR = DEFAULT
   PCG_SEED         = not used


--------------------------------------------------------------------------------------------------------


 conjugate gradient relaxation of ions
 charge density and potential will be updated during run
 spin polarized calculation
 RMM-DIIS sequential band-by-band and
  variant of blocked Davidson during initial phase
 perform sub-space diagonalisation
    before iterative eigenvector-optimisation
 modified Broyden-mixing scheme, WC =      100.0
 initial mixing is a Kerker type mixing with AMIX =  0.4000 and BMIX =      1.0000
 Hartree-type preconditioning will be used
 using additional bands           20
 real space projection scheme for non local part
 use partial core corrections
 calculate Harris-corrections to forces 
   (improved forces if not selfconsistent)
 use gradient corrections 
 use of overlap-Matrix (Vanderbilt PP)
 Gauss-broadening in eV      SIGMA  =   0.05


--------------------------------------------------------------------------------------------------------


  energy-cutoff  :      550.00
  volume of cell :      277.00
      direct lattice vectors                 reciprocal lattice vectors
     4.692696772 -5.471491693  0.000000000     0.106548542 -0.091382758  0.000000000
     4.692696772  5.471491693  0.000000000     0.106548542  0.091382758  0.000000000
     0.000000000  0.000000000  5.394131590     0.000000000  0.000000000  0.185386653

  length of vectors
     7.208233094  7.208233094  5.394131590     0.140368801  0.140368801  0.185386653


 
 k-points in units of 2pi/SCALE and weight: KPOINTS                                 
   0.00000000  0.00000000  0.00000000       0.002
   0.01522122 -0.01305468  0.00000000       0.009
   0.03044244 -0.02610936  0.00000000       0.009
   0.04566366 -0.03916404  0.00000000       0.009
   0.03044244 -0.00000000  0.00000000       0.005
   0.04566366 -0.01305468  0.00000000       0.009
   0.06088488 -0.02610936  0.00000000       0.009
  -0.03044244  0.05221872  0.00000000       0.009
  -0.01522122  0.03916404  0.00000000       0.009
  -0.00000000  0.02610936  0.00000000       0.005
   0.06088488 -0.00000000  0.00000000       0.005
   0.07610610 -0.01305468  0.00000000       0.009
  -0.01522122  0.06527340  0.00000000       0.009
   0.00000000  0.05221872  0.00000000       0.005
   0.09132732 -0.00000000  0.00000000       0.005
  -0.00000000  0.07832808  0.00000000       0.005
   0.00000000  0.00000000  0.02059852       0.005
   0.01522122 -0.01305468  0.02059852       0.018
   0.03044244 -0.02610936  0.02059852       0.018
   0.04566366 -0.03916404  0.02059852       0.018
   0.03044244 -0.00000000  0.02059852       0.009
   0.04566366 -0.01305468  0.02059852       0.018
   0.06088488 -0.02610936  0.02059852       0.018
  -0.03044244  0.05221872  0.02059852       0.018
  -0.01522122  0.03916404  0.02059852       0.018
  -0.00000000  0.02610936  0.02059852       0.009
   0.06088488 -0.00000000  0.02059852       0.009
   0.07610610 -0.01305468  0.02059852       0.018
  -0.01522122  0.06527340  0.02059852       0.018
   0.00000000  0.05221872  0.02059852       0.009
   0.09132732 -0.00000000  0.02059852       0.009
  -0.00000000  0.07832808  0.02059852       0.009
   0.00000000  0.00000000  0.04119703       0.005
   0.01522122 -0.01305468  0.04119703       0.018
   0.03044244 -0.02610936  0.04119703       0.018
   0.04566366 -0.03916404  0.04119703       0.018
   0.03044244 -0.00000000  0.04119703       0.009
   0.04566366 -0.01305468  0.04119703       0.018
   0.06088488 -0.02610936  0.04119703       0.018
  -0.03044244  0.05221872  0.04119703       0.018
  -0.01522122  0.03916404  0.04119703       0.018
  -0.00000000  0.02610936  0.04119703       0.009
   0.06088488 -0.00000000  0.04119703       0.009
   0.07610610 -0.01305468  0.04119703       0.018
  -0.01522122  0.06527340  0.04119703       0.018
   0.00000000  0.05221872  0.04119703       0.009
   0.09132732 -0.00000000  0.04119703       0.009
  -0.00000000  0.07832808  0.04119703       0.009
   0.00000000  0.00000000  0.06179555       0.005
   0.01522122 -0.01305468  0.06179555       0.018
   0.03044244 -0.02610936  0.06179555       0.018
   0.04566366 -0.03916404  0.06179555       0.018
   0.03044244 -0.00000000  0.06179555       0.009
   0.04566366 -0.01305468  0.06179555       0.018
   0.06088488 -0.02610936  0.06179555       0.018
  -0.03044244  0.05221872  0.06179555       0.018
  -0.01522122  0.03916404  0.06179555       0.018
  -0.00000000  0.02610936  0.06179555       0.009
   0.06088488 -0.00000000  0.06179555       0.009
   0.07610610 -0.01305468  0.06179555       0.018
  -0.01522122  0.06527340  0.06179555       0.018
   0.00000000  0.05221872  0.06179555       0.009
   0.09132732 -0.00000000  0.06179555       0.009
  -0.00000000  0.07832808  0.06179555       0.009
   0.00000000  0.00000000  0.08239407       0.005
   0.01522122 -0.01305468  0.08239407       0.018
   0.03044244 -0.02610936  0.08239407       0.018
   0.04566366 -0.03916404  0.08239407       0.018
   0.03044244 -0.00000000  0.08239407       0.009
   0.04566366 -0.01305468  0.08239407       0.018
   0.06088488 -0.02610936  0.08239407       0.018
  -0.03044244  0.05221872  0.08239407       0.018
  -0.01522122  0.03916404  0.08239407       0.018
  -0.00000000  0.02610936  0.08239407       0.009
   0.06088488 -0.00000000  0.08239407       0.009
   0.07610610 -0.01305468  0.08239407       0.018
  -0.01522122  0.06527340  0.08239407       0.018
   0.00000000  0.05221872  0.08239407       0.009
   0.09132732 -0.00000000  0.08239407       0.009
  -0.00000000  0.07832808  0.08239407       0.009
 
 k-points in reciprocal lattice and weights: KPOINTS                                 
   0.00000000  0.00000000  0.00000000       0.002
   0.14285714  0.00000000  0.00000000       0.009
   0.28571429  0.00000000  0.00000000       0.009
   0.42857143  0.00000000  0.00000000       0.009
   0.14285714  0.14285714  0.00000000       0.005
   0.28571429  0.14285714  0.00000000       0.009
   0.42857143  0.14285714  0.00000000       0.009
  -0.42857143  0.14285714  0.00000000       0.009
  -0.28571429  0.14285714  0.00000000       0.009
  -0.14285714  0.14285714  0.00000000       0.005
   0.28571429  0.28571429  0.00000000       0.005
   0.42857143  0.28571429  0.00000000       0.009
  -0.42857143  0.28571429  0.00000000       0.009
  -0.28571429  0.28571429  0.00000000       0.005
   0.42857143  0.42857143  0.00000000       0.005
  -0.42857143  0.42857143  0.00000000       0.005
   0.00000000  0.00000000  0.11111111       0.005
   0.14285714  0.00000000  0.11111111       0.018
   0.28571429  0.00000000  0.11111111       0.018
   0.42857143  0.00000000  0.11111111       0.018
   0.14285714  0.14285714  0.11111111       0.009
   0.28571429  0.14285714  0.11111111       0.018
   0.42857143  0.14285714  0.11111111       0.018
  -0.42857143  0.14285714  0.11111111       0.018
  -0.28571429  0.14285714  0.11111111       0.018
  -0.14285714  0.14285714  0.11111111       0.009
   0.28571429  0.28571429  0.11111111       0.009
   0.42857143  0.28571429  0.11111111       0.018
  -0.42857143  0.28571429  0.11111111       0.018
  -0.28571429  0.28571429  0.11111111       0.009
   0.42857143  0.42857143  0.11111111       0.009
  -0.42857143  0.42857143  0.11111111       0.009
   0.00000000  0.00000000  0.22222222       0.005
   0.14285714  0.00000000  0.22222222       0.018
   0.28571429  0.00000000  0.22222222       0.018
   0.42857143  0.00000000  0.22222222       0.018
   0.14285714  0.14285714  0.22222222       0.009
   0.28571429  0.14285714  0.22222222       0.018
   0.42857143  0.14285714  0.22222222       0.018
  -0.42857143  0.14285714  0.22222222       0.018
  -0.28571429  0.14285714  0.22222222       0.018
  -0.14285714  0.14285714  0.22222222       0.009
   0.28571429  0.28571429  0.22222222       0.009
   0.42857143  0.28571429  0.22222222       0.018
  -0.42857143  0.28571429  0.22222222       0.018
  -0.28571429  0.28571429  0.22222222       0.009
   0.42857143  0.42857143  0.22222222       0.009
  -0.42857143  0.42857143  0.22222222       0.009
   0.00000000  0.00000000  0.33333333       0.005
   0.14285714  0.00000000  0.33333333       0.018
   0.28571429  0.00000000  0.33333333       0.018
   0.42857143  0.00000000  0.33333333       0.018
   0.14285714  0.14285714  0.33333333       0.009
   0.28571429  0.14285714  0.33333333       0.018
   0.42857143  0.14285714  0.33333333       0.018
  -0.42857143  0.14285714  0.33333333       0.018
  -0.28571429  0.14285714  0.33333333       0.018
  -0.14285714  0.14285714  0.33333333       0.009
   0.28571429  0.28571429  0.33333333       0.009
   0.42857143  0.28571429  0.33333333       0.018
  -0.42857143  0.28571429  0.33333333       0.018
  -0.28571429  0.28571429  0.33333333       0.009
   0.42857143  0.42857143  0.33333333       0.009
  -0.42857143  0.42857143  0.33333333       0.009
   0.00000000  0.00000000  0.44444444       0.005
   0.14285714  0.00000000  0.44444444       0.018
   0.28571429  0.00000000  0.44444444       0.018
   0.42857143  0.00000000  0.44444444       0.018
   0.14285714  0.14285714  0.44444444       0.009
   0.28571429  0.14285714  0.44444444       0.018
   0.42857143  0.14285714  0.44444444       0.018
  -0.42857143  0.14285714  0.44444444       0.018
  -0.28571429  0.14285714  0.44444444       0.018
  -0.14285714  0.14285714  0.44444444       0.009
   0.28571429  0.28571429  0.44444444       0.009
   0.42857143  0.28571429  0.44444444       0.018
  -0.42857143  0.28571429  0.44444444       0.018
  -0.28571429  0.28571429  0.44444444       0.009
   0.42857143  0.42857143  0.44444444       0.009
  -0.42857143  0.42857143  0.44444444       0.009
 
 position of ions in fractional coordinates (direct lattice) 
   0.00000000  0.00000000  0.00000000
   0.00000000  0.50000000  0.00000000
   0.50000000  0.00000000  0.00000000
   0.50000000  0.50000000  0.00000000
   0.25000000  0.25000000  0.00000000
   0.25000000  0.75000000  0.00000000
   0.75000000  0.25000000  0.00000000
   0.75000000  0.75000000  0.00000000
   0.37500000  0.12500000  0.66209878
   0.37500000  0.62500000  0.66209878
   0.87500000  0.12500000  0.66209878
   0.87500000  0.62500000  0.66209878
   0.12500000  0.37500000  0.33790122
   0.12500000  0.87500000  0.33790122
   0.62500000  0.37500000  0.33790122
   0.62500000  0.87500000  0.33790122
 
 position of ions in cartesian coordinates  (Angst):
   0.00000000  0.00000000  0.00000000
   2.34634839  2.73574585  0.00000000
   2.34634839 -2.73574585  0.00000000
   4.69269677  0.00000000  0.00000000
   2.34634839  0.00000000  0.00000000
   4.69269677  2.73574585  0.00000000
   4.69269677 -2.73574585  0.00000000
   7.03904516 -0.00000000  0.00000000
   2.34634839 -1.36787292  3.57144797
   4.69269677  1.36787292  3.57144797
   4.69269677 -4.10361877  3.57144797
   7.03904516 -1.36787292  3.57144797
   2.34634839  1.36787292  1.82268362
   4.69269677  4.10361877  1.82268362
   4.69269677 -1.36787292  1.82268362
   7.03904516  1.36787292  1.82268362
 


--------------------------------------------------------------------------------------------------------


 k-point   1 :   0.0000 0.0000 0.0000  plane waves:    8133
 k-point   2 :   0.1429 0.0000 0.0000  plane waves:    8133
 k-point   3 :   0.2857 0.0000 0.0000  plane waves:    8115
 k-point   4 :   0.4286 0.0000 0.0000  plane waves:    8126
 k-point   5 :   0.1429 0.1429 0.0000  plane waves:    8116
 k-point   6 :   0.2857 0.1429 0.0000  plane waves:    8116
 k-point   7 :   0.4286 0.1429 0.0000  plane waves:    8123
 k-point   8 :  -0.4286 0.1429 0.0000  plane waves:    8114
 k-point   9 :  -0.2857 0.1429 0.0000  plane waves:    8104
 k-point  10 :  -0.1429 0.1429 0.0000  plane waves:    8115
 k-point  11 :   0.2857 0.2857 0.0000  plane waves:    8124
 k-point  12 :   0.4286 0.2857 0.0000  plane waves:    8126
 k-point  13 :  -0.4286 0.2857 0.0000  plane waves:    8114
 k-point  14 :  -0.2857 0.2857 0.0000  plane waves:    8093
 k-point  15 :   0.4286 0.4286 0.0000  plane waves:    8130
 k-point  16 :  -0.4286 0.4286 0.0000  plane waves:    8145
 k-point  17 :   0.0000 0.0000 0.1111  plane waves:    8103
 k-point  18 :   0.1429 0.0000 0.1111  plane waves:    8103
 k-point  19 :   0.2857 0.0000 0.1111  plane waves:    8118
 k-point  20 :   0.4286 0.0000 0.1111  plane waves:    8116
 k-point  21 :   0.1429 0.1429 0.1111  plane waves:    8103
 k-point  22 :   0.2857 0.1429 0.1111  plane waves:    8111
 k-point  23 :   0.4286 0.1429 0.1111  plane waves:    8122
 k-point  24 :  -0.4286 0.1429 0.1111  plane waves:    8123
 k-point  25 :  -0.2857 0.1429 0.1111  plane waves:    8108
 k-point  26 :  -0.1429 0.1429 0.1111  plane waves:    8107
 k-point  27 :   0.2857 0.2857 0.1111  plane waves:    8105
 k-point  28 :   0.4286 0.2857 0.1111  plane waves:    8120
 k-point  29 :  -0.4286 0.2857 0.1111  plane waves:    8124
 k-point  30 :  -0.2857 0.2857 0.1111  plane waves:    8123
 k-point  31 :   0.4286 0.4286 0.1111  plane waves:    8127
 k-point  32 :  -0.4286 0.4286 0.1111  plane waves:    8121
 k-point  33 :   0.0000 0.0000 0.2222  plane waves:    8099
 k-point  34 :   0.1429 0.0000 0.2222  plane waves:    8108
 k-point  35 :   0.2857 0.0000 0.2222  plane waves:    8123
 k-point  36 :   0.4286 0.0000 0.2222  plane waves:    8116
 k-point  37 :   0.1429 0.1429 0.2222  plane waves:    8120
 k-point  38 :   0.2857 0.1429 0.2222  plane waves:    8114
 k-point  39 :   0.4286 0.1429 0.2222  plane waves:    8120
 k-point  40 :  -0.4286 0.1429 0.2222  plane waves:    8119
 k-point  41 :  -0.2857 0.1429 0.2222  plane waves:    8112
 k-point  42 :  -0.1429 0.1429 0.2222  plane waves:    8098
 k-point  43 :   0.2857 0.2857 0.2222  plane waves:    8113
 k-point  44 :   0.4286 0.2857 0.2222  plane waves:    8103
 k-point  45 :  -0.4286 0.2857 0.2222  plane waves:    8114
 k-point  46 :  -0.2857 0.2857 0.2222  plane waves:    8121
 k-point  47 :   0.4286 0.4286 0.2222  plane waves:    8110
 k-point  48 :  -0.4286 0.4286 0.2222  plane waves:    8101
 k-point  49 :   0.0000 0.0000 0.3333  plane waves:    8092
 k-point  50 :   0.1429 0.0000 0.3333  plane waves:    8108
 k-point  51 :   0.2857 0.0000 0.3333  plane waves:    8113
 k-point  52 :   0.4286 0.0000 0.3333  plane waves:    8118
 k-point  53 :   0.1429 0.1429 0.3333  plane waves:    8100
 k-point  54 :   0.2857 0.1429 0.3333  plane waves:    8117
 k-point  55 :   0.4286 0.1429 0.3333  plane waves:    8108
 k-point  56 :  -0.4286 0.1429 0.3333  plane waves:    8109
 k-point  57 :  -0.2857 0.1429 0.3333  plane waves:    8114
 k-point  58 :  -0.1429 0.1429 0.3333  plane waves:    8095
 k-point  59 :   0.2857 0.2857 0.3333  plane waves:    8109
 k-point  60 :   0.4286 0.2857 0.3333  plane waves:    8110
 k-point  61 :  -0.4286 0.2857 0.3333  plane waves:    8113
 k-point  62 :  -0.2857 0.2857 0.3333  plane waves:    8088
 k-point  63 :   0.4286 0.4286 0.3333  plane waves:    8110
 k-point  64 :  -0.4286 0.4286 0.3333  plane waves:    8100
 k-point  65 :   0.0000 0.0000 0.4444  plane waves:    8122
 k-point  66 :   0.1429 0.0000 0.4444  plane waves:    8103
 k-point  67 :   0.2857 0.0000 0.4444  plane waves:    8104
 k-point  68 :   0.4286 0.0000 0.4444  plane waves:    8116
 k-point  69 :   0.1429 0.1429 0.4444  plane waves:    8120
 k-point  70 :   0.2857 0.1429 0.4444  plane waves:    8118
 k-point  71 :   0.4286 0.1429 0.4444  plane waves:    8107
 k-point  72 :  -0.4286 0.1429 0.4444  plane waves:    8122
 k-point  73 :  -0.2857 0.1429 0.4444  plane waves:    8110
 k-point  74 :  -0.1429 0.1429 0.4444  plane waves:    8099
 k-point  75 :   0.2857 0.2857 0.4444  plane waves:    8103
 k-point  76 :   0.4286 0.2857 0.4444  plane waves:    8113
 k-point  77 :  -0.4286 0.2857 0.4444  plane waves:    8109
 k-point  78 :  -0.2857 0.2857 0.4444  plane waves:    8120
 k-point  79 :   0.4286 0.4286 0.4444  plane waves:    8106
 k-point  80 :  -0.4286 0.4286 0.4444  plane waves:    8095

 maximum and minimum number of plane-waves per node :      8145     8088

 maximum number of plane-waves:      8145
 maximum index in each direction: 
   IXMAX=   14   IYMAX=   13   IZMAX=   10
   IXMIN=  -14   IYMIN=  -14   IZMIN=  -10


 serial   3D FFT for wavefunctions
 parallel 3D FFT for charge:
    minimum data exchange during FFTs selected (reduces bandwidth)


 total amount of memory used by VASP MPI-rank0   167914. kBytes
=======================================================================

   base      :      30000. kBytes
   nonlr-proj:      11944. kBytes
   fftplans  :       2458. kBytes
   grid      :      15239. kBytes
   one-center:        497. kBytes
   wavefun   :     107776. kBytes
 
     INWAV:  cpu time      0.0000: real time      0.0001
 Broyden mixing: mesh for mixing (old mesh)
   NGX = 27   NGY = 27   NGZ = 21
  (NGX  =112   NGY  =112   NGZ  = 84)
  gives a total of  15309 points

 initial charge density was supplied:
 charge density of overlapping atoms calculated
 number of electron     160.0000000 magnetization       0.0000000
 keeping initial charge density in first step


--------------------------------------------------------------------------------------------------------


 Maximum index for non-local projection operator         5853
 Maximum index for augmentation-charges         1159 (set IRDMAX)


--------------------------------------------------------------------------------------------------------


 First call to EWALD:  gamma=   0.272
 Maximum number of real-space cells 3x 3x 3
 Maximum number of reciprocal cells 3x 3x 2

    FEWALD:  cpu time      0.0014: real time      0.0015


--------------------------------------- Ionic step        1  -------------------------------------------




--------------------------------------- Iteration      1(   1)  ---------------------------------------


    POTLOK:  cpu time      0.0524: real time      0.0672
    SETDIJ:  cpu time      0.2670: real time      0.2679
     EDDAV:  cpu time     22.8729: real time     22.9550
       DOS:  cpu time      0.0021: real time      0.0023
    --------------------------------------------
      LOOP:  cpu time     23.1944: real time     23.2923

 eigenvalue-minimisations  : 33380
 total energy-change (2. order) : 0.2062931E+04  (-0.8888399E+04)
 number of electron     160.0000000 magnetization       0.0000000
 augmentation part      160.0000000 magnetization       0.0000000

 Free energy of the ion-electron system (eV)
  ---------------------------------------------------
  alpha Z        PSCENC =       916.79272664
  Ewald energy   TEWEN  =    -12101.12754319
  -Hartree energ DENC   =     -8504.92166776
  -exchange      EXHF   =         0.00000000
  -V(xc)+E(xc)   XCENC  =       568.27911990
  PAW double counting   =     15528.91560203   -16124.77252143
  entropy T*S    EENTRO =        -0.00915141
  eigenvalues    EBANDS =        68.93343109
  atomic energy  EATOM  =     21710.84102437
  Solvation  Ediel_sol  =         0.00000000
  ---------------------------------------------------
  free energy    TOTEN  =      2062.93102024 eV

  energy without entropy =     2062.94017165  energy(sigma->0) =     2062.93559595


--------------------------------------------------------------------------------------------------------




--------------------------------------- Iteration      1(   2)  ---------------------------------------


     EDDAV:  cpu time     22.5537: real time     22.6426
       DOS:  cpu time      0.0020: real time      0.0020
    --------------------------------------------
      LOOP:  cpu time     22.5557: real time     22.6446

 eigenvalue-minimisations  : 32000
 total energy-change (2. order) :-0.1942179E+04  (-0.1885584E+04)
 number of electron     160.0000000 magnetization       0.0000000
 augmentation part      160.0000000 magnetization       0.0000000

 Free energy of the ion-electron system (eV)
  ---------------------------------------------------
  alpha Z        PSCENC =       916.79272664
  Ewald energy   TEWEN  =    -12101.12754319
  -Hartree energ DENC   =     -8504.92166776
  -exchange      EXHF   =         0.00000000
  -V(xc)+E(xc)   XCENC  =       568.27911990
  PAW double counting   =     15528.91560203   -16124.77252143
  entropy T*S    EENTRO =        -0.01709175
  eigenvalues    EBANDS =     -1873.23779317
  atomic energy  EATOM  =     21710.84102437
  Solvation  Ediel_sol  =         0.00000000
  ---------------------------------------------------
  free energy    TOTEN  =       120.75185563 eV

  energy without entropy =      120.76894738  energy(sigma->0) =      120.76040151


--------------------------------------------------------------------------------------------------------




--------------------------------------- Iteration      1(   3)  ---------------------------------------


     EDDAV:  cpu time     29.4837: real time     29.6521
       DOS:  cpu time      0.0020: real time      0.0020
    --------------------------------------------
      LOOP:  cpu time     29.4857: real time     29.6541

 eigenvalue-minimisations  : 44260
 total energy-change (2. order) :-0.2039610E+03  (-0.1812569E+03)
 number of electron     160.0000000 magnetization       0.0000000
 augmentation part      160.0000000 magnetization       0.0000000

 Free energy of the ion-electron system (eV)
  ---------------------------------------------------
  alpha Z        PSCENC =       916.79272664
  Ewald energy   TEWEN  =    -12101.12754319
  -Hartree energ DENC   =     -8504.92166776
  -exchange      EXHF   =         0.00000000
  -V(xc)+E(xc)   XCENC  =       568.27911990
  PAW double counting   =     15528.91560203   -16124.77252143
  entropy T*S    EENTRO =        -0.02548508
  eigenvalues    EBANDS =     -2077.19042569
  atomic energy  EATOM  =     21710.84102437
  Solvation  Ediel_sol  =         0.00000000
  ---------------------------------------------------
  free energy    TOTEN  =       -83.20917022 eV

  energy without entropy =      -83.18368514  energy(sigma->0) =      -83.19642768


--------------------------------------------------------------------------------------------------------




--------------------------------------- Iteration      1(   4)  ---------------------------------------


     EDDAV:  cpu time     30.6342: real time     30.7429
       DOS:  cpu time      0.0027: real time      0.0027
    --------------------------------------------
      LOOP:  cpu time     30.6369: real time     30.7456

 eigenvalue-minimisations  : 46480
 total energy-change (2. order) :-0.1372019E+02  (-0.1334176E+02)
 number of electron     160.0000000 magnetization       0.0000000
 augmentation part      160.0000000 magnetization       0.0000000

 Free energy of the ion-electron system (eV)
  ---------------------------------------------------
  alpha Z        PSCENC =       916.79272664
  Ewald energy   TEWEN  =    -12101.12754319
  -Hartree energ DENC   =     -8504.92166776
  -exchange      EXHF   =         0.00000000
  -V(xc)+E(xc)   XCENC  =       568.27911990
  PAW double counting   =     15528.91560203   -16124.77252143
  entropy T*S    EENTRO =        -0.02602826
  eigenvalues    EBANDS =     -2090.91007071
  atomic energy  EATOM  =     21710.84102437
  Solvation  Ediel_sol  =         0.00000000
  ---------------------------------------------------
  free energy    TOTEN  =       -96.92935841 eV

  energy without entropy =      -96.90333015  energy(sigma->0) =      -96.91634428


--------------------------------------------------------------------------------------------------------




--------------------------------------- Iteration      1(   5)  ---------------------------------------


     EDDAV:  cpu time     29.3870: real time     29.5460
       DOS:  cpu time      0.0020: real time      0.0020
    CHARGE:  cpu time      0.6195: real time      0.6226
    MIXING:  cpu time      0.0014: real time      0.0014
    --------------------------------------------
      LOOP:  cpu time     30.0099: real time     30.1721

 eigenvalue-minimisations  : 45140
 total energy-change (2. order) :-0.3234843E+00  (-0.3225705E+00)
 number of electron     159.9999901 magnetization       0.0000000
 augmentation part       53.5302330 magnetization       0.0000000

 Broyden mixing:
  rms(total) = 0.25852E+01    rms(broyden)= 0.25849E+01
  rms(prec ) = 0.40593E+01
  weight for this iteration     100.00

 Free energy of the ion-electron system (eV)
  ---------------------------------------------------
  alpha Z        PSCENC =       916.79272664
  Ewald energy   TEWEN  =    -12101.12754319
  -Hartree energ DENC   =     -8504.92166776
  -exchange      EXHF   =         0.00000000
  -V(xc)+E(xc)   XCENC  =       568.27911990
  PAW double counting   =     15528.91560203   -16124.77252143
  entropy T*S    EENTRO =        -0.02567033
  eigenvalues    EBANDS =     -2091.23391295
  atomic energy  EATOM  =     21710.84102437
  Solvation  Ediel_sol  =         0.00000000
  ---------------------------------------------------
  free energy    TOTEN  =       -97.25284272 eV

  energy without entropy =      -97.22717240  energy(sigma->0) =      -97.24000756


--------------------------------------------------------------------------------------------------------




--------------------------------------- Iteration      1(   6)  ---------------------------------------


    POTLOK:  cpu time      0.0414: real time      0.0417
    SETDIJ:  cpu time      0.2644: real time      0.2650
    EDDIAG:  cpu time      3.6280: real time      3.6412
  RMM-DIIS:  cpu time     12.3579: real time     12.3974
    ORTHCH:  cpu time      0.5513: real time      0.5530
       DOS:  cpu time      0.0019: real time      0.0019
    CHARGE:  cpu time      0.5983: real time      0.6014
    MIXING:  cpu time      0.0012: real time      0.0012
    --------------------------------------------
      LOOP:  cpu time     17.4443: real time     17.5028

 eigenvalue-minimisations  : 32026
 total energy-change (2. order) :-0.1190645E+02  (-0.1404645E+02)
 number of electron     159.9999881 magnetization       0.0000000
 augmentation part       68.6792418 magnetization       0.0000000

 Broyden mixing:
  rms(total) = 0.43681E+01    rms(broyden)= 0.43680E+01
  rms(prec ) = 0.73486E+01
  weight for this iteration     100.00

 eigenvalues of (default mixing * dielectric matrix)
  average eigenvalue GAMMA=   0.3327
  0.3327

 Free energy of the ion-electron system (eV)
  ---------------------------------------------------
  alpha Z        PSCENC =       916.79272664
  Ewald energy   TEWEN  =    -12101.12754319
  -Hartree energ DENC   =     -8087.17624523
  -exchange      EXHF   =         0.00000000
  -V(xc)+E(xc)   XCENC  =       556.36856836
  PAW double counting   =     15098.45004971   -15664.52077373
  entropy T*S    EENTRO =        -0.02108018
  eigenvalues    EBANDS =     -2538.76602411
  atomic energy  EATOM  =     21710.84102437
  Solvation  Ediel_sol  =         0.00000000
  ---------------------------------------------------
  free energy    TOTEN  =      -109.15929736 eV

  energy without entropy =     -109.13821718  energy(sigma->0) =     -109.14875727


--------------------------------------------------------------------------------------------------------




--------------------------------------- Iteration      1(   7)  ---------------------------------------


    POTLOK:  cpu time      0.0410: real time      0.0413
    SETDIJ:  cpu time      0.2656: real time      0.2665
    EDDIAG:  cpu time      3.6351: real time      3.6484
  RMM-DIIS:  cpu time     12.5684: real time     12.6085
    ORTHCH:  cpu time      0.5545: real time      0.5562
       DOS:  cpu time      0.0020: real time      0.0020
    CHARGE:  cpu time      0.6182: real time      0.6204
    MIXING:  cpu time      0.0017: real time      0.0017
    --------------------------------------------
      LOOP:  cpu time     17.6865: real time     17.7451

 eigenvalue-minimisations  : 32010
 total energy-change (2. order) : 0.1895911E+02  (-0.3507061E+01)
 number of electron     159.9999896 magnetization      -0.0000000
 augmentation part       58.1943493 magnetization      -0.0000000

 Broyden mixing:
  rms(total) = 0.84782E+00    rms(broyden)= 0.84736E+00
  rms(prec ) = 0.10210E+01
  weight for this iteration     100.00

 eigenvalues of (default mixing * dielectric matrix)
  average eigenvalue GAMMA=   0.4576
  0.6369  0.2783

 Free energy of the ion-electron system (eV)
  ---------------------------------------------------
  alpha Z        PSCENC =       916.79272664
  Ewald energy   TEWEN  =    -12101.12754319
  -Hartree energ DENC   =     -8341.39368113
  -exchange      EXHF   =         0.00000000
  -V(xc)+E(xc)   XCENC  =       561.49354690
  PAW double counting   =     15557.14638388   -16153.59024442
  entropy T*S    EENTRO =        -0.02434729
  eigenvalues    EBANDS =     -2240.33805436
  atomic energy  EATOM  =     21710.84102437
  Solvation  Ediel_sol  =         0.00000000
  ---------------------------------------------------
  free energy    TOTEN  =       -90.20018860 eV

  energy without entropy =      -90.17584131  energy(sigma->0) =      -90.18801495


--------------------------------------------------------------------------------------------------------




--------------------------------------- Iteration      1(   8)  ---------------------------------------


    POTLOK:  cpu time      0.0447: real time      0.0843
    SETDIJ:  cpu time      0.2632: real time      0.2639
    EDDIAG:  cpu time      3.6186: real time      3.6315
  RMM-DIIS:  cpu time     15.9702: real time     16.0209
    ORTHCH:  cpu time      0.5524: real time      0.5542
       DOS:  cpu time      0.0020: real time      0.0020
    CHARGE:  cpu time      0.5950: real time      0.5978
    MIXING:  cpu time      0.0014: real time      0.0014
    --------------------------------------------
      LOOP:  cpu time     21.0476: real time     21.1561

 eigenvalue-minimisations  : 41256
 total energy-change (2. order) :-0.3897040E+00  (-0.2888818E+00)
 number of electron     159.9999896 magnetization       0.0000000
 augmentation part       58.5654184 magnetization       0.0000000

 Broyden mixing:
  rms(total) = 0.36136E+00    rms(broyden)= 0.36114E+00
  rms(prec ) = 0.48872E+00
  weight for this iteration     100.00

 eigenvalues of (default mixing * dielectric matrix)
  average eigenvalue GAMMA=   0.7318
  0.3268  0.9343  0.9343

 Free energy of the ion-electron system (eV)
  ---------------------------------------------------
  alpha Z        PSCENC =       916.79272664
  Ewald energy   TEWEN  =    -12101.12754319
  -Hartree energ DENC   =     -8330.14851136
  -exchange      EXHF   =         0.00000000
  -V(xc)+E(xc)   XCENC  =       561.77301010
  PAW double counting   =     15646.06817018   -16249.91033656
  entropy T*S    EENTRO =        -0.02346896
  eigenvalues    EBANDS =     -2244.85496381
  atomic energy  EATOM  =     21710.84102437
  Solvation  Ediel_sol  =         0.00000000
  ---------------------------------------------------
  free energy    TOTEN  =       -90.58989261 eV

  energy without entropy =      -90.56642365  energy(sigma->0) =      -90.57815813


--------------------------------------------------------------------------------------------------------




--------------------------------------- Iteration      1(   9)  ---------------------------------------


    POTLOK:  cpu time      0.0407: real time      0.0410
    SETDIJ:  cpu time      0.2653: real time      0.2659
    EDDIAG:  cpu time      3.4454: real time      3.4579
  RMM-DIIS:  cpu time     17.2267: real time     17.2831
    ORTHCH:  cpu time      0.5461: real time      0.5481
       DOS:  cpu time      0.0020: real time      0.0020
    CHARGE:  cpu time      0.5972: real time      0.5996
    MIXING:  cpu time      0.0013: real time      0.0013
    --------------------------------------------
      LOOP:  cpu time     22.1247: real time     22.1988

 eigenvalue-minimisations  : 46800
 total energy-change (2. order) :-0.4470018E-01  (-0.6922208E-01)
 number of electron     159.9999897 magnetization      -0.0000000
 augmentation part       58.7994925 magnetization      -0.0000000

 Broyden mixing:
  rms(total) = 0.19513E+00    rms(broyden)= 0.19494E+00
  rms(prec ) = 0.24832E+00
  weight for this iteration     100.00

 eigenvalues of (default mixing * dielectric matrix)
  average eigenvalue GAMMA=   0.9425
  0.3241  1.6029  1.0840  0.7590

 Free energy of the ion-electron system (eV)
  ---------------------------------------------------
  alpha Z        PSCENC =       916.79272664
  Ewald energy   TEWEN  =    -12101.12754319
  -Hartree energ DENC   =     -8318.04860591
  -exchange      EXHF   =         0.00000000
  -V(xc)+E(xc)   XCENC  =       561.88624882
  PAW double counting   =     15747.02525315   -16356.93422826
  entropy T*S    EENTRO =        -0.02342583
  eigenvalues    EBANDS =     -2251.04604257
  atomic energy  EATOM  =     21710.84102437
  Solvation  Ediel_sol  =         0.00000000
  ---------------------------------------------------
  free energy    TOTEN  =       -90.63459279 eV

  energy without entropy =      -90.61116696  energy(sigma->0) =      -90.62287987


--------------------------------------------------------------------------------------------------------




--------------------------------------- Iteration      1(  10)  ---------------------------------------


    POTLOK:  cpu time      0.0477: real time      0.0480
    SETDIJ:  cpu time      0.2626: real time      0.2634
    EDDIAG:  cpu time      3.5629: real time      3.5748
  RMM-DIIS:  cpu time     17.6462: real time     17.7032
    ORTHCH:  cpu time      0.5493: real time      0.5511
       DOS:  cpu time      0.0019: real time      0.0019
    CHARGE:  cpu time      0.5868: real time      0.5891
    MIXING:  cpu time      0.0016: real time      0.0016
    --------------------------------------------
      LOOP:  cpu time     22.6590: real time     22.7330

 eigenvalue-minimisations  : 45182
 total energy-change (2. order) :-0.3604207E-02  (-0.1626028E-01)
 number of electron     159.9999897 magnetization      -0.0000000
 augmentation part       58.9816913 magnetization      -0.0000000

 Broyden mixing:
  rms(total) = 0.83450E-01    rms(broyden)= 0.83310E-01
  rms(prec ) = 0.94242E-01
  weight for this iteration     100.00

 eigenvalues of (default mixing * dielectric matrix)
  average eigenvalue GAMMA=   1.0893
  2.4811  0.3238  0.9822  0.9822  0.6772

 Free energy of the ion-electron system (eV)
  ---------------------------------------------------
  alpha Z        PSCENC =       916.79272664
  Ewald energy   TEWEN  =    -12101.12754319
  -Hartree energ DENC   =     -8311.23717127
  -exchange      EXHF   =         0.00000000
  -V(xc)+E(xc)   XCENC  =       561.98548811
  PAW double counting   =     15832.36838522   -16446.47951804
  entropy T*S    EENTRO =        -0.02273184
  eigenvalues    EBANDS =     -2253.75885698
  atomic energy  EATOM  =     21710.84102437
  Solvation  Ediel_sol  =         0.00000000
  ---------------------------------------------------
  free energy    TOTEN  =       -90.63819699 eV

  energy without entropy =      -90.61546515  energy(sigma->0) =      -90.62683107


--------------------------------------------------------------------------------------------------------




--------------------------------------- Iteration      1(  11)  ---------------------------------------


    POTLOK:  cpu time      0.0482: real time      0.0916
    SETDIJ:  cpu time      0.2651: real time      0.2657
    EDDIAG:  cpu time      3.5506: real time      3.5635
  RMM-DIIS:  cpu time     17.0831: real time     17.1368
    ORTHCH:  cpu time      0.5551: real time      0.5569
       DOS:  cpu time      0.0020: real time      0.0020
    CHARGE:  cpu time      0.5877: real time      0.5903
    MIXING:  cpu time      0.0014: real time      0.0014
    --------------------------------------------
      LOOP:  cpu time     22.0931: real time     22.2083

 eigenvalue-minimisations  : 44260
 total energy-change (2. order) :-0.6456350E-02  (-0.3225353E-02)
 number of electron     159.9999897 magnetization       0.0000000
 augmentation part       58.9866023 magnetization       0.0000000

 Broyden mixing:
  rms(total) = 0.32538E-01    rms(broyden)= 0.32500E-01
  rms(prec ) = 0.39012E-01
  weight for this iteration     100.00

 eigenvalues of (default mixing * dielectric matrix)
  average eigenvalue GAMMA=   1.1323
  2.4638  1.5276  0.3239  1.0127  0.8262  0.6397

 Free energy of the ion-electron system (eV)
  ---------------------------------------------------
  alpha Z        PSCENC =       916.79272664
  Ewald energy   TEWEN  =    -12101.12754319
  -Hartree energ DENC   =     -8309.82066930
  -exchange      EXHF   =         0.00000000
  -V(xc)+E(xc)   XCENC  =       562.02944766
  PAW double counting   =     15877.25025642   -16493.06046334
  entropy T*S    EENTRO =        -0.02291427
  eigenvalues    EBANDS =     -2253.52651833
  atomic energy  EATOM  =     21710.84102437
  Solvation  Ediel_sol  =         0.00000000
  ---------------------------------------------------
  free energy    TOTEN  =       -90.64465334 eV

  energy without entropy =      -90.62173907  energy(sigma->0) =      -90.63319621


--------------------------------------------------------------------------------------------------------




--------------------------------------- Iteration      1(  12)  ---------------------------------------


    POTLOK:  cpu time      0.0404: real time      0.0406
    SETDIJ:  cpu time      0.2678: real time      0.2685
    EDDIAG:  cpu time      3.5709: real time      3.5828
  RMM-DIIS:  cpu time     15.9900: real time     16.0410
    ORTHCH:  cpu time      0.5560: real time      0.5578
       DOS:  cpu time      0.0021: real time      0.0021
    CHARGE:  cpu time      0.5997: real time      0.6019
    MIXING:  cpu time      0.0013: real time      0.0013
    --------------------------------------------
      LOOP:  cpu time     21.0282: real time     21.0961

 eigenvalue-minimisations  : 41481
 total energy-change (2. order) :-0.2375195E-02  (-0.7241908E-03)
 number of electron     159.9999897 magnetization      -0.0000000
 augmentation part       58.9726321 magnetization      -0.0000000

 Broyden mixing:
  rms(total) = 0.12380E-01    rms(broyden)= 0.12368E-01
  rms(prec ) = 0.16091E-01
  weight for this iteration     100.00

 eigenvalues of (default mixing * dielectric matrix)
  average eigenvalue GAMMA=   1.1221
  2.4398  1.6887  0.3239  1.0149  1.0149  0.7418  0.6308

 Free energy of the ion-electron system (eV)
  ---------------------------------------------------
  alpha Z        PSCENC =       916.79272664
  Ewald energy   TEWEN  =    -12101.12754319
  -Hartree energ DENC   =     -8310.59401780
  -exchange      EXHF   =         0.00000000
  -V(xc)+E(xc)   XCENC  =       562.02400857
  PAW double counting   =     15879.69645860   -16495.32470558
  entropy T*S    EENTRO =        -0.02323825
  eigenvalues    EBANDS =     -2252.93174189
  atomic energy  EATOM  =     21710.84102437
  Solvation  Ediel_sol  =         0.00000000
  ---------------------------------------------------
  free energy    TOTEN  =       -90.64702854 eV

  energy without entropy =      -90.62379029  energy(sigma->0) =      -90.63540942


--------------------------------------------------------------------------------------------------------




--------------------------------------- Iteration      1(  13)  ---------------------------------------


    POTLOK:  cpu time      0.0478: real time      0.0481
    SETDIJ:  cpu time      0.2626: real time      0.2633
    EDDIAG:  cpu time      3.5484: real time      3.5623
  RMM-DIIS:  cpu time     10.7035: real time     10.7380
    ORTHCH:  cpu time      0.5447: real time      0.5464
       DOS:  cpu time      0.0020: real time      0.0020
    --------------------------------------------
      LOOP:  cpu time     15.1090: real time     15.1601

 eigenvalue-minimisations  : 26415
 total energy-change (2. order) : 0.7130824E-04  (-0.1457422E-03)
 number of electron     159.9999897 magnetization      -0.0000000
 augmentation part       58.9726321 magnetization      -0.0000000

 Free energy of the ion-electron system (eV)
  ---------------------------------------------------
  alpha Z        PSCENC =       916.79272664
  Ewald energy   TEWEN  =    -12101.12754319
  -Hartree energ DENC   =     -8311.20613373
  -exchange      EXHF   =         0.00000000
  -V(xc)+E(xc)   XCENC  =       562.03584307
  PAW double counting   =     15877.25107322   -16492.59030350
  entropy T*S    EENTRO =        -0.02329796
  eigenvalues    EBANDS =     -2252.62034615
  atomic energy  EATOM  =     21710.84102437
  Solvation  Ediel_sol  =         0.00000000
  ---------------------------------------------------
  free energy    TOTEN  =       -90.64695723 eV

  energy without entropy =      -90.62365928  energy(sigma->0) =      -90.63530825


--------------------------------------------------------------------------------------------------------




 average (electrostatic) potential at core
  the test charge radii are     0.9500  1.0808
  (the norm of the test charge is              1.0000)
       1 -46.1313       2 -46.1313       3 -46.1313       4 -46.1313       5 -46.1313
       6 -46.1313       7 -46.1313       8 -46.1313       9 -54.0780      10 -54.0780
      11 -54.0780      12 -54.0780      13 -54.0780      14 -54.0780      15 -54.0780
      16 -54.0780
 
 
 
 E-fermi :   4.9554     XC(G=0): -11.0857     alpha+bet :-10.5044

 Fermi energy:         4.9554319628

 spin component 1

 k-point     1 :       0.0000    0.0000    0.0000
  band No.  band energies     occupation 
      1     -49.6247      1.00000
      2     -49.6099      1.00000
      3     -49.6079      1.00000
      4     -49.6079      1.00000
      5     -49.5961      1.00000
      6     -49.4803      1.00000
      7     -49.4676      1.00000
      8     -49.4676      1.00000
      9     -49.4515      1.00000
     10     -49.3945      1.00000
     11     -49.3945      1.00000
     12     -49.1749      1.00000
     13     -47.0789      1.00000
     14     -47.0733      1.00000
     15     -47.0694      1.00000
     16     -47.0694      1.00000
     17     -47.0678      1.00000
     18     -46.8433      1.00000
     19     -46.8433      1.00000
     20     -46.7010      1.00000
     21     -46.7009      1.00000
     22     -46.7009      1.00000
     23     -46.6960      1.00000
     24     -46.6024      1.00000
     25     -10.1865      1.00000
     26      -8.6033      1.00000
     27      -8.6033      1.00000
     28      -8.5895      1.00000
     29      -8.5895      1.00000
     30      -8.3113      1.00000
     31      -7.8655      1.00000
     32      -7.5917      1.00000
     33      -1.6724      1.00000
     34      -1.5191      1.00000
     35      -0.6236      1.00000
     36      -0.6236      1.00000
     37      -0.5437      1.00000
     38      -0.5437      1.00000
     39      -0.3468      1.00000
     40       0.2249      1.00000
     41       0.5798      1.00000
     42       0.6182      1.00000
     43       0.8388      1.00000
     44       0.9138      1.00000
     45       0.9138      1.00000
     46       0.9196      1.00000
     47       0.9196      1.00000
     48       1.1226      1.00000
     49       1.2521      1.00000
     50       1.5101      1.00000
     51       1.5101      1.00000
     52       1.9298      1.00000
     53       1.9298      1.00000
     54       2.0076      1.00000
     55       2.2508      1.00000
     56       2.3344      1.00000
     57       2.5703      1.00000
     58       2.6188      1.00000
     59       2.6188      1.00000
     60       2.6391      1.00000
     61       2.6391      1.00000
     62       2.6842      1.00000
     63       2.7044      1.00000
     64       2.9205      1.00000
     65       3.1736      1.00000
     66       3.1736      1.00000
     67       3.3126      1.00000
     68       3.3191      1.00000
     69       3.5306      1.00000
     70       3.5737      1.00000
     71       3.6469      1.00000
     72       3.6469      1.00000
     73       4.1723      1.00000
     74       4.1723      1.00000
     75       4.3046      1.00000
     76       4.3046      1.00000
     77       4.3871      1.00000
     78       4.5549      1.00000
     79       4.6874      1.00000
     80       4.7056      1.00000
     81       5.3103      0.00000
     82       5.3790      0.00000
     83       5.3790      0.00000
     84       5.3922      0.00000
     85       5.3922      0.00000
     86       5.4574      0.00000
     87       5.7581      0.00000
     88       5.7583      0.00000
     89       5.8061      0.00000
     90       5.8063      0.00000
     91       5.8122      0.00000
     92       6.1571      0.00000
     93       6.3835      0.00000
     94       6.4189      0.00000
     95       6.4552      0.00000
     96       6.5303      0.00000
     97       7.1470      0.00000
     98       7.1840      0.00000
     99       7.8781      0.00000
    100       8.4010      0.00000

 k-point     2 :       0.1429    0.0000    0.0000
  band No.  band energies     occupation 
      1     -49.6242      1.00000
      2     -49.6113      1.00000
      3     -49.6047      1.00000
      4     -49.6045      1.00000
      5     -49.5963      1.00000
      6     -49.4801      1.00000
      7     -49.4709      1.00000
      8     -49.4642      1.00000
      9     -49.4519      1.00000
     10     -49.4428      1.00000
     11     -49.3460      1.00000
     12     -49.1804      1.00000
     13     -47.0731      1.00000
     14     -47.0730      1.00000
     15     -47.0701      1.00000
     16     -47.0689      1.00000
     17     -47.0678      1.00000
     18     -46.8962      1.00000
     19     -46.7902      1.00000
     20     -46.7013      1.00000
     21     -46.7010      1.00000
     22     -46.7002      1.00000
     23     -46.6962      1.00000
     24     -46.6085      1.00000
     25     -10.1464      1.00000
     26      -8.9366      1.00000
     27      -8.6237      1.00000
     28      -8.5245      1.00000
     29      -8.3345      1.00000
     30      -8.2819      1.00000
     31      -7.8995      1.00000
     32      -7.6009      1.00000
     33      -1.6210      1.00000
     34      -1.4303      1.00000
     35      -0.6485      1.00000
     36      -0.5842      1.00000
     37      -0.5804      1.00000
     38      -0.4945      1.00000
     39      -0.3882      1.00000
     40       0.2260      1.00000
     41       0.5571      1.00000
     42       0.7176      1.00000
     43       0.7237      1.00000
     44       0.8210      1.00000
     45       0.8592      1.00000
     46       0.9809      1.00000
[...]
         0         1         2         3         4         5         6         7         8         9
 total charge-density along one line
 
 soft charge-density along one line, spin component           2
         0         1         2         3         4         5         6         7         8         9
 total charge-density along one line
 
 pseudopotential strength for first ion, spin component:           1
-54.181   0.021  -0.000  27.595  -0.018   0.000  -0.000  -0.000
  0.021 -54.252   0.000  -0.018  27.649  -0.000  -0.000  -0.000
 -0.000   0.000 -54.116   0.000  -0.000  27.543  -0.000  -0.000
 27.595  -0.018   0.000  -9.604   0.013  -0.000   0.000   0.000
 -0.018  27.649  -0.000   0.013  -9.641   0.000   0.000   0.000
  0.000  -0.000  27.543  -0.000   0.000  -9.570   0.000   0.000
 -0.000  -0.000  -0.000   0.000   0.000   0.000  -8.090   0.000
 -0.000  -0.000  -0.000   0.000   0.000   0.000   0.000  -7.905
  0.000  -0.000   0.000  -0.000   0.000  -0.000   0.000  -0.051
 -0.000  -0.000  -0.000   0.000   0.000   0.000  -0.045  -0.000
  0.000   0.000  -0.000  -0.000  -0.000   0.000  -0.000  -0.099
  0.000   0.000   0.000  -0.000  -0.000  -0.000  -0.255  -0.000
  0.000   0.000   0.000  -0.000  -0.000  -0.000  -0.000  -0.300
 -0.000   0.000  -0.000   0.000  -0.000   0.000  -0.000   0.012
  0.000   0.000   0.000  -0.000  -0.000  -0.000   0.010   0.000
 -0.000  -0.000   0.000   0.000   0.000  -0.000   0.000   0.023
  0.000   0.000   0.000  -0.000  -0.000  -0.000   0.000  -0.005
 -0.000  -0.000  -0.000   0.000   0.000   0.000  -0.000   0.001
 pseudopotential strength for first ion, spin component:           2
-52.193   0.105  -0.000  26.074  -0.077   0.000  -0.000  -0.000
  0.105 -52.223   0.000  -0.077  26.096  -0.000  -0.000  -0.000
 -0.000   0.000 -52.168   0.000  -0.000  26.047  -0.000  -0.000
 26.074  -0.077   0.000  -8.529   0.056  -0.000   0.000   0.000
 -0.077  26.096  -0.000   0.056  -8.545   0.000   0.000   0.000
  0.000  -0.000  26.047  -0.000   0.000  -8.513   0.000   0.000
 -0.000  -0.000  -0.000   0.000   0.000   0.000  -6.087   0.000
 -0.000  -0.000  -0.000   0.000   0.000   0.000   0.000  -6.431
  0.000  -0.000   0.000  -0.000   0.000  -0.000   0.000   0.119
 -0.000  -0.000  -0.000   0.000   0.000   0.000   0.115  -0.000
  0.000   0.000  -0.000  -0.000  -0.000   0.000  -0.000   0.026
  0.000   0.000   0.000  -0.000  -0.000  -0.000  -0.723  -0.000
  0.000   0.000   0.000  -0.000  -0.000  -0.000  -0.000  -0.643
 -0.000   0.000  -0.000   0.000  -0.000   0.000  -0.000  -0.026
  0.000   0.000   0.000  -0.000  -0.000  -0.000  -0.025   0.000
 -0.000  -0.000   0.000   0.000   0.000  -0.000   0.000  -0.007
  0.000   0.000   0.000  -0.000  -0.000  -0.000   0.000  -0.014
 -0.000  -0.000  -0.000   0.000   0.000   0.000  -0.000   0.004
 total augmentation occupancy for first ion, spin component:           1
  2.012  -0.018  -0.000   0.061  -0.043  -0.000   0.000   0.000   0.000  -0.000  -0.000   0.000  -0.000  -0.000   0.000   0.000
 -0.018   2.016  -0.000  -0.043   0.070   0.000  -0.000   0.000   0.000   0.000   0.000  -0.000   0.000   0.000  -0.000  -0.000
  0.000   0.000   2.013   0.000  -0.000   0.058   0.000   0.000  -0.000   0.000   0.000   0.000   0.000  -0.000   0.000  -0.000
  0.061  -0.043   0.000   0.204  -0.103   0.000   0.000  -0.000  -0.000   0.000   0.000   0.000   0.000  -0.000  -0.000   0.000
 -0.043   0.070   0.000  -0.103   0.226   0.000  -0.000  -0.000  -0.000  -0.000   0.000  -0.000   0.000   0.000   0.000  -0.000
 -0.000   0.000   0.058  -0.000   0.000   0.189  -0.000   0.000  -0.000   0.000   0.000   0.000   0.000   0.000   0.000  -0.000
  0.000  -0.000   0.000   0.000  -0.000   0.000   1.273   0.000  -0.000  -0.105  -0.000  -0.042   0.000   0.000  -0.060   0.000
 -0.000   0.000   0.000   0.000   0.000   0.000  -0.000   1.466  -0.026   0.000  -0.093   0.000   0.111  -0.156   0.000   0.089
  0.000   0.000  -0.000  -0.000  -0.000  -0.000  -0.000  -0.026   1.309  -0.000  -0.126  -0.000  -0.157   0.116  -0.000  -0.077
 -0.000   0.000   0.000   0.000  -0.000  -0.000  -0.105  -0.000  -0.000   1.291   0.000  -0.061   0.000  -0.000  -0.012   0.000
 -0.000  -0.000   0.000   0.000  -0.000   0.000   0.000  -0.093  -0.126  -0.000   1.510  -0.000   0.093  -0.075   0.000   0.198
  0.000  -0.000   0.000   0.000  -0.000   0.000  -0.042   0.000   0.000  -0.061   0.000   0.180  -0.000  -0.000  -0.025   0.000
  0.000   0.000   0.000  -0.000  -0.000   0.000   0.000   0.111  -0.157   0.000   0.093  -0.000   0.256  -0.077  -0.000   0.092
  0.000   0.000  -0.000   0.000   0.000   0.000   0.000  -0.156   0.116   0.000  -0.075   0.000  -0.077   0.181   0.000  -0.020
  0.000  -0.000  -0.000  -0.000   0.000   0.000  -0.060   0.000   0.000  -0.012  -0.000  -0.025   0.000  -0.000   0.170   0.000
 -0.000  -0.000  -0.000  -0.000   0.000  -0.000  -0.000   0.089  -0.077   0.000   0.198  -0.000   0.092  -0.020   0.000   0.148
  0.000   0.000   0.000   0.000   0.000  -0.000   0.000  -0.002  -0.052   0.000   0.088  -0.000  -0.312   0.026   0.000  -0.002
 -0.000   0.000   0.000  -0.000   0.000   0.000  -0.000   0.003   0.023  -0.000  -0.013   0.000   0.022  -0.006   0.000   0.003
 total augmentation occupancy for first ion, spin component:           2
 -0.005   0.000   0.000  -0.002  -0.000  -0.000  -0.000  -0.000  -0.000   0.000   0.000  -0.000   0.000  -0.000   0.000  -0.000
  0.000  -0.007   0.000  -0.001  -0.006  -0.000  -0.000  -0.000   0.000   0.000   0.000   0.000   0.000   0.000  -0.000  -0.000
  0.000   0.000  -0.007  -0.000   0.000  -0.004   0.000   0.000  -0.000  -0.000   0.000  -0.000  -0.000  -0.000  -0.000   0.000
 -0.002  -0.001  -0.000   0.014  -0.002   0.000   0.000  -0.000   0.000   0.000   0.000  -0.000   0.000  -0.000  -0.000   0.000
 -0.000  -0.006  -0.000  -0.002   0.003   0.000  -0.000  -0.000   0.000   0.000  -0.000   0.000  -0.000   0.000   0.000  -0.000
 -0.000  -0.000  -0.004   0.000  -0.000   0.014   0.000   0.000   0.000   0.000   0.000   0.000   0.000   0.000   0.000  -0.000
 -0.000  -0.000   0.000   0.000  -0.000   0.000   0.672   0.000   0.000   0.126  -0.000  -0.269   0.000  -0.000   0.002   0.000
 -0.000  -0.000   0.000  -0.000  -0.000   0.000  -0.000   0.366   0.132   0.000   0.049  -0.000  -0.183  -0.015  -0.000  -0.028
  0.000   0.000  -0.000   0.000   0.000   0.000   0.000   0.132   0.501  -0.000   0.157   0.000  -0.012  -0.197   0.000  -0.019
  0.000   0.000   0.000   0.000   0.000  -0.000   0.126   0.000  -0.000   0.629   0.000   0.004  -0.000  -0.000  -0.261  -0.000
  0.000  -0.000   0.000  -0.000   0.000   0.000   0.000   0.049   0.157   0.000   0.227  -0.000  -0.015  -0.013   0.000  -0.140
 -0.000   0.000   0.000  -0.000   0.000   0.000  -0.269   0.000  -0.000   0.004  -0.000   0.053  -0.000   0.000   0.007   0.000
 -0.000   0.000  -0.000   0.000   0.000   0.000   0.000  -0.183  -0.012  -0.000  -0.015  -0.000   0.005   0.027   0.000  -0.002
 -0.000  -0.000  -0.000  -0.000  -0.000   0.000   0.000  -0.015  -0.197   0.000  -0.013   0.000   0.027  -0.001  -0.000   0.004
  0.000  -0.000   0.000  -0.000   0.000  -0.000   0.002  -0.000   0.000  -0.261  -0.000   0.007   0.000   0.000   0.034   0.000
  0.000  -0.000   0.000   0.000   0.000  -0.000   0.000  -0.028  -0.019   0.000  -0.140  -0.000  -0.002   0.004   0.000  -0.022
 -0.000  -0.000   0.000   0.000  -0.000   0.000  -0.000   0.109   0.034  -0.000  -0.046  -0.000  -0.028   0.002   0.000  -0.021
  0.000   0.000   0.000   0.000   0.000   0.000   0.000   0.020   0.016   0.000  -0.014  -0.000  -0.002  -0.003  -0.000  -0.000


------------------------ aborting loop because EDIFF is reached ----------------------------------------





 total charge

# of ion       s       p       d       tot
------------------------------------------
    1        0.352   6.313   6.122  12.787
    2        0.352   6.313   6.122  12.787
    3        0.352   6.313   6.122  12.787
    4        0.352   6.313   6.122  12.787
    5        0.352   6.313   6.122  12.787
    6        0.352   6.313   6.122  12.787
    7        0.352   6.313   6.122  12.787
    8        0.352   6.313   6.122  12.787
    9        1.497   2.253   0.069   3.820
   10        1.497   2.253   0.069   3.820
   11        1.497   2.253   0.069   3.820
   12        1.497   2.253   0.069   3.820
   13        1.497   2.253   0.069   3.820
   14        1.497   2.253   0.069   3.820
   15        1.497   2.253   0.069   3.820
   16        1.497   2.253   0.069   3.820
--------------------------------------------------
tot         14.795  68.532  49.530 132.858



 magnetization (x)

# of ion       s       p       d       tot
------------------------------------------
    1        0.024   0.015   2.336   2.376
    2       -0.024  -0.015  -2.336  -2.376
    3       -0.024  -0.015  -2.336  -2.376
    4        0.024   0.015   2.336   2.376
    5        0.024   0.015   2.336   2.376
    6       -0.024  -0.015  -2.336  -2.376
    7       -0.024  -0.015  -2.336  -2.376
    8        0.024   0.015   2.336   2.376
    9        0.000   0.000   0.000   0.000
   10        0.000   0.000   0.000   0.000
   11        0.000   0.000   0.000   0.000
   12        0.000   0.000   0.000   0.000
   13        0.000   0.000   0.000   0.000
   14        0.000   0.000   0.000   0.000
   15        0.000   0.000   0.000   0.000
   16        0.000   0.000   0.000   0.000
--------------------------------------------------
tot          0.000   0.000   0.000   0.000
 
    CHARGE:  cpu time      0.6096: real time      0.6123
    FORLOC:  cpu time      0.0025: real time      0.0025
    FORNL :  cpu time      5.4401: real time      5.4586
    STRESS:  cpu time     16.3512: real time     16.4040
    FORCOR:  cpu time      0.0391: real time      0.0393
    FORHAR:  cpu time      0.0055: real time      0.0055
    MIXING:  cpu time      0.0013: real time      0.0013
    OFIELD:  cpu time      0.0000: real time      0.0000
    FORVDW:  cpu time      0.8768: real time      0.8791

  FORCE on cell =-STRESS in cart. coord.  units (eV):
  Direction    XX          YY          ZZ          XY          YZ          ZX
  --------------------------------------------------------------------------------------
  Alpha Z   916.79273   916.79273   916.79273
  Ewald   -1573.27443 -2334.51396 -8221.27881     0.00000    -0.00000    -0.00000
  Hartree  5014.66616  4354.88063 -1085.49424     0.00000     0.00000    -0.00000
  E(xc)    -898.51682  -900.94206  -900.01607     0.00000    -0.00000     0.00000
  Local   -5406.75193 -4002.48934  7360.19752     0.00000     0.00000    -0.00000
  n-local  -278.74553  -251.65356  -243.95679    -0.74286    -0.52511    -0.71062
  augment   527.31110   515.00318   511.00932     0.00000     0.00000     0.00000
  Kinetic  1711.02789  1715.24650  1675.67940     3.85865     0.13914     0.83742
  Fock        0.00000     0.00000     0.00000     0.00000     0.00000     0.00000
  vdW        -6.70209    -6.51904    -7.12069    -0.00000     0.00000     0.00000
  -------------------------------------------------------------------------------------
  Total       5.80709     5.80510     5.81237     0.00000     0.00000     0.00000
  in kB      33.58840    33.57687    33.61892     0.00000     0.00000     0.00000
  external pressure =       33.59 kB  Pullay stress =        0.00 kB


 VOLUME and BASIS-vectors are now :
 -----------------------------------------------------------------------------
  energy-cutoff  :      550.00
  volume of cell :      277.00
      direct lattice vectors                 reciprocal lattice vectors
     4.714706675 -5.449606077  0.000000000     0.106051136 -0.091749751  0.000000000
     4.714706675  5.449606077  0.000000000     0.106051136  0.091749751 -0.000000000
     0.000000000  0.000000000  5.390511594     0.000000000  0.000000000  0.185511149

  length of vectors
     7.206015919  7.206015919  5.390511594     0.140231453  0.140231453  0.185511149


 FORCES acting on ions
    electron-ion (+dipol)            ewald-force                    non-local-force                 convergence-correction
 -----------------------------------------------------------------------------------------------
   -.449E-12 0.202E-13 0.103E-13   -.711E-13 -.178E-13 -.355E-14   -.158E-21 -.122E-21 0.230E-23   -.267E-12 0.355E-12 0.259E-12
   0.854E-12 0.148E-11 0.279E-13   -.711E-13 -.178E-13 -.266E-14   -.333E-22 0.193E-21 -.236E-22   -.230E-12 0.161E-12 0.150E-12
   0.892E-12 0.483E-12 0.346E-10   -.717E-13 -.284E-13 -.284E-13   0.402E-22 0.133E-21 0.122E-22   0.235E-12 -.302E-12 0.619E-12
   0.722E-11 0.953E-11 0.157E-10   -.711E-13 -.249E-13 -.320E-13   0.664E-22 0.132E-22 0.422E-23   0.232E-12 -.239E-12 0.478E-12
   0.497E-11 0.414E-11 0.735E-11   0.155E-12 0.711E-14 0.977E-14   -.158E-21 -.568E-22 -.232E-22   -.354E-13 0.197E-12 0.346E-12
   -.426E-12 -.331E-11 0.788E-11   0.171E-12 0.711E-14 0.107E-13   0.609E-22 -.125E-21 0.360E-22   -.203E-12 -.116E-12 0.310E-12
   -.208E-10 -.251E-10 -.462E-10   0.142E-12 -.355E-14 0.142E-13   -.888E-22 -.151E-21 -.493E-22   -.201E-12 0.558E-13 0.484E-12
   0.160E-11 0.451E-11 -.446E-10   0.158E-12 0.000E+00 0.142E-13   0.116E-21 0.179E-21 -.273E-22   -.334E-12 0.572E-14 0.686E-12
   -.903E-07 0.318E-11 0.297E+03   -.435E-13 -.213E-13 -.298E+03   0.293E-17 -.470E-17 0.941E+00   0.174E-14 0.531E-13 0.959E-02
   -.903E-07 -.400E-12 0.297E+03   -.426E-13 -.139E-13 -.298E+03   -.175E-17 0.239E-17 0.941E+00   -.819E-13 0.456E-14 0.959E-02
   -.903E-07 0.565E-11 0.297E+03   -.426E-13 -.147E-13 -.298E+03   0.344E-17 -.134E-17 0.941E+00   0.516E-13 -.287E-13 0.959E-02
   -.903E-07 -.461E-13 0.297E+03   -.429E-13 -.213E-13 -.298E+03   -.325E-17 0.613E-17 0.941E+00   -.561E-14 -.110E-12 0.959E-02
   0.903E-07 -.682E-12 -.297E+03   -.423E-13 0.413E-13 0.298E+03   0.116E-17 -.262E-17 -.941E+00   -.152E-13 0.370E-13 -.959E-02
   0.903E-07 -.270E-12 -.297E+03   -.408E-13 0.444E-13 0.298E+03   0.159E-17 -.169E-17 -.941E+00   -.294E-13 0.262E-13 -.959E-02
   0.903E-07 -.337E-12 -.297E+03   -.447E-13 0.198E-13 0.298E+03   0.150E-17 0.221E-18 -.941E+00   0.452E-13 0.273E-14 -.959E-02
   0.903E-07 -.108E-11 -.297E+03   -.421E-13 0.228E-13 0.298E+03   0.187E-17 0.151E-19 -.941E+00   0.239E-14 -.321E-13 -.959E-02
 -----------------------------------------------------------------------------------------------
   -.116E-10 -.228E-11 -.276E-10   -.122E-14 -.213E-13 0.000E+00   0.749E-17 -.159E-17 -.111E-15   -.835E-12 0.704E-13 0.275E-11
 
 
 POSITION                                       TOTAL-FORCE (eV/Angst)
 -----------------------------------------------------------------------------------
     -0.00000      0.00000     -0.00000         0.000000      0.000000      0.000000
      2.35735      2.72480     -0.00000         0.000000      0.000000      0.000000
      2.35735     -2.72480      0.00000         0.000000      0.000000      0.000000
      4.71471      0.00000      0.00000         0.000000      0.000000      0.000000
      2.35735      0.00000      0.00000         0.000000      0.000000      0.000000
      4.71471      2.72480      0.00000         0.000000      0.000000      0.000000
      4.71471     -2.72480     -0.00000         0.000000      0.000000      0.000000
      7.07206      0.00000      0.00000         0.000000      0.000000      0.000000
      2.35735     -1.36240      3.56064        -0.000000     -0.000000     -0.018560
      4.71471      1.36240      3.56064        -0.000000     -0.000000     -0.018560
      4.71471     -4.08720      3.56064         0.000000     -0.000000     -0.018560
      7.07206     -1.36240      3.56064        -0.000000     -0.000000     -0.018560
      2.35735      1.36240      1.82987        -0.000000      0.000000      0.018560
      4.71471      4.08720      1.82987        -0.000000      0.000000      0.018560
      4.71471     -1.36240      1.82987        -0.000000      0.000000      0.018560
      7.07206      1.36240      1.82987         0.000000      0.000000      0.018560
 -----------------------------------------------------------------------------------
    total drift:                               -0.000000     -0.000000     -0.000000


--------------------------------------------------------------------------------------------------------



  FREE ENERGIE OF THE ION-ELECTRON SYSTEM (eV)
  ---------------------------------------------------
  free  energy   TOTEN  =       -98.22166239 eV

  energy  without entropy=      -98.19845238  energy(sigma->0) =      -98.21005739
 
 d Force = 0.1051612E-02[ 0.690E-03, 0.141E-02]  d Energy = 0.1946785E-02-0.895E-03
 d Force = 0.1112017E+02[ 0.111E+02, 0.112E+02]  d Ewald  = 0.1532848E+02-0.421E+01


--------------------------------------------------------------------------------------------------------


    POTLOK:  cpu time      0.3447: real time      0.3456


--------------------------------------------------------------------------------------------------------




--------------------------------------------------------------------------------------------------------


  
 reached required accuracy - stopping structural energy minimisation
     LOOP+:  cpu time    136.1490: real time    136.6797
    4ORBIT:  cpu time      0.0000: real time      0.0000



 total charge

# of ion       s       p       d       tot
------------------------------------------
    1        0.352   6.313   6.122  12.787
    2        0.352   6.313   6.122  12.787
    3        0.352   6.313   6.122  12.787
    4        0.352   6.313   6.122  12.787
    5        0.352   6.313   6.122  12.787
    6        0.352   6.313   6.122  12.787
    7        0.352   6.313   6.122  12.787
    8        0.352   6.313   6.122  12.787
    9        1.497   2.253   0.069   3.820
   10        1.497   2.253   0.069   3.820
   11        1.497   2.253   0.069   3.820
   12        1.497   2.253   0.069   3.820
   13        1.497   2.253   0.069   3.820
   14        1.497   2.253   0.069   3.820
   15        1.497   2.253   0.069   3.820
   16        1.497   2.253   0.069   3.820
--------------------------------------------------
tot         14.795  68.532  49.530 132.858



 magnetization (x)

# of ion       s       p       d       tot
------------------------------------------
    1        0.024   0.015   2.336   2.376
    2       -0.024  -0.015  -2.336  -2.376
    3       -0.024  -0.015  -2.336  -2.376
    4        0.024   0.015   2.336   2.376
    5        0.024   0.015   2.336   2.376
    6       -0.024  -0.015  -2.336  -2.376
    7       -0.024  -0.015  -2.336  -2.376
    8        0.024   0.015   2.336   2.376
    9        0.000   0.000   0.000   0.000
   10        0.000   0.000   0.000   0.000
   11        0.000   0.000   0.000   0.000
   12        0.000   0.000   0.000   0.000
   13        0.000   0.000   0.000   0.000
   14        0.000   0.000   0.000   0.000
   15        0.000   0.000   0.000   0.000
   16        0.000   0.000   0.000   0.000
--------------------------------------------------
tot          0.000   0.000   0.000   0.000
 

 total amount of memory used by VASP MPI-rank0   167914. kBytes
=======================================================================

   base      :      30000. kBytes
   nonlr-proj:      11944. kBytes
   fftplans  :       2458. kBytes
   grid      :      15239. kBytes
   one-center:        497. kBytes
   wavefun   :     107776. kBytes
 
  
  
 General timing and accounting informations for this job:
 ========================================================
  
                  Total CPU time used (sec):      600.395
                            User time (sec):      598.677
                          System time (sec):        1.719
                         Elapsed time (sec):      605.100
  
                   Maximum memory used (kb):      440968.
                   Average memory used (kb):          N/A
  
                          Minor page faults:       204234
                          Major page faults:            0
                 Voluntary context switches:        37486
