 vasp.6.4.1 05Apr23 (build Jun 01 2023 13:46:15) complex                        
  
 executed on             LinuxIFC date 2023.12.17  01:24:20
 running   20 mpi-ranks, on    5 nodes
 distrk:  each k-point on   20 cores,    1 groups
 distr:  one band on NCORE=   1 cores,   20 groups


--------------------------------------------------------------------------------------------------------


 INCAR:
   ALGO = Fast
   EDIFF = 0.0002
   ENCUT = 550
   IBRION = -1
   ISIF = 4
   ISMEAR = -5
   ISPIN = 2
   IVDW = 13
   LASPH = True
   LMAXMIX = 4
   LORBIT = 11
   LREAL = Auto
   LWAVE = False
   MAGMOM = 1*2.376 2*-2.376 2*2.376 2*-2.376 1*2.376 8*0.0
   NELM = 100
   NSW = 0
   PREC = Accurate
   SIGMA = 0.05

 POTCAR:   PAW_PBE Fe_pv 06Sep2000                
 POTCAR:   PAW_PBE Se 06Sep2000                   
 -----------------------------------------------------------------------------
|                                                                             |
|           W    W    AA    RRRRR   N    N  II  N    N   GGGG   !!!           |
|           W    W   A  A   R    R  NN   N  II  NN   N  G    G  !!!           |
|           W    W  A    A  R    R  N N  N  II  N N  N  G       !!!           |
|           W WW W  AAAAAA  RRRRR   N  N N  II  N  N N  G  GGG   !            |
|           WW  WW  A    A  R   R   N   NN  II  N   NN  G    G                |
|           W    W  A    A  R    R  N    N  II  N    N   GGGG   !!!           |
|                                                                             |
|     For optimal performance we recommend to set                             |
|       NCORE = 2 up to number-of-cores-per-socket                            |
|     NCORE specifies how many cores store one orbital (NPAR=cpu/NCORE).      |
|     This setting can greatly improve the performance of VASP for DFT.       |
|     The default, NCORE=1 might be grossly inefficient on modern             |
|     multi-core architectures or massively parallel machines. Do your        |
|     own testing! More info at https://www.vasp.at/wiki/index.php/NCORE      |
|     Unfortunately you need to use the default for GW and RPA                |
|     calculations (for HF NCORE is supported but not extensively tested      |
|     yet).                                                                   |
|                                                                             |
 -----------------------------------------------------------------------------

 POTCAR:   PAW_PBE Fe_pv 06Sep2000                
   VRHFIN =Fe:  3pd7s1                                                                              
   LEXCH  = PE                                                                                      
   EATOM  =  2456.8974 eV,  180.5769 Ry                                                             
                                                                                                    
   TITEL  = PAW_PBE Fe_pv 06Sep2000                                                                 
   LULTRA =        F    use ultrasoft PP ?                                                          
   IUNSCR =        1    unscreen: 0-lin 1-nonlin 2-no                                               
   RPACOR =    1.750    partial core radius                                                         
   POMASS =   55.847; ZVAL   =   14.000    mass and valenz                                          
   RCORE  =    2.200    outmost cutoff radius                                                       
   RWIGS  =    2.200; RWIGS  =    1.164    wigner-seitz radius (au A)                               
   ENMAX  =  293.238; ENMIN  =  219.929 eV                                                          
   RCLOC  =    1.701    cutoff for local pot                                                        
   LCOR   =        T    correct aug charges                                                         
   LPAW   =        T    paw PP                                                                      
   EAUG   =  578.342                                                                                
   DEXC   =    -.002                                                                                
   RMAX   =    2.693    core radius for proj-oper                                                   
   RAUG   =    1.300    factor for augmentation sphere                                              
   RDEP   =    2.296    radius for radial grids                                                     
   QCUT   =   -4.642; QGAM   =    9.285    optimization parameters                                  
                                                                                                    
   Description                                                                                      
     l     E      TYP  RCUT    TYP  RCUT                                                            
     1   .000     23  2.000                                                                         
     1  -.400     23  2.000                                                                         
     2   .000     23  2.200                                                                         
     2   .000     23  2.200                                                                         
     0   .000     23  2.000                                                                         
     0  2.000     23  2.000                                                                         
     3   .000      7   .000                                                                         
  local pseudopotential read in
  partial core-charges read in
  atomic valenz-charges read in
  non local Contribution for L=           1  read in
    real space projection operators read in
  non local Contribution for L=           1  read in
    real space projection operators read in
  non local Contribution for L=           2  read in
    real space projection operators read in
  non local Contribution for L=           2  read in
    real space projection operators read in
  non local Contribution for L=           0  read in
    real space projection operators read in
  non local Contribution for L=           0  read in
    real space projection operators read in
    PAW grid and wavefunctions read in
 
   number of l-projection  operators is LMAX  =           6
   number of lm-projection operators is LMMAX =          18
 
 POTCAR:   PAW_PBE Se 06Sep2000                   
   VRHFIN =Se: s2p4                                                                                 
   LEXCH  = PE                                                                                      
   EATOM  =   256.9644 eV,   18.8864 Ry                                                             
                                                                                                    
   TITEL  = PAW_PBE Se 06Sep2000                                                                    
   LULTRA =        F    use ultrasoft PP ?                                                          
   IUNSCR =        1    unscreen: 0-lin 1-nonlin 2-no                                               
   RPACOR =    1.900    partial core radius                                                         
   POMASS =   78.960; ZVAL   =    6.000    mass and valenz                                          
   RCORE  =    2.100    outmost cutoff radius                                                       
   RWIGS  =    2.200; RWIGS  =    1.164    wigner-seitz radius (au A)                               
   ENMAX  =  211.534; ENMIN  =  158.651 eV                                                          
   ICORE  =        3    local potential                                                             
   LCOR   =        T    correct aug charges                                                         
   LPAW   =        T    paw PP                                                                      
   EAUG   =  446.842                                                                                
   DEXC   =    -.031                                                                                
   RMAX   =    3.170    core radius for proj-oper                                                   
   RAUG   =    1.300    factor for augmentation sphere                                              
   RDEP   =    2.177    radius for radial grids                                                     
   QCUT   =   -3.943; QGAM   =    7.886    optimization parameters                                  
                                                                                                    
   Description                                                                                      
     l     E      TYP  RCUT    TYP  RCUT                                                            
     0   .000     23  2.100                                                                         
     0   .000     23  2.100                                                                         
     1   .000     23  2.100                                                                         
     1   .000     23  2.100                                                                         
     2   .000     23  2.100                                                                         
     3  -.100      7  2.100                                                                         
  local pseudopotential read in
  partial core-charges read in
  atomic valenz-charges read in
  non local Contribution for L=           0  read in
    real space projection operators read in
  non local Contribution for L=           0  read in
    real space projection operators read in
  non local Contribution for L=           1  read in
    real space projection operators read in
  non local Contribution for L=           1  read in
    real space projection operators read in
  non local Contribution for L=           2  read in
    real space projection operators read in
    PAW grid and wavefunctions read in
 
   number of l-projection  operators is LMAX  =           5
   number of lm-projection operators is LMMAX =          13
 
 Optimization of the real space projectors (new method)

 maximal supplied QI-value         = 17.01
 optimisation between [QCUT,QGAM] = [ 11.91, 23.98] = [ 39.69,161.04] Ry 
 Optimized for a Real-space Cutoff    1.45 Angstroem

   l    n(q)    QCUT    max X(q) W(low)/X(q) W(high)/X(q)  e(spline) 
   1     10    11.905     4.550    0.27E-05    0.11E-05    0.28E-07
   1     10    11.905     5.234    0.10E-04    0.61E-04    0.17E-06
   2      9    11.905     3.960    0.19E-04    0.73E-05    0.50E-07
   2      9    11.905    29.565    0.24E-03    0.51E-04    0.27E-06
   0     10    11.905    23.582    0.17E-04    0.10E-05    0.14E-07
   0     10    11.905    39.747    0.23E-04    0.68E-05    0.74E-07
 Optimization of the real space projectors (new method)

 maximal supplied QI-value         = 17.95
 optimisation between [QCUT,QGAM] = [ 11.85, 23.88] = [ 39.31,159.64] Ry 
 Optimized for a Real-space Cutoff    1.18 Angstroem

   l    n(q)    QCUT    max X(q) W(low)/X(q) W(high)/X(q)  e(spline) 
   0      8    11.849     6.499    0.17E-04    0.94E-05    0.89E-08
   0      8    11.849    52.623    0.21E-03    0.78E-04    0.81E-07
   1      8    11.849     4.229    0.79E-04    0.83E-04    0.23E-07
   1      8    11.849    29.991    0.12E-03    0.43E-03    0.14E-06
   2      7    11.849     3.719    0.22E-03    0.64E-04    0.38E-07
 PAW_PBE Fe_pv 06Sep2000                :
 energy of atom  1       EATOM=-2456.8974
 kinetic energy error for atom=    0.0060 (will be added to EATOM!!)
 PAW_PBE Se 06Sep2000                   :
 energy of atom  2       EATOM= -256.9644
 kinetic energy error for atom=    0.0007 (will be added to EATOM!!)
 
 
 POSCAR: Fe8 Se8
  positions in direct lattice
  velocities in cartesian coordinates
 exchange correlation table for  LEXCH =        8
   RHO(1)=    0.500       N(1)  =     2000
   RHO(2)=  100.500       N(2)  =     4000
 


--------------------------------------------------------------------------------------------------------


 ion  position               nearest neighbor table
   1  0.000  0.000  0.000-  11 2.28  14 2.28   5 2.36   8 2.36   7 2.72   6 2.72
   2  0.000  0.500  0.000-  12 2.28  13 2.28   6 2.36   7 2.36   5 2.72   8 2.72
   3  0.500  0.000  0.000-   9 2.28  16 2.28   6 2.36   7 2.36   5 2.72   8 2.72
   4  0.500  0.500  0.000-  10 2.28  15 2.28   5 2.36   8 2.36   7 2.72   6 2.72
   5  0.250  0.250  0.000-   9 2.28  13 2.28   1 2.36   4 2.36   3 2.72   2 2.72
   6  0.250  0.750  0.000-  10 2.28  14 2.28   2 2.36   3 2.36   1 2.72   4 2.72
   7  0.750  0.250  0.000-  11 2.28  15 2.28   2 2.36   3 2.36   1 2.72   4 2.72
   8  0.750  0.750  0.000-  12 2.28  16 2.28   1 2.36   4 2.36   3 2.72   2 2.72
   9  0.375  0.125  0.661-   3 2.28   5 2.28
  10  0.375  0.625  0.661-   4 2.28   6 2.28
  11  0.875  0.125  0.661-   1 2.28   7 2.28
  12  0.875  0.625  0.661-   2 2.28   8 2.28
  13  0.125  0.375  0.339-   2 2.28   5 2.28
  14  0.125  0.875  0.339-   1 2.28   6 2.28
  15  0.625  0.375  0.339-   4 2.28   7 2.28
  16  0.625  0.875  0.339-   3 2.28   8 2.28
 
  LATTYP: Found a base centered orthorhombic cell.
 ALAT       =     9.4294133497
 B/A-ratio  =     1.1558738333
 C/A-ratio  =     0.5716698796
  
  Lattice vectors:
  
 A1 = (   4.7147066749,  -5.4496060772,   0.0000000000)
 A2 = (   4.7147066749,   5.4496060772,   0.0000000000)
 A3 = (   0.0000000000,   0.0000000000,   5.3905115944)


Analysis of symmetry for initial positions (statically):
=====================================================================
 Subroutine PRICEL returns following result:
 
  LATTYP: Found a base centered orthorhombic cell.
 ALAT       =     4.7147066749
 B/A-ratio  =     1.1558738333
 C/A-ratio  =     1.1433397592
  
  Lattice vectors:
  
 A1 = (   2.3573533374,  -2.7248030386,   0.0000000000)
 A2 = (   2.3573533374,   2.7248030386,   0.0000000000)
 A3 = (   0.0000000000,   0.0000000000,   5.3905115944)
 
   4 primitive cells build up your supercell.
 

 Routine SETGRP: Setting up the symmetry group for a 
 base centered orthorhombic supercell.


 Subroutine GETGRP returns: Found  8 space group operations
 (whereof  4 operations were pure point group operations)
 out of a pool of  8 trial point group operations.


The static configuration has the point symmetry C_2h.
 The point group associated with its full space group is D_2h.


Analysis of symmetry for dynamics (positions and initial velocities):
=====================================================================
 Subroutine PRICEL returns following result:
 
  LATTYP: Found a base centered orthorhombic cell.
 ALAT       =     4.7147066749
 B/A-ratio  =     1.1558738333
 C/A-ratio  =     1.1433397592
  
  Lattice vectors:
  
 A1 = (   2.3573533374,  -2.7248030386,   0.0000000000)
 A2 = (   2.3573533374,   2.7248030386,   0.0000000000)
 A3 = (   0.0000000000,   0.0000000000,   5.3905115944)
 
   4 primitive cells build up your supercell.
 

 Routine SETGRP: Setting up the symmetry group for a 
 base centered orthorhombic supercell.


 Subroutine GETGRP returns: Found  8 space group operations
 (whereof  4 operations were pure point group operations)
 out of a pool of  8 trial point group operations.


The dynamic configuration has the point symmetry C_2h.
 The point group associated with its full space group is D_2h.


Analysis of structural, dynamic, and magnetic symmetry:
=====================================================================
 Subroutine PRICEL returns following result:
 
  LATTYP: Found a base centered orthorhombic cell.
 ALAT       =     4.7147066749
 B/A-ratio  =     1.1558738333
 C/A-ratio  =     1.1433397592
  
  Lattice vectors:
  
 A1 = (   2.3573533374,  -2.7248030386,   0.0000000000)
 A2 = (   2.3573533374,   2.7248030386,   0.0000000000)
 A3 = (   0.0000000000,   0.0000000000,   5.3905115944)
 
   4 primitive cells build up your supercell.
 

 Routine SETGRP: Setting up the symmetry group for a 
 base centered orthorhombic supercell.


 Subroutine GETGRP returns: Found  8 space group operations
 (whereof  4 operations were pure point group operations)
 out of a pool of  8 trial point group operations.


The overall configuration has the point symmetry C_2h.
 The point group associated with its full space group is D_2h.


 Subroutine INISYM returns: Found  8 space group operations
 (whereof  4 operations are pure point group operations),
 and found     4 'primitive' translations


----------------------------------------------------------------------------------------

                                     Primitive cell                                     

  volume of cell :      69.2500

  direct lattice vectors                    reciprocal lattice vectors
     2.357353337 -2.724803039  0.000000000     0.212102273 -0.183499502  0.000000000
     2.357353337  2.724803039  0.000000000     0.212102273  0.183499502  0.000000000
     0.000000000  0.000000000  5.390511594     0.000000000  0.000000000  0.185511149

  length of vectors
     3.603007960  3.603007960  5.390511594     0.280462905  0.280462905  0.185511149

  position of ions in fractional coordinates (direct lattice)
     0.000000000  0.000000000  0.000000000
     0.500000000  0.500000000  0.000000000
     0.750000000  0.250000000  0.660538247
     0.250000000  0.750000000  0.339461753

  ion indices of the primitive-cell ions
   primitive index   ion index
                 1           1
                 2           5
                 3          11
                 4          14

----------------------------------------------------------------------------------------

 
 
 KPOINTS: KPOINTS                                 

Automatic generation of k-mesh.
 Grid dimensions read from file:
 generate k-points for:    7    7    9

 Generating k-lattice:

  Cartesian coordinates                     Fractional coordinates (reciprocal lattice)
     0.015150162 -0.013107107  0.000000000     0.142857143 -0.000000000  0.000000000
     0.015150162  0.013107107  0.000000000    -0.000000000  0.142857143  0.000000000
     0.000000000  0.000000000  0.020612350     0.000000000  0.000000000  0.111111111

  Length of vectors
     0.020033065  0.020033065  0.020612350

  Shift w.r.t. Gamma in fractional coordinates (k-lattice)
     0.000000000  0.000000000  0.000000000

 TETIRR: Found    664 inequivalent tetrahedra from     2646
 
 Subroutine IBZKPT returns following result:
 ===========================================
 
 Found     80 irreducible k-points:
 
 Following reciprocal coordinates:
            Coordinates               Weight
  0.000000  0.000000  0.000000      1.000000
  0.142857 -0.000000  0.000000      4.000000
  0.285714  0.000000  0.000000      4.000000
  0.428571 -0.000000  0.000000      4.000000
  0.142857  0.142857  0.000000      2.000000
  0.285714  0.142857  0.000000      4.000000
  0.428571  0.142857  0.000000      4.000000
 -0.428571  0.142857  0.000000      4.000000
 -0.285714  0.142857  0.000000      4.000000
 -0.142857  0.142857  0.000000      2.000000
  0.285714  0.285714  0.000000      2.000000
  0.428571  0.285714  0.000000      4.000000
 -0.428571  0.285714  0.000000      4.000000
 -0.285714  0.285714  0.000000      2.000000
  0.428571  0.428571  0.000000      2.000000
 -0.428571  0.428571  0.000000      2.000000
  0.000000  0.000000  0.111111      2.000000
  0.142857 -0.000000  0.111111      8.000000
  0.285714  0.000000  0.111111      8.000000
  0.428571 -0.000000  0.111111      8.000000
  0.142857  0.142857  0.111111      4.000000
  0.285714  0.142857  0.111111      8.000000
  0.428571  0.142857  0.111111      8.000000
 -0.428571  0.142857  0.111111      8.000000
 -0.285714  0.142857  0.111111      8.000000
 -0.142857  0.142857  0.111111      4.000000
  0.285714  0.285714  0.111111      4.000000
  0.428571  0.285714  0.111111      8.000000
 -0.428571  0.285714  0.111111      8.000000
 -0.285714  0.285714  0.111111      4.000000
  0.428571  0.428571  0.111111      4.000000
 -0.428571  0.428571  0.111111      4.000000
  0.000000  0.000000  0.222222      2.000000
  0.142857 -0.000000  0.222222      8.000000
  0.285714  0.000000  0.222222      8.000000
  0.428571 -0.000000  0.222222      8.000000
  0.142857  0.142857  0.222222      4.000000
  0.285714  0.142857  0.222222      8.000000
  0.428571  0.142857  0.222222      8.000000
 -0.428571  0.142857  0.222222      8.000000
 -0.285714  0.142857  0.222222      8.000000
 -0.142857  0.142857  0.222222      4.000000
  0.285714  0.285714  0.222222      4.000000
  0.428571  0.285714  0.222222      8.000000
 -0.428571  0.285714  0.222222      8.000000
 -0.285714  0.285714  0.222222      4.000000
  0.428571  0.428571  0.222222      4.000000
 -0.428571  0.428571  0.222222      4.000000
  0.000000  0.000000  0.333333      2.000000
  0.142857 -0.000000  0.333333      8.000000
  0.285714  0.000000  0.333333      8.000000
  0.428571 -0.000000  0.333333      8.000000
  0.142857  0.142857  0.333333      4.000000
  0.285714  0.142857  0.333333      8.000000
  0.428571  0.142857  0.333333      8.000000
 -0.428571  0.142857  0.333333      8.000000
 -0.285714  0.142857  0.333333      8.000000
 -0.142857  0.142857  0.333333      4.000000
  0.285714  0.285714  0.333333      4.000000
  0.428571  0.285714  0.333333      8.000000
 -0.428571  0.285714  0.333333      8.000000
 -0.285714  0.285714  0.333333      4.000000
  0.428571  0.428571  0.333333      4.000000
 -0.428571  0.428571  0.333333      4.000000
  0.000000  0.000000  0.444444      2.000000
  0.142857 -0.000000  0.444444      8.000000
  0.285714  0.000000  0.444444      8.000000
  0.428571 -0.000000  0.444444      8.000000
  0.142857  0.142857  0.444444      4.000000
  0.285714  0.142857  0.444444      8.000000
  0.428571  0.142857  0.444444      8.000000
 -0.428571  0.142857  0.444444      8.000000
 -0.285714  0.142857  0.444444      8.000000
 -0.142857  0.142857  0.444444      4.000000
  0.285714  0.285714  0.444444      4.000000
  0.428571  0.285714  0.444444      8.000000
 -0.428571  0.285714  0.444444      8.000000
 -0.285714  0.285714  0.444444      4.000000
  0.428571  0.428571  0.444444      4.000000
 -0.428571  0.428571  0.444444      4.000000
 
 Following cartesian coordinates:
            Coordinates               Weight
  0.000000  0.000000  0.000000      1.000000
  0.015150 -0.013107  0.000000      4.000000
  0.030300 -0.026214  0.000000      4.000000
  0.045450 -0.039321  0.000000      4.000000
  0.030300  0.000000  0.000000      2.000000
  0.045450 -0.013107  0.000000      4.000000
  0.060601 -0.026214  0.000000      4.000000
 -0.030300  0.052428  0.000000      4.000000
 -0.015150  0.039321  0.000000      4.000000
  0.000000  0.026214  0.000000      2.000000
  0.060601 -0.000000  0.000000      2.000000
  0.075751 -0.013107  0.000000      4.000000
 -0.015150  0.065536  0.000000      4.000000
 -0.000000  0.052428  0.000000      2.000000
  0.090901 -0.000000  0.000000      2.000000
  0.000000  0.078643  0.000000      2.000000
  0.000000  0.000000  0.020612      2.000000
  0.015150 -0.013107  0.020612      8.000000
  0.030300 -0.026214  0.020612      8.000000
  0.045450 -0.039321  0.020612      8.000000
  0.030300  0.000000  0.020612      4.000000
  0.045450 -0.013107  0.020612      8.000000
  0.060601 -0.026214  0.020612      8.000000
 -0.030300  0.052428  0.020612      8.000000
 -0.015150  0.039321  0.020612      8.000000
  0.000000  0.026214  0.020612      4.000000
  0.060601 -0.000000  0.020612      4.000000
  0.075751 -0.013107  0.020612      8.000000
 -0.015150  0.065536  0.020612      8.000000
 -0.000000  0.052428  0.020612      4.000000
  0.090901 -0.000000  0.020612      4.000000
  0.000000  0.078643  0.020612      4.000000
  0.000000  0.000000  0.041225      2.000000
  0.015150 -0.013107  0.041225      8.000000
  0.030300 -0.026214  0.041225      8.000000
  0.045450 -0.039321  0.041225      8.000000
  0.030300  0.000000  0.041225      4.000000
  0.045450 -0.013107  0.041225      8.000000
  0.060601 -0.026214  0.041225      8.000000
 -0.030300  0.052428  0.041225      8.000000
 -0.015150  0.039321  0.041225      8.000000
  0.000000  0.026214  0.041225      4.000000
  0.060601 -0.000000  0.041225      4.000000
  0.075751 -0.013107  0.041225      8.000000
 -0.015150  0.065536  0.041225      8.000000
 -0.000000  0.052428  0.041225      4.000000
  0.090901 -0.000000  0.041225      4.000000
  0.000000  0.078643  0.041225      4.000000
  0.000000  0.000000  0.061837      2.000000
  0.015150 -0.013107  0.061837      8.000000
  0.030300 -0.026214  0.061837      8.000000
  0.045450 -0.039321  0.061837      8.000000
  0.030300  0.000000  0.061837      4.000000
  0.045450 -0.013107  0.061837      8.000000
  0.060601 -0.026214  0.061837      8.000000
 -0.030300  0.052428  0.061837      8.000000
 -0.015150  0.039321  0.061837      8.000000
  0.000000  0.026214  0.061837      4.000000
  0.060601 -0.000000  0.061837      4.000000
  0.075751 -0.013107  0.061837      8.000000
 -0.015150  0.065536  0.061837      8.000000
 -0.000000  0.052428  0.061837      4.000000
  0.090901 -0.000000  0.061837      4.000000
  0.000000  0.078643  0.061837      4.000000
  0.000000  0.000000  0.082449      2.000000
  0.015150 -0.013107  0.082449      8.000000
  0.030300 -0.026214  0.082449      8.000000
  0.045450 -0.039321  0.082449      8.000000
  0.030300  0.000000  0.082449      4.000000
  0.045450 -0.013107  0.082449      8.000000
  0.060601 -0.026214  0.082449      8.000000
 -0.030300  0.052428  0.082449      8.000000
 -0.015150  0.039321  0.082449      8.000000
  0.000000  0.026214  0.082449      4.000000
  0.060601 -0.000000  0.082449      4.000000
  0.075751 -0.013107  0.082449      8.000000
 -0.015150  0.065536  0.082449      8.000000
 -0.000000  0.052428  0.082449      4.000000
  0.090901 -0.000000  0.082449      4.000000
  0.000000  0.078643  0.082449      4.000000
 


--------------------------------------------------------------------------------------------------------




 Dimension of arrays:
   k-points           NKPTS =     80   k-points in BZ     NKDIM =     80   number of bands    NBANDS=    100
   number of dos      NEDOS =    301   number of ions     NIONS =     16
   non local maximal  LDIM  =      6   non local SUM 2l+1 LMDIM =     18
   total plane-waves  NPLWV = 131712
   max r-space proj   IRMAX =   6096   max aug-charges    IRDMAX=  20933
   dimension x,y,z NGX =    56 NGY =   56 NGZ =   42
   dimension x,y,z NGXF=   112 NGYF=  112 NGZF=   84
   support grid    NGXF=   112 NGYF=  112 NGZF=   84
   ions per type =               8   8
   NGX,Y,Z   is equivalent  to a cutoff of  12.92, 12.92, 12.95 a.u.
   NGXF,Y,Z  is equivalent  to a cutoff of  25.84, 25.84, 25.91 a.u.

 SYSTEM =  unknown system                          
 POSCAR =  Fe8 Se8                                 

 Startparameter for this run:
   NWRITE =      2    write-flag & timer
   PREC   = accura    normal or accurate (medium, high low for compatibility)
   ISTART =      0    job   : 0-new  1-cont  2-samecut
   ICHARG =      2    charge: 1-file 2-atom 10-const
   ISPIN  =      2    spin polarized calculation?
   LNONCOLLINEAR =      F non collinear calculations
   LSORBIT =      F    spin-orbit coupling
   INIWAV =      1    electr: 0-lowe 1-rand  2-diag
   LASPH  =      T    aspherical Exc in radial PAW
 Electronic Relaxation 1
   ENCUT  =  550.0 eV  40.42 Ry    6.36 a.u.  13.78 13.78 10.31*2*pi/ulx,y,z
   ENINI  =  550.0     initial cutoff
   ENAUG  =  578.3 eV  augmentation charge cutoff
   NELM   =    100;   NELMIN=  2; NELMDL=  0     # of ELM steps 
   EDIFF  = 0.2E-03   stopping-criterion for ELM
   LREAL  =      T    real-space projection
   NLSPLINE    = F    spline interpolate recip. space projectors
   LCOMPAT=      F    compatible to vasp.4.4
   GGA_COMPAT  = T    GGA compatible to vasp.4.4-vasp.4.6
   LMAXPAW     = -100 max onsite density
   LMAXMIX     =    4 max onsite mixed and CHGCAR
   VOSKOWN=      0    Vosko Wilk Nusair interpolation
   ROPT   =   -0.00025  -0.00025
 Ionic relaxation
   EDIFFG = 0.2E-02   stopping-criterion for IOM
   NSW    =      0    number of steps for IOM
   NBLOCK =      1;   KBLOCK =      1    inner block; outer block 
   IBRION =     -1    ionic relax: 0-MD 1-quasi-New 2-CG
   NFREE  =      0    steps in history (QN), initial steepest desc. (CG)
   ISIF   =      4    stress and relaxation
   IWAVPR =     10    prediction:  0-non 1-charg 2-wave 3-comb
   ISYM   =      2    0-nonsym 1-usesym 2-fastsym
   LCORR  =      T    Harris-Foulkes like correction to forces

   POTIM  = 0.5000    time-step for ionic-motion
   TEIN   =    0.0    initial temperature
   TEBEG  =    0.0;   TEEND  =   0.0 temperature during run
   SMASS  =  -3.00    Nose mass-parameter (am)
   estimated Nose-frequenzy (Omega)   =  0.10E-29 period in steps = 0.13E+47 mass=  -0.119E-26a.u.
   SCALEE = 1.0000    scale energy and forces
   NPACO  =    256;   APACO  = 10.0  distance and # of slots for P.C.
   PSTRESS=    0.0 pullay stress

  Mass of Ions in am
   POMASS =  55.85 78.96
  Ionic Valenz
   ZVAL   =  14.00  6.00
  Atomic Wigner-Seitz radii
   RWIGS  =  -1.00 -1.00
  virtual crystal weights 
   VCA    =   1.00  1.00
   NELECT =     160.0000    total number of electrons
   NUPDOWN=      -1.0000    fix difference up-down

 DOS related values:
   EMIN   =  10.00;   EMAX   =-10.00  energy-range for DOS
   EFERMI =   0.00;   METHOD = LEGACY      
   ISMEAR =    -5;   SIGMA  =   0.05  broadening in eV -4-tet -1-fermi 0-gaus

 Electronic relaxation 2 (details)
   IALGO  =     68    algorithm
   LDIAG  =      T    sub-space diagonalisation (order eigenvalues)
   LSUBROT=      F    optimize rotation matrix (better conditioning)
   TURBO    =      0    0=normal 1=particle mesh
   IRESTART =      0    0=no restart 2=restart with 2 vectors
   NREBOOT  =      0    no. of reboots
   NMIN     =      0    reboot dimension
   EREF     =   0.00    reference energy to select bands
   IMIX   =      4    mixing-type and parameters
     AMIX     =   0.40;   BMIX     =  1.00
     AMIX_MAG =   1.60;   BMIX_MAG =  1.00
     AMIN     =   0.10
     WC   =   100.;   INIMIX=   1;  MIXPRE=   1;  MAXMIX= -45

 Intra band minimization:
   WEIMIN = 0.0000     energy-eigenvalue tresh-hold
   EBREAK =  0.50E-06  absolut break condition
   DEPER  =   0.30     relativ break condition  

   TIME   =   0.40     timestep for ELM

  volume/ion in A,a.u.               =      17.31       116.83
  Fermi-wavevector in a.u.,A,eV,Ry     =   1.363395  2.576442 25.291119  1.858845
  Thomas-Fermi vector in A             =   2.489801
 
 Write flags
   LWAVE        =      F    write WAVECAR
   LDOWNSAMPLE  =      F    k-point downsampling of WAVECAR
   LCHARG       =      T    write CHGCAR
   LVTOT        =      F    write LOCPOT, total local potential
   LVHAR        =      F    write LOCPOT, Hartree potential only
   LELF         =      F    write electronic localiz. function (ELF)
   LORBIT       =     11    0 simple, 1 ext, 2 COOP (PROOUT), +10 PAW based schemes


 Dipole corrections
   LMONO  =      F    monopole corrections only (constant potential shift)
   LDIPOL =      F    correct potential (dipole corrections)
   IDIPOL =      0    1-x, 2-y, 3-z, 4-all directions 
   EPSILON=  1.0000000 bulk dielectric constant

 Exchange correlation treatment:
   GGA     =    --    GGA type
   LEXCH   =     8    internal setting for exchange type
   LIBXC   =     F    Libxc                    
   VOSKOWN =     0    Vosko Wilk Nusair interpolation
   LHFCALC =     F    Hartree Fock is set to
   LHFONE  =     F    Hartree Fock one center treatment
   AEXX    =    0.0000 exact exchange contribution

 Linear response parameters
   LEPSILON=     F    determine dielectric tensor
   LRPA    =     F    only Hartree local field effects (RPA)
   LNABLA  =     F    use nabla operator in PAW spheres
   LVEL    =     F    velocity operator in full k-point grid
   CSHIFT  =0.1000    complex shift for real part using Kramers Kronig
   OMEGAMAX=  -1.0    maximum frequency
   DEG_THRESHOLD= 0.2000000E-02 threshold for treating states as degnerate
   RTIME   =   -0.100 relaxation time in fs
  (WPLASMAI=    0.000 imaginary part of plasma frequency in eV, 0.658/RTIME)
   DFIELD  = 0.0000000 0.0000000 0.0000000 field for delta impulse in time
 
  Optional k-point grid parameters
   LKPOINTS_OPT  =     F    use optional k-point grid
   KPOINTS_OPT_MODE=     1    mode for optional k-point grid
 
 Orbital magnetization related:
   ORBITALMAG=     F  switch on orbital magnetization
   LCHIMAG   =     F  perturbation theory with respect to B field
   DQ        =  0.001000  dq finite difference perturbation B field
   LLRAUG    =     F  two centre corrections for induced B field
   LBONE     =     F  B-component reconstruction in AE one-centre
   LVGVCALC  =     T  calculate vGv susceptibility
   LVGVAPPL  =     F  apply vGv susceptibility instead of pGv for G=0

 Random number generation:
   RANDOM_GENERATOR = DEFAULT
   PCG_SEED         = not used


--------------------------------------------------------------------------------------------------------


 Static calculation
 charge density and potential will be updated during run
 spin polarized calculation
 RMM-DIIS sequential band-by-band and
  variant of blocked Davidson during initial phase
 perform sub-space diagonalisation
    before iterative eigenvector-optimisation
 modified Broyden-mixing scheme, WC =      100.0
 initial mixing is a Kerker type mixing with AMIX =  0.4000 and BMIX =      1.0000
 Hartree-type preconditioning will be used
 using additional bands           20
 real space projection scheme for non local part
 use partial core corrections
 calculate Harris-corrections to forces 
   (improved forces if not selfconsistent)
 use gradient corrections 
 use of overlap-Matrix (Vanderbilt PP)
 Fermi weights with tetrahedron method with Bloechl corrections


--------------------------------------------------------------------------------------------------------


  energy-cutoff  :      550.00
  volume of cell :      277.00
      direct lattice vectors                 reciprocal lattice vectors
     4.714706675 -5.449606077  0.000000000     0.106051136 -0.091749751  0.000000000
     4.714706675  5.449606077  0.000000000     0.106051136  0.091749751  0.000000000
     0.000000000  0.000000000  5.390511594     0.000000000  0.000000000  0.185511149

  length of vectors
     7.206015919  7.206015919  5.390511594     0.140231453  0.140231453  0.185511149


 
 k-points in units of 2pi/SCALE and weight: KPOINTS                                 
   0.00000000  0.00000000  0.00000000       0.002
   0.01515016 -0.01310711  0.00000000       0.009
   0.03030032 -0.02621421  0.00000000       0.009
   0.04545049 -0.03932132  0.00000000       0.009
   0.03030032 -0.00000000  0.00000000       0.005
   0.04545049 -0.01310711  0.00000000       0.009
   0.06060065 -0.02621421  0.00000000       0.009
  -0.03030032  0.05242843  0.00000000       0.009
  -0.01515016  0.03932132  0.00000000       0.009
   0.00000000  0.02621421  0.00000000       0.005
   0.06060065  0.00000000  0.00000000       0.005
   0.07575081 -0.01310711  0.00000000       0.009
  -0.01515016  0.06553554  0.00000000       0.009
   0.00000000  0.05242843  0.00000000       0.005
   0.09090097  0.00000000  0.00000000       0.005
  -0.00000000  0.07864264  0.00000000       0.005
   0.00000000  0.00000000  0.02061235       0.005
   0.01515016 -0.01310711  0.02061235       0.018
   0.03030032 -0.02621421  0.02061235       0.018
   0.04545049 -0.03932132  0.02061235       0.018
   0.03030032 -0.00000000  0.02061235       0.009
   0.04545049 -0.01310711  0.02061235       0.018
   0.06060065 -0.02621421  0.02061235       0.018
  -0.03030032  0.05242843  0.02061235       0.018
  -0.01515016  0.03932132  0.02061235       0.018
   0.00000000  0.02621421  0.02061235       0.009
   0.06060065  0.00000000  0.02061235       0.009
   0.07575081 -0.01310711  0.02061235       0.018
  -0.01515016  0.06553554  0.02061235       0.018
   0.00000000  0.05242843  0.02061235       0.009
   0.09090097  0.00000000  0.02061235       0.009
  -0.00000000  0.07864264  0.02061235       0.009
   0.00000000  0.00000000  0.04122470       0.005
   0.01515016 -0.01310711  0.04122470       0.018
   0.03030032 -0.02621421  0.04122470       0.018
   0.04545049 -0.03932132  0.04122470       0.018
   0.03030032 -0.00000000  0.04122470       0.009
   0.04545049 -0.01310711  0.04122470       0.018
   0.06060065 -0.02621421  0.04122470       0.018
  -0.03030032  0.05242843  0.04122470       0.018
  -0.01515016  0.03932132  0.04122470       0.018
   0.00000000  0.02621421  0.04122470       0.009
   0.06060065  0.00000000  0.04122470       0.009
   0.07575081 -0.01310711  0.04122470       0.018
  -0.01515016  0.06553554  0.04122470       0.018
   0.00000000  0.05242843  0.04122470       0.009
   0.09090097  0.00000000  0.04122470       0.009
  -0.00000000  0.07864264  0.04122470       0.009
   0.00000000  0.00000000  0.06183705       0.005
   0.01515016 -0.01310711  0.06183705       0.018
   0.03030032 -0.02621421  0.06183705       0.018
   0.04545049 -0.03932132  0.06183705       0.018
   0.03030032 -0.00000000  0.06183705       0.009
   0.04545049 -0.01310711  0.06183705       0.018
   0.06060065 -0.02621421  0.06183705       0.018
  -0.03030032  0.05242843  0.06183705       0.018
  -0.01515016  0.03932132  0.06183705       0.018
   0.00000000  0.02621421  0.06183705       0.009
   0.06060065  0.00000000  0.06183705       0.009
   0.07575081 -0.01310711  0.06183705       0.018
  -0.01515016  0.06553554  0.06183705       0.018
   0.00000000  0.05242843  0.06183705       0.009
   0.09090097  0.00000000  0.06183705       0.009
  -0.00000000  0.07864264  0.06183705       0.009
   0.00000000  0.00000000  0.08244940       0.005
   0.01515016 -0.01310711  0.08244940       0.018
   0.03030032 -0.02621421  0.08244940       0.018
   0.04545049 -0.03932132  0.08244940       0.018
   0.03030032 -0.00000000  0.08244940       0.009
   0.04545049 -0.01310711  0.08244940       0.018
   0.06060065 -0.02621421  0.08244940       0.018
  -0.03030032  0.05242843  0.08244940       0.018
  -0.01515016  0.03932132  0.08244940       0.018
   0.00000000  0.02621421  0.08244940       0.009
   0.06060065  0.00000000  0.08244940       0.009
   0.07575081 -0.01310711  0.08244940       0.018
  -0.01515016  0.06553554  0.08244940       0.018
   0.00000000  0.05242843  0.08244940       0.009
   0.09090097  0.00000000  0.08244940       0.009
  -0.00000000  0.07864264  0.08244940       0.009
 
 k-points in reciprocal lattice and weights: KPOINTS                                 
   0.00000000  0.00000000  0.00000000       0.002
   0.14285714 -0.00000000  0.00000000       0.009
   0.28571429  0.00000000  0.00000000       0.009
   0.42857143 -0.00000000  0.00000000       0.009
   0.14285714  0.14285714  0.00000000       0.005
   0.28571429  0.14285714  0.00000000       0.009
   0.42857143  0.14285714  0.00000000       0.009
  -0.42857143  0.14285714  0.00000000       0.009
  -0.28571429  0.14285714  0.00000000       0.009
  -0.14285714  0.14285714  0.00000000       0.005
   0.28571429  0.28571429  0.00000000       0.005
   0.42857143  0.28571429  0.00000000       0.009
  -0.42857143  0.28571429  0.00000000       0.009
  -0.28571429  0.28571429  0.00000000       0.005
   0.42857143  0.42857143  0.00000000       0.005
  -0.42857143  0.42857143  0.00000000       0.005
   0.00000000  0.00000000  0.11111111       0.005
   0.14285714 -0.00000000  0.11111111       0.018
   0.28571429  0.00000000  0.11111111       0.018
   0.42857143 -0.00000000  0.11111111       0.018
   0.14285714  0.14285714  0.11111111       0.009
   0.28571429  0.14285714  0.11111111       0.018
   0.42857143  0.14285714  0.11111111       0.018
  -0.42857143  0.14285714  0.11111111       0.018
  -0.28571429  0.14285714  0.11111111       0.018
  -0.14285714  0.14285714  0.11111111       0.009
   0.28571429  0.28571429  0.11111111       0.009
   0.42857143  0.28571429  0.11111111       0.018
  -0.42857143  0.28571429  0.11111111       0.018
  -0.28571429  0.28571429  0.11111111       0.009
   0.42857143  0.42857143  0.11111111       0.009
  -0.42857143  0.42857143  0.11111111       0.009
   0.00000000  0.00000000  0.22222222       0.005
   0.14285714 -0.00000000  0.22222222       0.018
   0.28571429  0.00000000  0.22222222       0.018
   0.42857143 -0.00000000  0.22222222       0.018
   0.14285714  0.14285714  0.22222222       0.009
   0.28571429  0.14285714  0.22222222       0.018
   0.42857143  0.14285714  0.22222222       0.018
  -0.42857143  0.14285714  0.22222222       0.018
  -0.28571429  0.14285714  0.22222222       0.018
  -0.14285714  0.14285714  0.22222222       0.009
   0.28571429  0.28571429  0.22222222       0.009
   0.42857143  0.28571429  0.22222222       0.018
  -0.42857143  0.28571429  0.22222222       0.018
  -0.28571429  0.28571429  0.22222222       0.009
   0.42857143  0.42857143  0.22222222       0.009
  -0.42857143  0.42857143  0.22222222       0.009
   0.00000000  0.00000000  0.33333333       0.005
   0.14285714 -0.00000000  0.33333333       0.018
   0.28571429  0.00000000  0.33333333       0.018
   0.42857143 -0.00000000  0.33333333       0.018
   0.14285714  0.14285714  0.33333333       0.009
   0.28571429  0.14285714  0.33333333       0.018
   0.42857143  0.14285714  0.33333333       0.018
  -0.42857143  0.14285714  0.33333333       0.018
  -0.28571429  0.14285714  0.33333333       0.018
  -0.14285714  0.14285714  0.33333333       0.009
   0.28571429  0.28571429  0.33333333       0.009
   0.42857143  0.28571429  0.33333333       0.018
  -0.42857143  0.28571429  0.33333333       0.018
  -0.28571429  0.28571429  0.33333333       0.009
   0.42857143  0.42857143  0.33333333       0.009
  -0.42857143  0.42857143  0.33333333       0.009
   0.00000000  0.00000000  0.44444444       0.005
   0.14285714 -0.00000000  0.44444444       0.018
   0.28571429  0.00000000  0.44444444       0.018
   0.42857143 -0.00000000  0.44444444       0.018
   0.14285714  0.14285714  0.44444444       0.009
   0.28571429  0.14285714  0.44444444       0.018
   0.42857143  0.14285714  0.44444444       0.018
  -0.42857143  0.14285714  0.44444444       0.018
  -0.28571429  0.14285714  0.44444444       0.018
  -0.14285714  0.14285714  0.44444444       0.009
   0.28571429  0.28571429  0.44444444       0.009
   0.42857143  0.28571429  0.44444444       0.018
  -0.42857143  0.28571429  0.44444444       0.018
  -0.28571429  0.28571429  0.44444444       0.009
   0.42857143  0.42857143  0.44444444       0.009
  -0.42857143  0.42857143  0.44444444       0.009
 
 position of ions in fractional coordinates (direct lattice) 
   0.00000000  0.00000000  0.00000000
   0.00000000  0.50000000  0.00000000
   0.50000000  0.00000000  0.00000000
   0.50000000  0.50000000  0.00000000
   0.25000000  0.25000000  0.00000000
   0.25000000  0.75000000  0.00000000
   0.75000000  0.25000000  0.00000000
   0.75000000  0.75000000  0.00000000
   0.37500000  0.12500000  0.66053825
   0.37500000  0.62500000  0.66053825
   0.87500000  0.12500000  0.66053825
   0.87500000  0.62500000  0.66053825
   0.12500000  0.37500000  0.33946175
   0.12500000  0.87500000  0.33946175
   0.62500000  0.37500000  0.33946175
   0.62500000  0.87500000  0.33946175
 
 position of ions in cartesian coordinates  (Angst):
   0.00000000  0.00000000  0.00000000
   2.35735334  2.72480304  0.00000000
   2.35735334 -2.72480304  0.00000000
   4.71470667  0.00000000  0.00000000
   2.35735334  0.00000000  0.00000000
   4.71470667  2.72480304  0.00000000
   4.71470667 -2.72480304  0.00000000
   7.07206001  0.00000000  0.00000000
   2.35735334 -1.36240152  3.56063908
   4.71470667  1.36240152  3.56063908
   4.71470667 -4.08720456  3.56063908
   7.07206001 -1.36240152  3.56063908
   2.35735334  1.36240152  1.82987251
   4.71470667  4.08720456  1.82987251
   4.71470667 -1.36240152  1.82987251
   7.07206001  1.36240152  1.82987251
 


--------------------------------------------------------------------------------------------------------


 k-point   1 :   0.0000 0.0000 0.0000  plane waves:    8131
 k-point   2 :   0.1429-0.0000 0.0000  plane waves:    8118
 k-point   3 :   0.2857 0.0000 0.0000  plane waves:    8111
 k-point   4 :   0.4286-0.0000 0.0000  plane waves:    8137
 k-point   5 :   0.1429 0.1429 0.0000  plane waves:    8088
 k-point   6 :   0.2857 0.1429 0.0000  plane waves:    8116
 k-point   7 :   0.4286 0.1429 0.0000  plane waves:    8126
 k-point   8 :  -0.4286 0.1429 0.0000  plane waves:    8123
 k-point   9 :  -0.2857 0.1429 0.0000  plane waves:    8111
 k-point  10 :  -0.1429 0.1429 0.0000  plane waves:    8107
 k-point  11 :   0.2857 0.2857 0.0000  plane waves:    8102
 k-point  12 :   0.4286 0.2857 0.0000  plane waves:    8112
 k-point  13 :  -0.4286 0.2857 0.0000  plane waves:    8105
 k-point  14 :  -0.2857 0.2857 0.0000  plane waves:    8097
 k-point  15 :   0.4286 0.4286 0.0000  plane waves:    8138
 k-point  16 :  -0.4286 0.4286 0.0000  plane waves:    8138
 k-point  17 :   0.0000 0.0000 0.1111  plane waves:    8113
 k-point  18 :   0.1429-0.0000 0.1111  plane waves:    8101
 k-point  19 :   0.2857 0.0000 0.1111  plane waves:    8116
 k-point  20 :   0.4286-0.0000 0.1111  plane waves:    8117
 k-point  21 :   0.1429 0.1429 0.1111  plane waves:    8118
 k-point  22 :   0.2857 0.1429 0.1111  plane waves:    8113
 k-point  23 :   0.4286 0.1429 0.1111  plane waves:    8124
 k-point  24 :  -0.4286 0.1429 0.1111  plane waves:    8123
 k-point  25 :  -0.2857 0.1429 0.1111  plane waves:    8109
 k-point  26 :  -0.1429 0.1429 0.1111  plane waves:    8111
 k-point  27 :   0.2857 0.2857 0.1111  plane waves:    8115
 k-point  28 :   0.4286 0.2857 0.1111  plane waves:    8108
 k-point  29 :  -0.4286 0.2857 0.1111  plane waves:    8129
 k-point  30 :  -0.2857 0.2857 0.1111  plane waves:    8120
 k-point  31 :   0.4286 0.4286 0.1111  plane waves:    8122
 k-point  32 :  -0.4286 0.4286 0.1111  plane waves:    8116
 k-point  33 :   0.0000 0.0000 0.2222  plane waves:    8095
 k-point  34 :   0.1429-0.0000 0.2222  plane waves:    8113
 k-point  35 :   0.2857 0.0000 0.2222  plane waves:    8125
 k-point  36 :   0.4286-0.0000 0.2222  plane waves:    8115
 k-point  37 :   0.1429 0.1429 0.2222  plane waves:    8116
 k-point  38 :   0.2857 0.1429 0.2222  plane waves:    8117
 k-point  39 :   0.4286 0.1429 0.2222  plane waves:    8116
 k-point  40 :  -0.4286 0.1429 0.2222  plane waves:    8122
 k-point  41 :  -0.2857 0.1429 0.2222  plane waves:    8108
 k-point  42 :  -0.1429 0.1429 0.2222  plane waves:    8092
 k-point  43 :   0.2857 0.2857 0.2222  plane waves:    8112
 k-point  44 :   0.4286 0.2857 0.2222  plane waves:    8111
 k-point  45 :  -0.4286 0.2857 0.2222  plane waves:    8104
 k-point  46 :  -0.2857 0.2857 0.2222  plane waves:    8112
 k-point  47 :   0.4286 0.4286 0.2222  plane waves:    8106
 k-point  48 :  -0.4286 0.4286 0.2222  plane waves:    8101
 k-point  49 :   0.0000 0.0000 0.3333  plane waves:    8098
 k-point  50 :   0.1429-0.0000 0.3333  plane waves:    8101
 k-point  51 :   0.2857 0.0000 0.3333  plane waves:    8117
 k-point  52 :   0.4286-0.0000 0.3333  plane waves:    8114
 k-point  53 :   0.1429 0.1429 0.3333  plane waves:    8102
 k-point  54 :   0.2857 0.1429 0.3333  plane waves:    8110
 k-point  55 :   0.4286 0.1429 0.3333  plane waves:    8106
 k-point  56 :  -0.4286 0.1429 0.3333  plane waves:    8110
 k-point  57 :  -0.2857 0.1429 0.3333  plane waves:    8105
 k-point  58 :  -0.1429 0.1429 0.3333  plane waves:    8104
 k-point  59 :   0.2857 0.2857 0.3333  plane waves:    8110
 k-point  60 :   0.4286 0.2857 0.3333  plane waves:    8112
 k-point  61 :  -0.4286 0.2857 0.3333  plane waves:    8105
 k-point  62 :  -0.2857 0.2857 0.3333  plane waves:    8098
 k-point  63 :   0.4286 0.4286 0.3333  plane waves:    8112
 k-point  64 :  -0.4286 0.4286 0.3333  plane waves:    8107
 k-point  65 :   0.0000 0.0000 0.4444  plane waves:    8116
 k-point  66 :   0.1429-0.0000 0.4444  plane waves:    8113
 k-point  67 :   0.2857 0.0000 0.4444  plane waves:    8108
 k-point  68 :   0.4286-0.0000 0.4444  plane waves:    8113
 k-point  69 :   0.1429 0.1429 0.4444  plane waves:    8126
 k-point  70 :   0.2857 0.1429 0.4444  plane waves:    8121
 k-point  71 :   0.4286 0.1429 0.4444  plane waves:    8109
 k-point  72 :  -0.4286 0.1429 0.4444  plane waves:    8127
 k-point  73 :  -0.2857 0.1429 0.4444  plane waves:    8111
 k-point  74 :  -0.1429 0.1429 0.4444  plane waves:    8097
 k-point  75 :   0.2857 0.2857 0.4444  plane waves:    8110
 k-point  76 :   0.4286 0.2857 0.4444  plane waves:    8109
 k-point  77 :  -0.4286 0.2857 0.4444  plane waves:    8117
 k-point  78 :  -0.2857 0.2857 0.4444  plane waves:    8108
 k-point  79 :   0.4286 0.4286 0.4444  plane waves:    8098
 k-point  80 :  -0.4286 0.4286 0.4444  plane waves:    8102

 maximum and minimum number of plane-waves per node :      8138     8088

 maximum number of plane-waves:      8138
 maximum index in each direction: 
   IXMAX=   14   IYMAX=   13   IZMAX=   10
   IXMIN=  -14   IYMIN=  -14   IZMIN=  -10


 serial   3D FFT for wavefunctions
 parallel 3D FFT for charge:
    minimum data exchange during FFTs selected (reduces bandwidth)


 total amount of memory used by VASP MPI-rank0   167667. kBytes
=======================================================================

   base      :      30000. kBytes
   nonlr-proj:      11953. kBytes
   fftplans  :       2458. kBytes
   grid      :      15239. kBytes
   one-center:        497. kBytes
   wavefun   :     107520. kBytes
 
     INWAV:  cpu time      0.0000: real time      0.0001
 Broyden mixing: mesh for mixing (old mesh)
   NGX = 27   NGY = 27   NGZ = 21
  (NGX  =112   NGY  =112   NGZ  = 84)
  gives a total of  15309 points

 initial charge density was supplied:
 charge density of overlapping atoms calculated
 number of electron     160.0000000 magnetization       0.0000000
 keeping initial charge density in first step


--------------------------------------------------------------------------------------------------------


 Maximum index for non-local projection operator         5853
 Maximum index for augmentation-charges         1164 (set IRDMAX)


--------------------------------------------------------------------------------------------------------


 First call to EWALD:  gamma=   0.272
 Maximum number of real-space cells 3x 3x 3
 Maximum number of reciprocal cells 3x 3x 2

    FEWALD:  cpu time      0.0013: real time      0.0014


--------------------------------------- Ionic step        1  -------------------------------------------




--------------------------------------- Iteration      1(   1)  ---------------------------------------


    POTLOK:  cpu time      0.0487: real time      0.0631
    SETDIJ:  cpu time      0.2729: real time      0.2738
     EDDAV:  cpu time     24.1613: real time     24.2506
 BZINTS: Fermi energy:   22.159634;  160.000000 electrons
         Band energy: 0.708145E+02;  BLOECHL correction:   -0.103356
       DOS:  cpu time      0.1283: real time      0.1286
    --------------------------------------------
      LOOP:  cpu time     24.6112: real time     24.7162

 eigenvalue-minimisations  : 33480
 total energy-change (2. order) : 0.2062709E+04  (-0.8893984E+04)
 number of electron     160.0000000 magnetization      -0.0000000
 augmentation part      160.0000000 magnetization      -0.0000000

 Free energy of the ion-electron system (eV)
  ---------------------------------------------------
  alpha Z        PSCENC =       916.79272664
  Ewald energy   TEWEN  =    -12129.04236897
  -Hartree energ DENC   =     -8479.05065830
  -exchange      EXHF   =         0.00000000
  -V(xc)+E(xc)   XCENC  =       568.20858399
  PAW double counting   =     15528.89819579   -16124.75346902
  entropy T*S    EENTRO =         0.00000000
  eigenvalues    EBANDS =        70.81447519
  atomic energy  EATOM  =     21710.84102437
  Solvation  Ediel_sol  =         0.00000000
  ---------------------------------------------------
  free energy    TOTEN  =      2062.70850968 eV

  energy without entropy =     2062.70850968  energy(sigma->0) =     2062.70850968


--------------------------------------------------------------------------------------------------------




--------------------------------------- Iteration      1(   2)  ---------------------------------------


     EDDAV:  cpu time     23.2396: real time     23.3258
 BZINTS: Fermi energy:    8.123809;  160.000000 electrons
         Band energy:-0.187125E+04;  BLOECHL correction:   -0.030502
       DOS:  cpu time      0.1293: real time      0.1297
    --------------------------------------------
      LOOP:  cpu time     23.3689: real time     23.4555

 eigenvalue-minimisations  : 32000
 total energy-change (2. order) :-0.1942062E+04  (-0.1885026E+04)
 number of electron     160.0000000 magnetization      -0.0000000
 augmentation part      160.0000000 magnetization      -0.0000000

 Free energy of the ion-electron system (eV)
  ---------------------------------------------------
  alpha Z        PSCENC =       916.79272664
  Ewald energy   TEWEN  =    -12129.04236897
  -Hartree energ DENC   =     -8479.05065830
  -exchange      EXHF   =         0.00000000
  -V(xc)+E(xc)   XCENC  =       568.20858399
  PAW double counting   =     15528.89819579   -16124.75346902
  entropy T*S    EENTRO =         0.00000000
  eigenvalues    EBANDS =     -1871.24723481
  atomic energy  EATOM  =     21710.84102437
  Solvation  Ediel_sol  =         0.00000000
  ---------------------------------------------------
  free energy    TOTEN  =       120.64679967 eV

  energy without entropy =      120.64679967  energy(sigma->0) =      120.64679967


--------------------------------------------------------------------------------------------------------




--------------------------------------- Iteration      1(   3)  ---------------------------------------


     EDDAV:  cpu time     29.1213: real time     29.2672
 BZINTS: Fermi energy:    6.153775;  160.000000 electrons
         Band energy:-0.207518E+04;  BLOECHL correction:   -0.020414
       DOS:  cpu time      0.1249: real time      0.1252
    --------------------------------------------
      LOOP:  cpu time     29.2461: real time     29.3924

 eigenvalue-minimisations  : 44380
 total energy-change (2. order) :-0.2039348E+03  (-0.1805174E+03)
 number of electron     160.0000000 magnetization      -0.0000000
 augmentation part      160.0000000 magnetization      -0.0000000

 Free energy of the ion-electron system (eV)
  ---------------------------------------------------
  alpha Z        PSCENC =       916.79272664
  Ewald energy   TEWEN  =    -12129.04236897
  -Hartree energ DENC   =     -8479.05065830
  -exchange      EXHF   =         0.00000000
  -V(xc)+E(xc)   XCENC  =       568.20858399
  PAW double counting   =     15528.89819579   -16124.75346902
  entropy T*S    EENTRO =         0.00000000
  eigenvalues    EBANDS =     -2075.18203211
  atomic energy  EATOM  =     21710.84102437
  Solvation  Ediel_sol  =         0.00000000
  ---------------------------------------------------
  free energy    TOTEN  =       -83.28799763 eV

  energy without entropy =      -83.28799763  energy(sigma->0) =      -83.28799763


--------------------------------------------------------------------------------------------------------




--------------------------------------- Iteration      1(   4)  ---------------------------------------


     EDDAV:  cpu time     30.9650: real time     31.0774
 BZINTS: Fermi energy:    6.038010;  160.000000 electrons
         Band energy:-0.208888E+04;  BLOECHL correction:   -0.018698
       DOS:  cpu time      0.1295: real time      0.1299
    --------------------------------------------
      LOOP:  cpu time     31.0945: real time     31.2073

 eigenvalue-minimisations  : 46140
 total energy-change (2. order) :-0.1369710E+02  (-0.1331970E+02)
 number of electron     160.0000000 magnetization      -0.0000000
 augmentation part      160.0000000 magnetization      -0.0000000

 Free energy of the ion-electron system (eV)
  ---------------------------------------------------
  alpha Z        PSCENC =       916.79272664
  Ewald energy   TEWEN  =    -12129.04236897
  -Hartree energ DENC   =     -8479.05065830
  -exchange      EXHF   =         0.00000000
  -V(xc)+E(xc)   XCENC  =       568.20858399
  PAW double counting   =     15528.89819579   -16124.75346902
  entropy T*S    EENTRO =         0.00000000
  eigenvalues    EBANDS =     -2088.87913190
  atomic energy  EATOM  =     21710.84102437
  Solvation  Ediel_sol  =         0.00000000
  ---------------------------------------------------
  free energy    TOTEN  =       -96.98509742 eV

  energy without entropy =      -96.98509742  energy(sigma->0) =      -96.98509742


--------------------------------------------------------------------------------------------------------




--------------------------------------- Iteration      1(   5)  ---------------------------------------


     EDDAV:  cpu time     29.6107: real time     29.7600
 BZINTS: Fermi energy:    6.034660;  160.000000 electrons
         Band energy:-0.208922E+04;  BLOECHL correction:   -0.018703
       DOS:  cpu time      0.1298: real time      0.1301
    CHARGE:  cpu time      0.6412: real time      0.6443
    MIXING:  cpu time      0.0012: real time      0.0012
    --------------------------------------------
      LOOP:  cpu time     30.3830: real time     30.5357

 eigenvalue-minimisations  : 45320
 total energy-change (2. order) :-0.3371261E+00  (-0.3363503E+00)
 number of electron     159.9999877 magnetization       0.0000000
 augmentation part       53.4741219 magnetization       0.0000000

 Broyden mixing:
  rms(total) = 0.26019E+01    rms(broyden)= 0.26016E+01
  rms(prec ) = 0.40893E+01
  weight for this iteration     100.00

 Free energy of the ion-electron system (eV)
  ---------------------------------------------------
  alpha Z        PSCENC =       916.79272664
  Ewald energy   TEWEN  =    -12129.04236897
  -Hartree energ DENC   =     -8479.05065830
  -exchange      EXHF   =         0.00000000
  -V(xc)+E(xc)   XCENC  =       568.20858399
  PAW double counting   =     15528.89819579   -16124.75346902
  entropy T*S    EENTRO =         0.00000000
  eigenvalues    EBANDS =     -2089.21625798
  atomic energy  EATOM  =     21710.84102437
  Solvation  Ediel_sol  =         0.00000000
  ---------------------------------------------------
  free energy    TOTEN  =       -97.32222350 eV

  energy without entropy =      -97.32222350  energy(sigma->0) =      -97.32222350


--------------------------------------------------------------------------------------------------------




--------------------------------------- Iteration      1(   6)  ---------------------------------------


    POTLOK:  cpu time      0.0651: real time      0.0654
    SETDIJ:  cpu time      0.2647: real time      0.2654
    EDDIAG:  cpu time      3.6633: real time      3.6767
  RMM-DIIS:  cpu time     13.9290: real time     13.9723
    ORTHCH:  cpu time      0.5554: real time      0.5573
 BZINTS: Fermi energy:    3.261465;  160.000000 electrons
         Band energy:-0.254123E+04;  BLOECHL correction:   -0.036708
       DOS:  cpu time      0.1284: real time      0.1288
    CHARGE:  cpu time      0.6163: real time      0.6198
    MIXING:  cpu time      0.0012: real time      0.0012
    --------------------------------------------
      LOOP:  cpu time     19.2233: real time     19.2870

 eigenvalue-minimisations  : 34509
 total energy-change (2. order) :-0.1238186E+02  (-0.1436284E+02)
 number of electron     159.9999851 magnetization       0.0000000
 augmentation part       68.8373605 magnetization       0.0000000

 Broyden mixing:
  rms(total) = 0.44367E+01    rms(broyden)= 0.44366E+01
  rms(prec ) = 0.74616E+01
  weight for this iteration     100.00

 eigenvalues of (default mixing * dielectric matrix)
  average eigenvalue GAMMA=   0.3300
  0.3300

 Free energy of the ion-electron system (eV)
  ---------------------------------------------------
  alpha Z        PSCENC =       916.79272664
  Ewald energy   TEWEN  =    -12129.04236897
  -Hartree energ DENC   =     -8057.47012035
  -exchange      EXHF   =         0.00000000
  -V(xc)+E(xc)   XCENC  =       556.15558921
  PAW double counting   =     15087.48831347   -15653.24340933
  entropy T*S    EENTRO =         0.00000000
  eigenvalues    EBANDS =     -2541.22583418
  atomic energy  EATOM  =     21710.84102437
  Solvation  Ediel_sol  =         0.00000000
  ---------------------------------------------------
  free energy    TOTEN  =      -109.70407915 eV

  energy without entropy =     -109.70407915  energy(sigma->0) =     -109.70407915


--------------------------------------------------------------------------------------------------------




--------------------------------------- Iteration      1(   7)  ---------------------------------------


    POTLOK:  cpu time      0.0415: real time      0.0418
    SETDIJ:  cpu time      0.2641: real time      0.2648
    EDDIAG:  cpu time      3.6686: real time      3.6828
  RMM-DIIS:  cpu time     12.2244: real time     12.2643
    ORTHCH:  cpu time      0.5518: real time      0.5536
 BZINTS: Fermi energy:    5.005347;  160.000000 electrons
         Band energy:-0.223949E+04;  BLOECHL correction:   -0.022065
       DOS:  cpu time      0.1311: real time      0.1315
    CHARGE:  cpu time      0.5841: real time      0.5862
    MIXING:  cpu time      0.0012: real time      0.0012
    --------------------------------------------
      LOOP:  cpu time     17.4669: real time     17.5262

 eigenvalue-minimisations  : 32067
 total energy-change (2. order) : 0.1956795E+02  (-0.3625590E+01)
 number of electron     159.9999871 magnetization      -0.0000000
 augmentation part       58.2029041 magnetization      -0.0000000

 Broyden mixing:
  rms(total) = 0.85895E+00    rms(broyden)= 0.85846E+00
  rms(prec ) = 0.10287E+01
  weight for this iteration     100.00

 eigenvalues of (default mixing * dielectric matrix)
  average eigenvalue GAMMA=   0.4543
  0.6313  0.2772

 Free energy of the ion-electron system (eV)
  ---------------------------------------------------
  alpha Z        PSCENC =       916.79272664
  Ewald energy   TEWEN  =    -12129.04236897
  -Hartree energ DENC   =     -8314.17695296
  -exchange      EXHF   =         0.00000000
  -V(xc)+E(xc)   XCENC  =       561.34608936
  PAW double counting   =     15549.53970473   -16145.94688411
  entropy T*S    EENTRO =         0.00000000
  eigenvalues    EBANDS =     -2239.48946457
  atomic energy  EATOM  =     21710.84102437
  Solvation  Ediel_sol  =         0.00000000
  ---------------------------------------------------
  free energy    TOTEN  =       -90.13612552 eV

  energy without entropy =      -90.13612552  energy(sigma->0) =      -90.13612552


--------------------------------------------------------------------------------------------------------




--------------------------------------- Iteration      1(   8)  ---------------------------------------


    POTLOK:  cpu time      0.0477: real time      0.0884
    SETDIJ:  cpu time      0.2634: real time      0.2645
    EDDIAG:  cpu time      3.3996: real time      3.4108
  RMM-DIIS:  cpu time     18.2715: real time     18.3295
    ORTHCH:  cpu time      0.5637: real time      0.5656
 BZINTS: Fermi energy:    5.005416;  160.000000 electrons
         Band energy:-0.224371E+04;  BLOECHL correction:   -0.021213
       DOS:  cpu time      0.1284: real time      0.1287
    CHARGE:  cpu time      0.6191: real time      0.6214
    MIXING:  cpu time      0.0014: real time      0.0014
    --------------------------------------------
      LOOP:  cpu time     23.2949: real time     23.4103

 eigenvalue-minimisations  : 46305
 total energy-change (2. order) :-0.4478832E+00  (-0.3332276E+00)
 number of electron     159.9999871 magnetization      -0.0000000
 augmentation part       58.5433167 magnetization      -0.0000000

 Broyden mixing:
  rms(total) = 0.37415E+00    rms(broyden)= 0.37392E+00
  rms(prec ) = 0.50545E+00
  weight for this iteration     100.00

 eigenvalues of (default mixing * dielectric matrix)
  average eigenvalue GAMMA=   0.7213
  0.3265  0.9187  0.9187

 Free energy of the ion-electron system (eV)
  ---------------------------------------------------
  alpha Z        PSCENC =       916.79272664
  Ewald energy   TEWEN  =    -12129.04236897
  -Hartree energ DENC   =     -8303.40969051
  -exchange      EXHF   =         0.00000000
  -V(xc)+E(xc)   XCENC  =       561.62357456
  PAW double counting   =     15634.84409589   -16238.52004935
  entropy T*S    EENTRO =         0.00000000
  eigenvalues    EBANDS =     -2243.71332131
  atomic energy  EATOM  =     21710.84102437
  Solvation  Ediel_sol  =         0.00000000
  ---------------------------------------------------
  free energy    TOTEN  =       -90.58400868 eV

  energy without entropy =      -90.58400868  energy(sigma->0) =      -90.58400868


--------------------------------------------------------------------------------------------------------




--------------------------------------- Iteration      1(   9)  ---------------------------------------


    POTLOK:  cpu time      0.0552: real time      0.0555
    SETDIJ:  cpu time      0.2649: real time      0.2656
    EDDIAG:  cpu time      3.6837: real time      3.6967
  RMM-DIIS:  cpu time     20.7362: real time     20.8030
    ORTHCH:  cpu time      0.5601: real time      0.5619
 BZINTS: Fermi energy:    4.973397;  160.000000 electrons
         Band energy:-0.225007E+04;  BLOECHL correction:   -0.017904
       DOS:  cpu time      0.1282: real time      0.1285
    CHARGE:  cpu time      0.6335: real time      0.6359
    MIXING:  cpu time      0.0013: real time      0.0013
    --------------------------------------------
      LOOP:  cpu time     26.0629: real time     26.1483

 eigenvalue-minimisations  : 52844
 total energy-change (2. order) :-0.4798951E-01  (-0.7458618E-01)
 number of electron     159.9999871 magnetization      -0.0000000
 augmentation part       58.7825684 magnetization      -0.0000000

 Broyden mixing:
  rms(total) = 0.20505E+00    rms(broyden)= 0.20485E+00
  rms(prec ) = 0.26137E+00
  weight for this iteration     100.00

 eigenvalues of (default mixing * dielectric matrix)
  average eigenvalue GAMMA=   0.9341
  0.3236  1.5564  1.0989  0.7574

 Free energy of the ion-electron system (eV)
  ---------------------------------------------------
  alpha Z        PSCENC =       916.79272664
  Ewald energy   TEWEN  =    -12129.04236897
  -Hartree energ DENC   =     -8291.23130618
  -exchange      EXHF   =         0.00000000
  -V(xc)+E(xc)   XCENC  =       561.75548129
  PAW double counting   =     15732.31286372   -16341.99342643
  entropy T*S    EENTRO =         0.00000000
  eigenvalues    EBANDS =     -2250.06699262
  atomic energy  EATOM  =     21710.84102437
  Solvation  Ediel_sol  =         0.00000000
  ---------------------------------------------------
  free energy    TOTEN  =       -90.63199819 eV

  energy without entropy =      -90.63199819  energy(sigma->0) =      -90.63199819


--------------------------------------------------------------------------------------------------------




--------------------------------------- Iteration      1(  10)  ---------------------------------------


    POTLOK:  cpu time      0.0403: real time      0.0406
    SETDIJ:  cpu time      0.2621: real time      0.2627
    EDDIAG:  cpu time      3.6651: real time      3.6773
  RMM-DIIS:  cpu time     20.1387: real time     20.2021
    ORTHCH:  cpu time      0.5449: real time      0.5475
 BZINTS: Fermi energy:    4.942902;  160.000000 electrons
         Band energy:-0.225306E+04;  BLOECHL correction:   -0.016709
       DOS:  cpu time      0.1307: real time      0.1311
    CHARGE:  cpu time      0.5719: real time      0.5739
    MIXING:  cpu time      0.0018: real time      0.0018
    --------------------------------------------
      LOOP:  cpu time     25.3555: real time     25.4371

 eigenvalue-minimisations  : 51155
 total energy-change (2. order) :-0.2036048E-02  (-0.1762921E-01)
 number of electron     159.9999871 magnetization      -0.0000000
 augmentation part       58.9849258 magnetization      -0.0000000

 Broyden mixing:
  rms(total) = 0.85952E-01    rms(broyden)= 0.85801E-01
  rms(prec ) = 0.97888E-01
  weight for this iteration     100.00

 eigenvalues of (default mixing * dielectric matrix)
  average eigenvalue GAMMA=   1.0797
  2.4306  0.3233  0.9812  0.9812  0.6823

 Free energy of the ion-electron system (eV)
  ---------------------------------------------------
  alpha Z        PSCENC =       916.79272664
  Ewald energy   TEWEN  =    -12129.04236897
  -Hartree energ DENC   =     -8283.98806225
  -exchange      EXHF   =         0.00000000
  -V(xc)+E(xc)   XCENC  =       561.86237185
  PAW double counting   =     15819.69256564   -16433.73058558
  entropy T*S    EENTRO =         0.00000000
  eigenvalues    EBANDS =     -2253.06170593
  atomic energy  EATOM  =     21710.84102437
  Solvation  Ediel_sol  =         0.00000000
  ---------------------------------------------------
  free energy    TOTEN  =       -90.63403424 eV

  energy without entropy =      -90.63403424  energy(sigma->0) =      -90.63403424


--------------------------------------------------------------------------------------------------------




--------------------------------------- Iteration      1(  11)  ---------------------------------------


    POTLOK:  cpu time      0.0395: real time      0.0800
    SETDIJ:  cpu time      0.2634: real time      0.2646
    EDDIAG:  cpu time      3.4030: real time      3.4153
  RMM-DIIS:  cpu time     19.9081: real time     19.9708
    ORTHCH:  cpu time      0.5590: real time      0.5609
 BZINTS: Fermi energy:    4.949915;  160.000000 electrons
         Band energy:-0.225266E+04;  BLOECHL correction:   -0.017106
       DOS:  cpu time      0.1308: real time      0.1311
    CHARGE:  cpu time      0.6190: real time      0.6216
    MIXING:  cpu time      0.0015: real time      0.0015
    --------------------------------------------
      LOOP:  cpu time     24.9243: real time     25.0457

 eigenvalue-minimisations  : 50383
 total energy-change (2. order) :-0.6649309E-02  (-0.3351278E-02)
 number of electron     159.9999872 magnetization      -0.0000000
 augmentation part       58.9820813 magnetization      -0.0000000

 Broyden mixing:
  rms(total) = 0.33371E-01    rms(broyden)= 0.33339E-01
  rms(prec ) = 0.39733E-01
  weight for this iteration     100.00

 eigenvalues of (default mixing * dielectric matrix)
  average eigenvalue GAMMA=   1.1124
  2.3958  1.4669  0.3233  1.0286  0.8169  0.6427

 Free energy of the ion-electron system (eV)
  ---------------------------------------------------
  alpha Z        PSCENC =       916.79272664
  Ewald energy   TEWEN  =    -12129.04236897
  -Hartree energ DENC   =     -8282.69150893
  -exchange      EXHF   =         0.00000000
  -V(xc)+E(xc)   XCENC  =       561.90840502
  PAW double counting   =     15865.89993645   -16481.69372863
  entropy T*S    EENTRO =         0.00000000
  eigenvalues    EBANDS =     -2252.65516949
  atomic energy  EATOM  =     21710.84102437
  Solvation  Ediel_sol  =         0.00000000
  ---------------------------------------------------
  free energy    TOTEN  =       -90.64068355 eV

  energy without entropy =      -90.64068355  energy(sigma->0) =      -90.64068355


--------------------------------------------------------------------------------------------------------




--------------------------------------- Iteration      1(  12)  ---------------------------------------


    POTLOK:  cpu time      0.0666: real time      0.0670
    SETDIJ:  cpu time      0.2627: real time      0.2635
    EDDIAG:  cpu time      3.6701: real time      3.6821
  RMM-DIIS:  cpu time     19.0997: real time     19.1629
    ORTHCH:  cpu time      0.5628: real time      0.5647
 BZINTS: Fermi energy:    4.957271;  160.000000 electrons
         Band energy:-0.225206E+04;  BLOECHL correction:   -0.017440
       DOS:  cpu time      0.1309: real time      0.1313
    CHARGE:  cpu time      0.6299: real time      0.6321
    MIXING:  cpu time      0.0015: real time      0.0015
    --------------------------------------------
      LOOP:  cpu time     24.4243: real time     24.5050

 eigenvalue-minimisations  : 47495
 total energy-change (2. order) :-0.2945198E-02  (-0.7643928E-03)
 number of electron     159.9999872 magnetization      -0.0000000
 augmentation part       58.9657911 magnetization      -0.0000000

 Broyden mixing:
  rms(total) = 0.13376E-01    rms(broyden)= 0.13357E-01
  rms(prec ) = 0.16769E-01
  weight for this iteration     100.00

 eigenvalues of (default mixing * dielectric matrix)
  average eigenvalue GAMMA=   1.1101
  2.4718  1.5034  0.3233  1.0400  1.0400  0.7618  0.6304

 Free energy of the ion-electron system (eV)
  ---------------------------------------------------
  alpha Z        PSCENC =       916.79272664
  Ewald energy   TEWEN  =    -12129.04236897
  -Hartree energ DENC   =     -8283.50482936
  -exchange      EXHF   =         0.00000000
  -V(xc)+E(xc)   XCENC  =       561.90166751
  PAW double counting   =     15867.32676406   -16482.90297142
  entropy T*S    EENTRO =         0.00000000
  eigenvalues    EBANDS =     -2252.05564158
  atomic energy  EATOM  =     21710.84102437
  Solvation  Ediel_sol  =         0.00000000
  ---------------------------------------------------
  free energy    TOTEN  =       -90.64362874 eV

  energy without entropy =      -90.64362874  energy(sigma->0) =      -90.64362874


--------------------------------------------------------------------------------------------------------




--------------------------------------- Iteration      1(  13)  ---------------------------------------


    POTLOK:  cpu time      0.0406: real time      0.0409
    SETDIJ:  cpu time      0.2626: real time      0.2633
    EDDIAG:  cpu time      3.6531: real time      3.6662
  RMM-DIIS:  cpu time     13.1425: real time     13.1849
    ORTHCH:  cpu time      0.5509: real time      0.5527
 BZINTS: Fermi energy:    4.959449;  160.000000 electrons
         Band energy:-0.225183E+04;  BLOECHL correction:   -0.017509
       DOS:  cpu time      0.1178: real time      0.1181
    --------------------------------------------
      LOOP:  cpu time     17.7675: real time     17.8260

 eigenvalue-minimisations  : 33176
 total energy-change (2. order) :-0.1769834E-04  (-0.1619442E-03)
 number of electron     159.9999872 magnetization      -0.0000000
 augmentation part       58.9657911 magnetization      -0.0000000

 Free energy of the ion-electron system (eV)
  ---------------------------------------------------
  alpha Z        PSCENC =       916.79272664
  Ewald energy   TEWEN  =    -12129.04236897
  -Hartree energ DENC   =     -8283.99478410
  -exchange      EXHF   =         0.00000000
  -V(xc)+E(xc)   XCENC  =       561.91291612
  PAW double counting   =     15865.56242330   -16480.88999343
  entropy T*S    EENTRO =         0.00000000
  eigenvalues    EBANDS =     -2251.82559037
  atomic energy  EATOM  =     21710.84102437
  Solvation  Ediel_sol  =         0.00000000
  ---------------------------------------------------
  free energy    TOTEN  =       -90.64364644 eV

  energy without entropy =      -90.64364644  energy(sigma->0) =      -90.64364644


--------------------------------------------------------------------------------------------------------




 average (electrostatic) potential at core
  the test charge radii are     0.9500  1.0808
  (the norm of the test charge is              1.0000)
       1 -46.1296       2 -46.1296       3 -46.1296       4 -46.1296       5 -46.1296
       6 -46.1296       7 -46.1296       8 -46.1296       9 -54.0771      10 -54.0771
      11 -54.0771      12 -54.0771      13 -54.0771      14 -54.0771      15 -54.0771
      16 -54.0771
 
 
 
 E-fermi :   4.9594     XC(G=0): -11.0898     alpha+bet :-10.5044

 Fermi energy:         4.9594490239

 spin component 1

 k-point     1 :       0.0000    0.0000    0.0000
  band No.  band energies     occupation 
      1     -49.6269      1.00000
      2     -49.6115      1.00000
      3     -49.6115      1.00000
      4     -49.6009      1.00000
      5     -49.5954      1.00000
      6     -49.4753      1.00000
      7     -49.4637      1.00000
      8     -49.4637      1.00000
      9     -49.4491      1.00000
     10     -49.3895      1.00000
     11     -49.3895      1.00000
     12     -49.1796      1.00000
     13     -47.0715      1.00000
     14     -47.0679      1.00000
     15     -47.0679      1.00000
     16     -47.0661      1.00000
     17     -47.0612      1.00000
     18     -46.8357      1.00000
     19     -46.8357      1.00000
     20     -46.6993      1.00000
     21     -46.6991      1.00000
     22     -46.6991      1.00000
     23     -46.6944      1.00000
     24     -46.6053      1.00000
     25     -10.1949      1.00000
     26      -8.6026      1.00000
     27      -8.6026      1.00000
     28      -8.5890      1.00000
     29      -8.5890      1.00000
     30      -8.2920      1.00000
     31      -7.8717      1.00000
     32      -7.5709      1.00000
     33      -1.6588      1.00000
     34      -1.5120      1.00000
     35      -0.6296      1.00000
     36      -0.6296      1.00000
     37      -0.5453      1.00000
     38      -0.5453      1.00000
     39      -0.3851      1.00000
     40       0.2458      1.00000
     41       0.5830      1.00000
     42       0.6050      1.00000
     43       0.8687      1.00000
     44       0.9369      1.00000
     45       0.9369      1.00000
     46       0.9510      1.00000
     47       0.9510      1.00000
     48       1.1150      1.00000
     49       1.2876      1.00000
     50       1.5283      1.00000
     51       1.5283      1.00000
     52       1.9536      1.00000
     53       1.9536      1.00000
     54       2.0178      1.00000
     55       2.2668      1.00000
     56       2.3881      1.00000
     57       2.5556      1.00000
     58       2.6189      1.00000
     59       2.6189      1.00000
     60       2.6525      1.00000
     61       2.6525      1.00000
     62       2.7058      1.00000
     63       2.7155      1.00000
     64       2.9250      1.00000
     65       3.1742      1.00000
     66       3.1742      1.00000
     67       3.2753      1.00000
     68       3.3097      1.00000
     69       3.5068      1.00000
     70       3.5574      1.00000
     71       3.6518      1.00000
     72       3.6518      1.00000
     73       4.1733      1.00000
     74       4.1733      1.00000
     75       4.3074      1.00000
     76       4.3074      1.00000
     77       4.4144      1.00000
     78       4.5926      1.00000
     79       4.6899      1.00000
     80       4.6996      1.06131
     81       5.3405      0.00000
     82       5.3848      0.00000
     83       5.3848      0.00000
     84       5.3990      0.00000
     85       5.3990      0.00000
     86       5.4640      0.00000
     87       5.7324      0.00000
     88       5.7324      0.00000
     89       5.8051      0.00000
     90       5.8051      0.00000
     91       5.8098      0.00000
     92       6.1748      0.00000
     93       6.3660      0.00000
     94       6.3871      0.00000
     95       6.4164      0.00000
     96       6.5215      0.00000
     97       7.0979      0.00000
     98       7.1594      0.00000
[...]
 -0.000   0.000  -0.000   0.000  -0.000   0.000  -0.042  -0.000
  0.000   0.000   0.000  -0.000  -0.000  -0.000  -0.000  -0.102
 -0.000   0.000   0.000   0.000  -0.000  -0.000  -0.255  -0.000
  0.000   0.000   0.000  -0.000  -0.000  -0.000  -0.000  -0.300
 -0.000   0.000   0.000   0.000  -0.000  -0.000  -0.000   0.012
  0.000  -0.000   0.000  -0.000   0.000  -0.000   0.010   0.000
 -0.000  -0.000  -0.000   0.000   0.000   0.000   0.000   0.024
  0.000   0.000  -0.000  -0.000  -0.000   0.000   0.000  -0.006
 -0.000  -0.000   0.000   0.000   0.000  -0.000  -0.000   0.001
 pseudopotential strength for first ion, spin component:           2
-52.195   0.109  -0.000  26.075  -0.080   0.000   0.000  -0.000
  0.109 -52.220   0.000  -0.080  26.094  -0.000  -0.000  -0.000
 -0.000   0.000 -52.167   0.000  -0.000  26.046  -0.000  -0.000
 26.075  -0.080   0.000  -8.531   0.058  -0.000  -0.000   0.000
 -0.080  26.094  -0.000   0.058  -8.544   0.000   0.000   0.000
  0.000  -0.000  26.046  -0.000   0.000  -8.513   0.000   0.000
  0.000  -0.000  -0.000  -0.000   0.000   0.000  -6.087   0.000
 -0.000  -0.000  -0.000   0.000   0.000   0.000   0.000  -6.431
  0.000  -0.000  -0.000  -0.000   0.000   0.000   0.000   0.119
 -0.000   0.000  -0.000   0.000  -0.000   0.000   0.118  -0.000
  0.000   0.000   0.000  -0.000  -0.000  -0.000  -0.000   0.023
 -0.000   0.000   0.000   0.000  -0.000  -0.000  -0.723  -0.000
  0.000   0.000   0.000  -0.000  -0.000  -0.000  -0.000  -0.643
 -0.000   0.000   0.000   0.000  -0.000  -0.000  -0.000  -0.026
  0.000  -0.000   0.000  -0.000   0.000  -0.000  -0.026   0.000
 -0.000  -0.000  -0.000   0.000   0.000   0.000   0.000  -0.007
  0.000   0.000  -0.000  -0.000  -0.000   0.000   0.000  -0.014
 -0.000  -0.000   0.000   0.000   0.000  -0.000  -0.000   0.004
 total augmentation occupancy for first ion, spin component:           1
  2.012  -0.018  -0.000   0.061  -0.043  -0.000  -0.000   0.000   0.000  -0.000  -0.000   0.000   0.000   0.000   0.000  -0.000
 -0.018   2.016   0.000  -0.043   0.070   0.000   0.000  -0.000  -0.000   0.000   0.000   0.000   0.000  -0.000   0.000   0.000
 -0.000   0.000   2.013  -0.000   0.000   0.058   0.000   0.000  -0.000  -0.000  -0.000   0.000  -0.000   0.000   0.000  -0.000
  0.061  -0.043   0.000   0.204  -0.103   0.000  -0.000  -0.000   0.000   0.000  -0.000   0.000   0.000  -0.000  -0.000   0.000
 -0.043   0.070   0.000  -0.103   0.226  -0.000   0.000  -0.000   0.000   0.000   0.000   0.000  -0.000   0.000   0.000   0.000
  0.000   0.000   0.058  -0.000  -0.000   0.189   0.000  -0.000   0.000   0.000   0.000   0.000  -0.000  -0.000  -0.000  -0.000
 -0.000   0.000   0.000  -0.000   0.000   0.000   1.271  -0.000   0.000  -0.105  -0.000  -0.043   0.000   0.000  -0.060   0.000
  0.000   0.000   0.000   0.000   0.000  -0.000  -0.000   1.467  -0.023  -0.000  -0.094  -0.000   0.111  -0.156  -0.000   0.089
 -0.000   0.000  -0.000  -0.000   0.000   0.000  -0.000  -0.023   1.310  -0.000  -0.128   0.000  -0.157   0.116  -0.000  -0.077
 -0.000   0.000   0.000   0.000   0.000   0.000  -0.105   0.000   0.000   1.290   0.000  -0.061   0.000  -0.000  -0.011   0.000
 -0.000   0.000  -0.000   0.000   0.000   0.000   0.000  -0.094  -0.128   0.000   1.512   0.000   0.093  -0.075   0.000   0.198
  0.000  -0.000   0.000   0.000   0.000   0.000  -0.043  -0.000   0.000  -0.061  -0.000   0.180   0.000   0.000  -0.025  -0.000
 -0.000  -0.000   0.000   0.000   0.000  -0.000   0.000   0.111  -0.157  -0.000   0.093  -0.000   0.256  -0.077   0.000   0.091
  0.000   0.000   0.000   0.000  -0.000   0.000   0.000  -0.156   0.116  -0.000  -0.075  -0.000  -0.077   0.181   0.000  -0.020
  0.000   0.000   0.000  -0.000   0.000  -0.000  -0.060  -0.000  -0.000  -0.011  -0.000  -0.025  -0.000   0.000   0.170   0.000
 -0.000   0.000  -0.000  -0.000  -0.000  -0.000  -0.000   0.089  -0.077   0.000   0.198  -0.000   0.091  -0.020   0.000   0.147
  0.000   0.000   0.000  -0.000   0.000   0.000   0.000  -0.003  -0.051  -0.000   0.089  -0.000  -0.312   0.025   0.000  -0.002
 -0.000  -0.000   0.000   0.000   0.000  -0.000   0.000  -0.000   0.022   0.000  -0.012   0.000   0.022  -0.006  -0.000   0.003
 total augmentation occupancy for first ion, spin component:           2
 -0.005   0.000  -0.000  -0.002  -0.001   0.000   0.000  -0.000   0.000   0.000  -0.000   0.000   0.000  -0.000  -0.000  -0.000
  0.000  -0.007   0.000  -0.001  -0.006   0.000   0.000  -0.000  -0.000   0.000  -0.000  -0.000   0.000   0.000  -0.000   0.000
 -0.000   0.000  -0.007   0.000   0.000  -0.004  -0.000   0.000  -0.000  -0.000   0.000  -0.000  -0.000   0.000  -0.000  -0.000
 -0.002  -0.001   0.000   0.014  -0.002   0.000  -0.000   0.000  -0.000   0.000   0.000   0.000   0.000  -0.000  -0.000  -0.000
 -0.001  -0.006  -0.000  -0.002   0.003   0.000   0.000   0.000   0.000   0.000  -0.000  -0.000   0.000   0.000  -0.000  -0.000
 -0.000   0.000  -0.004   0.000   0.000   0.013  -0.000  -0.000   0.000  -0.000  -0.000  -0.000  -0.000   0.000   0.000  -0.000
  0.000   0.000   0.000  -0.000   0.000  -0.000   0.674  -0.000  -0.000   0.126  -0.000  -0.269   0.000   0.000   0.002  -0.000
 -0.000  -0.000   0.000  -0.000  -0.000  -0.000   0.000   0.366   0.129  -0.000   0.050  -0.000  -0.183  -0.014   0.000  -0.028
 -0.000   0.000  -0.000   0.000   0.000   0.000  -0.000   0.129   0.499  -0.000   0.159  -0.000  -0.012  -0.197   0.000  -0.020
  0.000   0.000  -0.000   0.000   0.000  -0.000   0.126   0.000   0.000   0.629  -0.000   0.004   0.000  -0.000  -0.260  -0.000
 -0.000  -0.000   0.000  -0.000  -0.000  -0.000  -0.000   0.050   0.159  -0.000   0.224  -0.000  -0.014  -0.014   0.000  -0.139
  0.000  -0.000   0.000   0.000  -0.000  -0.000  -0.269   0.000  -0.000   0.004   0.000   0.053   0.000   0.000   0.007   0.000
  0.000   0.000  -0.000   0.000   0.000  -0.000   0.000  -0.183  -0.012  -0.000  -0.014   0.000   0.005   0.027   0.000  -0.002
  0.000   0.000  -0.000   0.000  -0.000   0.000   0.000  -0.014  -0.197   0.000  -0.014  -0.000   0.027  -0.002   0.000   0.004
 -0.000  -0.000   0.000  -0.000  -0.000   0.000   0.002   0.000   0.000  -0.260   0.000   0.007   0.000  -0.000   0.034  -0.000
 -0.000   0.000  -0.000  -0.000  -0.000  -0.000   0.000  -0.028  -0.020  -0.000  -0.139   0.000  -0.002   0.004   0.000  -0.022
 -0.000  -0.000   0.000  -0.000   0.000   0.000  -0.000   0.109   0.033  -0.000  -0.047  -0.000  -0.027   0.002   0.000  -0.020
 -0.000  -0.000  -0.000   0.000  -0.000   0.000  -0.000   0.018   0.015  -0.000  -0.015   0.000  -0.002  -0.003  -0.000  -0.000


------------------------ aborting loop because EDIFF is reached ----------------------------------------





 total charge

# of ion       s       p       d       tot
------------------------------------------
    1        0.352   6.313   6.122  12.788
    2        0.352   6.313   6.122  12.788
    3        0.352   6.313   6.122  12.788
    4        0.352   6.313   6.122  12.788
    5        0.352   6.313   6.122  12.788
    6        0.352   6.313   6.122  12.788
    7        0.352   6.313   6.122  12.788
    8        0.352   6.313   6.122  12.788
    9        1.497   2.253   0.069   3.820
   10        1.497   2.253   0.069   3.820
   11        1.497   2.253   0.069   3.820
   12        1.497   2.253   0.069   3.820
   13        1.497   2.253   0.069   3.820
   14        1.497   2.253   0.069   3.820
   15        1.497   2.253   0.069   3.820
   16        1.497   2.253   0.069   3.820
--------------------------------------------------
tot         14.795  68.532  49.533 132.860



 magnetization (x)

# of ion       s       p       d       tot
------------------------------------------
    1        0.024   0.015   2.334   2.373
    2       -0.024  -0.015  -2.334  -2.373
    3       -0.024  -0.015  -2.334  -2.373
    4        0.024   0.015   2.334   2.373
    5        0.024   0.015   2.334   2.373
    6       -0.024  -0.015  -2.334  -2.373
    7       -0.024  -0.015  -2.334  -2.373
    8        0.024   0.015   2.334   2.373
    9        0.000   0.000   0.000   0.000
   10        0.000   0.000   0.000   0.000
   11        0.000   0.000   0.000   0.000
   12        0.000   0.000   0.000   0.000
   13        0.000   0.000   0.000   0.000
   14        0.000   0.000   0.000   0.000
   15        0.000   0.000   0.000   0.000
   16        0.000   0.000   0.000   0.000
--------------------------------------------------
tot          0.000   0.000   0.000   0.000
 
    CHARGE:  cpu time      0.5702: real time      0.5728
    FORLOC:  cpu time      0.0024: real time      0.0024
    FORNL :  cpu time      5.2648: real time      5.2819
    STRESS:  cpu time     16.1937: real time     16.2458
    FORCOR:  cpu time      0.0387: real time      0.0389
    FORHAR:  cpu time      0.0054: real time      0.0054
    MIXING:  cpu time      0.0012: real time      0.0012
    OFIELD:  cpu time      0.0000: real time      0.0000
    FORVDW:  cpu time      0.8797: real time      0.8820

  FORCE on cell =-STRESS in cart. coord.  units (eV):
  Direction    XX          YY          ZZ          XY          YZ          ZX
  --------------------------------------------------------------------------------------
  Alpha Z   916.79273   916.79273   916.79273
  Ewald   -1573.27443 -2334.51396 -8221.27881     0.00000    -0.00000    -0.00000
  Hartree  5015.22539  4354.71133 -1085.50967    -0.00000    -0.00000    -0.00000
  E(xc)    -898.49320  -900.90761  -899.97897     0.00000     0.00000     0.00000
  Local   -5407.60937 -4001.83004  7360.30028    -0.00000    -0.00000     0.00000
  n-local  -278.91490  -251.79128  -244.32443    -0.70016    -0.50024    -0.73974
  augment   527.48703   514.76008   511.20735    -0.00000     0.00000     0.00000
  Kinetic  1711.22818  1715.02056  1675.76216     3.94008     0.15333     0.84212
  Fock        0.00000     0.00000     0.00000     0.00000     0.00000     0.00000
  vdW        -6.70209    -6.51904    -7.12069    -0.00000    -0.00000     0.00000
  -------------------------------------------------------------------------------------
  Total       5.73934     5.72276     5.84993     0.00000     0.00000     0.00000
  in kB      33.19656    33.10066    33.83621     0.00000     0.00000     0.00000
  external pressure =       33.38 kB  Pullay stress =        0.00 kB


 VOLUME and BASIS-vectors are now :
 -----------------------------------------------------------------------------
  energy-cutoff  :      550.00
  volume of cell :      277.00
      direct lattice vectors                 reciprocal lattice vectors
     4.714706675 -5.449606077  0.000000000     0.106051136 -0.091749751  0.000000000
     4.714706675  5.449606077  0.000000000     0.106051136  0.091749751  0.000000000
     0.000000000  0.000000000  5.390511594     0.000000000  0.000000000  0.185511149

  length of vectors
     7.206015919  7.206015919  5.390511594     0.140231453  0.140231453  0.185511149


 FORCES acting on ions
    electron-ion (+dipol)            ewald-force                    non-local-force                 convergence-correction
 -----------------------------------------------------------------------------------------------
   -.210E-12 0.162E-13 0.379E-13   -.711E-13 -.178E-13 -.213E-13   -.244E-23 0.265E-21 -.183E-21   -.155E-12 0.120E-12 0.341E-12
   0.940E-12 0.134E-11 0.505E-13   -.707E-13 -.178E-13 -.222E-13   -.785E-21 -.356E-21 -.178E-20   -.494E-12 0.107E-12 0.349E-12
   0.921E-12 0.611E-12 0.346E-10   -.716E-13 -.284E-13 -.284E-13   -.303E-21 0.274E-21 0.468E-21   -.119E-12 -.317E-13 -.181E-12
   0.710E-11 0.953E-11 0.157E-10   -.711E-13 -.249E-13 -.249E-13   -.634E-21 0.113E-21 -.701E-21   -.948E-13 -.225E-12 0.345E-12
   0.502E-11 0.416E-11 0.736E-11   0.155E-12 0.711E-14 0.258E-13   0.886E-21 -.228E-22 -.109E-20   0.515E-12 0.506E-12 0.133E-13
   -.434E-12 -.333E-11 0.788E-11   0.171E-12 0.711E-14 0.178E-13   0.884E-21 -.258E-21 0.462E-21   -.617E-12 -.570E-12 -.266E-12
   -.208E-10 -.251E-10 -.462E-10   0.142E-12 -.355E-14 0.213E-13   0.867E-21 0.237E-21 -.153E-20   0.698E-12 0.968E-12 0.846E-12
   0.155E-11 0.451E-11 -.446E-10   0.158E-12 0.000E+00 0.142E-13   -.157E-21 -.213E-21 -.370E-21   -.902E-12 -.453E-12 0.948E-12
   -.903E-07 0.133E-11 0.297E+03   -.435E-13 -.213E-13 -.298E+03   0.172E-17 -.535E-17 0.932E+00   0.183E-12 0.736E-13 0.618E-02
   -.903E-07 -.217E-11 0.297E+03   -.426E-13 -.139E-13 -.298E+03   -.282E-17 0.883E-17 0.932E+00   -.112E-12 -.124E-12 0.618E-02
   -.903E-07 0.378E-11 0.297E+03   -.426E-13 -.148E-13 -.298E+03   0.885E-18 0.432E-17 0.932E+00   0.174E-12 0.182E-12 0.618E-02
   -.903E-07 -.195E-11 0.297E+03   -.431E-13 -.213E-13 -.298E+03   0.722E-18 0.121E-18 0.932E+00   -.194E-12 -.160E-12 0.618E-02
   0.903E-07 0.115E-11 -.297E+03   -.425E-13 0.412E-13 0.298E+03   0.249E-17 -.596E-17 -.932E+00   0.102E-12 0.108E-12 -.618E-02
   0.903E-07 0.162E-11 -.297E+03   -.408E-13 0.444E-13 0.298E+03   0.276E-17 -.690E-17 -.932E+00   -.123E-12 -.106E-12 -.618E-02
   0.903E-07 0.157E-11 -.297E+03   -.447E-13 0.198E-13 0.298E+03   -.168E-17 0.306E-17 -.932E+00   0.159E-12 0.826E-13 -.618E-02
   0.903E-07 0.821E-12 -.297E+03   -.419E-13 0.228E-13 0.298E+03   -.600E-18 0.103E-16 -.932E+00   -.141E-12 -.146E-12 -.618E-02
 -----------------------------------------------------------------------------------------------
   -.118E-10 -.212E-11 -.281E-10   -.101E-14 -.213E-13 0.000E+00   0.347E-17 0.842E-17 0.000E+00   -.112E-11 0.331E-12 0.196E-11
 
 
 POSITION                                       TOTAL-FORCE (eV/Angst)
 -----------------------------------------------------------------------------------
      0.00000      0.00000      0.00000         0.000000     -0.000000     -0.000000
      2.35735      2.72480      0.00000         0.000000     -0.000000     -0.000000
      2.35735     -2.72480      0.00000         0.000000     -0.000000     -0.000000
      4.71471      0.00000      0.00000         0.000000     -0.000000     -0.000000
      2.35735      0.00000      0.00000         0.000000     -0.000000     -0.000000
      4.71471      2.72480      0.00000         0.000000     -0.000000     -0.000000
      4.71471     -2.72480      0.00000         0.000000     -0.000000     -0.000000
      7.07206      0.00000      0.00000         0.000000     -0.000000     -0.000000
      2.35735     -1.36240      3.56064        -0.000000      0.000000     -0.008963
      4.71471      1.36240      3.56064         0.000000      0.000000     -0.008963
      4.71471     -4.08720      3.56064        -0.000000      0.000000     -0.008963
      7.07206     -1.36240      3.56064        -0.000000      0.000000     -0.008963
      2.35735      1.36240      1.82987         0.000000     -0.000000      0.008963
      4.71471      4.08720      1.82987         0.000000     -0.000000      0.008963
      4.71471     -1.36240      1.82987        -0.000000      0.000000      0.008963
      7.07206      1.36240      1.82987        -0.000000      0.000000      0.008963
 -----------------------------------------------------------------------------------
    total drift:                               -0.000000     -0.000000     -0.000000


--------------------------------------------------------------------------------------------------------



  FREE ENERGIE OF THE ION-ELECTRON SYSTEM (eV)
  ---------------------------------------------------
  free  energy   TOTEN  =       -98.21217009 eV

  energy  without entropy=      -98.21217009  energy(sigma->0) =      -98.21217009
 


--------------------------------------------------------------------------------------------------------


    POTLOK:  cpu time      0.3469: real time      0.3546


--------------------------------------------------------------------------------------------------------


     LOOP+:  cpu time    341.9228: real time    343.4258
 -----------------------------------------------------------------------------
|                                                                             |
|           W    W    AA    RRRRR   N    N  II  N    N   GGGG   !!!           |
|           W    W   A  A   R    R  NN   N  II  NN   N  G    G  !!!           |
|           W    W  A    A  R    R  N N  N  II  N N  N  G       !!!           |
|           W WW W  AAAAAA  RRRRR   N  N N  II  N  N N  G  GGG   !            |
|           WW  WW  A    A  R   R   N   NN  II  N   NN  G    G                |
|           W    W  A    A  R    R  N    N  II  N    N   GGGG   !!!           |
|                                                                             |
|     Tetrahedron method does not include variations of the Fermi             |
|     occupations, so forces and stress will be inaccurate. We suggest        |
|     using a different smearing scheme ISMEAR = 1 or 2 for metals in         |
|     relaxations.                                                            |
|                                                                             |
 -----------------------------------------------------------------------------

    4ORBIT:  cpu time      0.0000: real time      0.0000



 total charge

# of ion       s       p       d       tot
------------------------------------------
    1        0.352   6.313   6.122  12.788
    2        0.352   6.313   6.122  12.788
    3        0.352   6.313   6.122  12.788
    4        0.352   6.313   6.122  12.788
    5        0.352   6.313   6.122  12.788
    6        0.352   6.313   6.122  12.788
    7        0.352   6.313   6.122  12.788
    8        0.352   6.313   6.122  12.788
    9        1.497   2.253   0.069   3.820
   10        1.497   2.253   0.069   3.820
   11        1.497   2.253   0.069   3.820
   12        1.497   2.253   0.069   3.820
   13        1.497   2.253   0.069   3.820
   14        1.497   2.253   0.069   3.820
   15        1.497   2.253   0.069   3.820
   16        1.497   2.253   0.069   3.820
--------------------------------------------------
tot         14.795  68.532  49.533 132.860



 magnetization (x)

# of ion       s       p       d       tot
------------------------------------------
    1        0.024   0.015   2.334   2.373
    2       -0.024  -0.015  -2.334  -2.373
    3       -0.024  -0.015  -2.334  -2.373
    4        0.024   0.015   2.334   2.373
    5        0.024   0.015   2.334   2.373
    6       -0.024  -0.015  -2.334  -2.373
    7       -0.024  -0.015  -2.334  -2.373
    8        0.024   0.015   2.334   2.373
    9        0.000   0.000   0.000   0.000
   10        0.000   0.000   0.000   0.000
   11        0.000   0.000   0.000   0.000
   12        0.000   0.000   0.000   0.000
   13        0.000   0.000   0.000   0.000
   14        0.000   0.000   0.000   0.000
   15        0.000   0.000   0.000   0.000
   16        0.000   0.000   0.000   0.000
--------------------------------------------------
tot          0.000   0.000   0.000   0.000
 
 BZINTS: Fermi energy:    4.959449;  160.000000 electrons
         Band energy:-0.225183E+04;  BLOECHL correction:   -0.017509

 total amount of memory used by VASP MPI-rank0   167667. kBytes
=======================================================================

   base      :      30000. kBytes
   nonlr-proj:      11953. kBytes
   fftplans  :       2458. kBytes
   grid      :      15239. kBytes
   one-center:        497. kBytes
   wavefun   :     107520. kBytes
 
  
  
 General timing and accounting informations for this job:
 ========================================================
  
                  Total CPU time used (sec):      365.727
                            User time (sec):      364.275
                          System time (sec):        1.451
                         Elapsed time (sec):      368.694
  
                   Maximum memory used (kb):      444896.
                   Average memory used (kb):          N/A
  
                          Minor page faults:       157760
                          Major page faults:            0
                 Voluntary context switches:        36159
