 running   20 mpi-ranks, on    5 nodes
 distrk:  each k-point on   20 cores,    1 groups
 distr:  one band on    1 cores,   20 groups
 vasp.6.4.1 05Apr23 (build Jun 01 2023 13:46:15) complex                        
  
 POSCAR found type information on POSCAR FeSe
 POSCAR found :  2 types and      16 ions
 Reading from existing POTCAR
 scaLAPACK will be used
 -----------------------------------------------------------------------------
|                                                                             |
|           W    W    AA    RRRRR   N    N  II  N    N   GGGG   !!!           |
|           W    W   A  A   R    R  NN   N  II  NN   N  G    G  !!!           |
|           W    W  A    A  R    R  N N  N  II  N N  N  G       !!!           |
|           W WW W  AAAAAA  RRRRR   N  N N  II  N  N N  G  GGG   !            |
|           WW  WW  A    A  R   R   N   NN  II  N   NN  G    G                |
|           W    W  A    A  R    R  N    N  II  N    N   GGGG   !!!           |
|                                                                             |
|     For optimal performance we recommend to set                             |
|       NCORE = 2 up to number-of-cores-per-socket                            |
|     NCORE specifies how many cores store one orbital (NPAR=cpu/NCORE).      |
|     This setting can greatly improve the performance of VASP for DFT.       |
|     The default, NCORE=1 might be grossly inefficient on modern             |
|     multi-core architectures or massively parallel machines. Do your        |
|     own testing! More info at https://www.vasp.at/wiki/index.php/NCORE      |
|     Unfortunately you need to use the default for GW and RPA                |
|     calculations (for HF NCORE is supported but not extensively tested      |
|     yet).                                                                   |
|                                                                             |
 -----------------------------------------------------------------------------

 Reading from existing POTCAR
 LDA part: xc-table for Pade appr. of Perdew
 POSCAR, INCAR and KPOINTS ok, starting setup
 FFT: planning ... GRIDC
 FFT: planning ... GRID_SOFT
 FFT: planning ... GRID
 WAVECAR not read
 WARNING: random wavefunctions but no delay for mixing, default for NELMDL
 entering main loop
       N       E                     dE             d eps       ncg     rms          rms(c)
DAV:   1     0.206157321425E+04    0.20616E+04   -0.88987E+04 33740   0.203E+03
DAV:   2     0.121329476211E+03   -0.19402E+04   -0.18837E+04 32000   0.596E+02
DAV:   3    -0.832165130351E+02   -0.20455E+03   -0.18177E+03 44320   0.195E+02
DAV:   4    -0.970415131362E+02   -0.13825E+02   -0.13445E+02 46220   0.516E+01
DAV:   5    -0.973718049910E+02   -0.33029E+00   -0.32964E+00 45200   0.833E+00    0.258E+01
RMM:   6    -0.109342370161E+03   -0.11971E+02   -0.14213E+02 32023   0.784E+01    0.441E+01
RMM:   7    -0.901790509148E+02    0.19163E+02   -0.35360E+01 32006   0.461E+01    0.837E+00
RMM:   8    -0.905768062561E+02   -0.39776E+00   -0.29595E+00 41210   0.502E+00    0.352E+00
RMM:   9    -0.906231473199E+02   -0.46341E-01   -0.70327E-01 46737   0.254E+00    0.194E+00
RMM:  10    -0.906249892323E+02   -0.18419E-02   -0.15623E-01 45187   0.120E+00    0.812E-01
RMM:  11    -0.906319286606E+02   -0.69394E-02   -0.31036E-02 44136   0.648E-01    0.304E-01
RMM:  12    -0.906341502219E+02   -0.22216E-02   -0.70653E-03 40947   0.262E-01    0.126E-01
RMM:  13    -0.906340529644E+02    0.97257E-04   -0.13683E-03 25903   0.136E-01
   1 F= -.98195724E+02 E0= -.98184229E+02  d E =-.981957E+02  mag=     0.0000
 curvature:   0.00 expect dE= 0.000E+00 dE for cont linesearch  0.000E+00
 trial: gam= 0.00000 g(F)=  0.422E-01 g(S)=  0.248E-01 ort = 0.000E+00 (trialstep = 0.100E+01)
 search vector abs. value=  0.669E-01
 bond charge predicted
       N       E                     dE             d eps       ncg     rms          rms(c)
DAV:   1    -0.907545918928E+02   -0.12044E+00   -0.52728E+00 37940   0.845E+00    0.278E+00
RMM:   2    -0.906606444739E+02    0.93947E-01   -0.28432E-01 34668   0.334E+00    0.133E+00
RMM:   3    -0.906537175359E+02    0.69269E-02   -0.15829E-01 33649   0.225E+00    0.105E+00
RMM:   4    -0.906444334330E+02    0.92841E-02   -0.59024E-02 33365   0.154E+00    0.290E-01
RMM:   5    -0.906452996332E+02   -0.86620E-03   -0.18592E-02 41255   0.512E-01    0.120E-01
RMM:   6    -0.906453018302E+02   -0.21969E-05   -0.29394E-03 32838   0.197E-01    0.771E-02
RMM:   7    -0.906452383639E+02    0.63466E-04   -0.58318E-04 21706   0.119E-01
   2 F= -.98214271E+02 E0= -.98202666E+02  d E =-.185470E-01  mag=    -0.0000
 trial-energy change:   -0.018547  1 .order   -0.027314   -0.066926    0.012297
 step:   0.7073(harm=  0.8448)  dis= 0.01128  next Energy=   -98.216290 (dE=-0.206E-01)
 bond charge predicted
       N       E                     dE             d eps       ncg     rms          rms(c)
DAV:   1    -0.906564985996E+02   -0.11197E-01   -0.45560E-01 38140   0.248E+00    0.816E-01
RMM:   2    -0.906483453004E+02    0.81533E-02   -0.24354E-02 34483   0.987E-01    0.389E-01
RMM:   3    -0.906478253630E+02    0.51994E-03   -0.13788E-02 33327   0.666E-01    0.320E-01
RMM:   4    -0.906469399789E+02    0.88538E-03   -0.50879E-03 31335   0.457E-01    0.804E-02
RMM:   5    -0.906470125644E+02   -0.72586E-04   -0.14477E-03 27896   0.152E-01
   3 F= -.98215753E+02 E0= -.98204171E+02  d E =-.200295E-01  mag=     0.0000
 curvature:  -0.09 expect dE=-0.575E-03 dE for cont linesearch -0.160E-04
 trial: gam= 0.04318 g(F)=  0.272E-02 g(S)=  0.359E-02 ort = 0.342E-02 (trialstep = 0.941E+00)
 search vector abs. value=  0.673E-02
 reached required accuracy - stopping structural energy minimisation
