       N       E                     dE             d eps       ncg     rms          rms(c)
DAV:   1     0.177383661551E+04    0.17738E+04   -0.85141E+04 75296   0.176E+03
DAV:   2     0.638945150273E+01   -0.17674E+04   -0.16767E+04 75264   0.477E+02
DAV:   3    -0.102711726411E+03   -0.10910E+03   -0.10748E+03 88576   0.127E+02
DAV:   4    -0.104382444050E+03   -0.16707E+01   -0.16703E+01 79424   0.157E+01
DAV:   5    -0.104417375196E+03   -0.34931E-01   -0.34930E-01 93216   0.219E+00    0.359E+01
DAV:   6    -0.116084564341E+03   -0.11667E+02   -0.18954E+02 89056   0.639E+01    0.659E+01
DAV:   7    -0.105009839233E+03    0.11075E+02   -0.15160E+02 89632   0.521E+01    0.580E+01
DAV:   8    -0.986456847077E+02    0.63642E+01   -0.21480E+02 90144   0.391E+01    0.371E+01
DAV:   9    -0.991701809408E+02   -0.52450E+00   -0.52706E+01 85440   0.319E+01    0.422E+01
DAV:  10    -0.942045437720E+02    0.49656E+01   -0.68350E+01 85152   0.223E+01    0.232E+01
DAV:  11    -0.936653124528E+02    0.53923E+00   -0.14926E+01 88768   0.174E+01    0.216E+01
DAV:  12    -0.925559886479E+02    0.11093E+01   -0.78145E+00 87328   0.118E+01    0.110E+01
DAV:  13    -0.925303675148E+02    0.25621E-01   -0.13990E+00 90144   0.626E+00    0.936E+00
DAV:  14    -0.925010813020E+02    0.29286E-01   -0.10300E+00 88512   0.493E+00    0.747E+00
DAV:  15    -0.926361878341E+02   -0.13511E+00   -0.64875E-01 89952   0.398E+00    0.562E+00
DAV:  16    -0.926590957095E+02   -0.22908E-01   -0.48368E-01 91200   0.374E+00    0.392E+00
DAV:  17    -0.926921507214E+02   -0.33055E-01   -0.33669E-01 89280   0.347E+00    0.372E+00
DAV:  18    -0.927091900707E+02   -0.17039E-01   -0.15526E-01 88512   0.212E+00    0.245E+00
DAV:  19    -0.927572867376E+02   -0.48097E-01   -0.34995E-01 91808   0.297E+00    0.339E+00
DAV:  20    -0.927190829083E+02    0.38204E-01   -0.32116E-01 90880   0.271E+00    0.138E+00
DAV:  21    -0.927255212388E+02   -0.64383E-02   -0.43328E-02 87808   0.100E+00    0.173E+00
DAV:  22    -0.927237405817E+02    0.17807E-02   -0.15293E-02 89920   0.803E-01    0.145E+00
DAV:  23    -0.927212090829E+02    0.25315E-02   -0.16474E-02 89184   0.804E-01    0.764E-01
DAV:  24    -0.927254043337E+02   -0.41953E-02   -0.24421E-02 89888   0.107E+00    0.990E-01
DAV:  25    -0.927230322129E+02    0.23721E-02   -0.20511E-02 88960   0.100E+00    0.449E-01
DAV:  26    -0.927234580955E+02   -0.42588E-03   -0.28634E-03 90688   0.340E-01    0.198E-01
DAV:  27    -0.927236660928E+02   -0.20800E-03   -0.79576E-04 88352   0.127E-01    0.766E-02
DAV:  28    -0.927237063309E+02   -0.40238E-04   -0.97448E-05 88512   0.601E-02    0.498E-02
DAV:  29    -0.927237104100E+02   -0.40791E-05   -0.34568E-05 91360   0.304E-02    0.287E-02
DAV:  30    -0.927237121313E+02   -0.17213E-05   -0.12946E-05 89600   0.170E-02    0.155E-02
DAV:  31    -0.927237114346E+02    0.69670E-06   -0.44683E-06 89568   0.128E-02
   1 F= -.92723711E+02 E0= -.92723711E+02  d E =0.000000E+00  mag=    20.1246
