       N       E                     dE             d eps       ncg     rms          rms(c)
DAV:   1     0.176675330562E+04    0.17668E+04   -0.84164E+04 43040   0.182E+03
DAV:   2     0.608312752580E+01   -0.17607E+04   -0.16700E+04 43008   0.484E+02
DAV:   3    -0.103492999668E+03   -0.10958E+03   -0.10817E+03 50720   0.129E+02
DAV:   4    -0.105035713368E+03   -0.15427E+01   -0.15424E+01 45248   0.154E+01
DAV:   5    -0.105064081638E+03   -0.28368E-01   -0.28368E-01 53248   0.203E+00    0.409E+01
DAV:   6    -0.118846704159E+03   -0.13783E+02   -0.24945E+02 53248   0.673E+01    0.711E+01
DAV:   7    -0.108814092202E+03    0.10033E+02   -0.24458E+02 52736   0.605E+01    0.624E+01
DAV:   8    -0.965124090430E+02    0.12302E+02   -0.16936E+02 51840   0.451E+01    0.310E+01
DAV:   9    -0.106901804549E+03   -0.10389E+02   -0.16208E+02 49984   0.429E+01    0.536E+01
DAV:  10    -0.930438954522E+02    0.13858E+02   -0.33638E+01 49600   0.268E+01    0.204E+01
DAV:  11    -0.934329226562E+02   -0.38903E+00   -0.21124E+01 51360   0.168E+01    0.233E+01
DAV:  12    -0.923071555386E+02    0.11258E+01   -0.16510E+01 50624   0.111E+01    0.957E+00
DAV:  13    -0.924713666992E+02   -0.16421E+00   -0.52899E-01 51200   0.262E+00    0.916E+00
DAV:  14    -0.925554648333E+02   -0.84098E-01   -0.89248E-02 52640   0.133E+00    0.837E+00
DAV:  15    -0.929754790057E+02   -0.42001E+00   -0.95652E-01 52736   0.340E+00    0.756E+00
DAV:  16    -0.931668771494E+02   -0.19140E+00   -0.72806E-01 52672   0.283E+00    0.512E+00
DAV:  17    -0.931640212335E+02    0.28559E-02   -0.43710E-01 53952   0.288E+00    0.218E+00
DAV:  18    -0.931683012942E+02   -0.42801E-02   -0.97163E-02 52800   0.965E-01    0.154E+00
DAV:  19    -0.931705993273E+02   -0.22980E-02   -0.16957E-02 49408   0.504E-01    0.109E+00
DAV:  20    -0.931705656519E+02    0.33675E-04   -0.10602E-02 54912   0.551E-01    0.510E-01
DAV:  21    -0.931714685424E+02   -0.90289E-03   -0.34098E-03 57024   0.248E-01    0.225E-01
DAV:  22    -0.931718357500E+02   -0.36721E-03   -0.10956E-03 52672   0.141E-01    0.151E-01
DAV:  23    -0.931719775474E+02   -0.14180E-03   -0.46032E-04 52448   0.122E-01    0.872E-02
DAV:  24    -0.931719921864E+02   -0.14639E-04   -0.15929E-04 50016   0.537E-02    0.444E-02
DAV:  25    -0.931719751872E+02    0.16999E-04   -0.20321E-05 51744   0.245E-02    0.210E-02
DAV:  26    -0.931719710976E+02    0.40896E-05   -0.24271E-05 53504   0.175E-02    0.199E-02
DAV:  27    -0.931719944217E+02   -0.23324E-04   -0.78628E-06 47424   0.154E-02    0.707E-03
DAV:  28    -0.931719975277E+02   -0.31060E-05   -0.16545E-06 26816   0.455E-03    0.266E-03
DAV:  29    -0.931719983086E+02   -0.78093E-06   -0.32325E-07 25248   0.233E-03
   1 F= -.93171998E+02 E0= -.93171998E+02  d E =0.000000E+00  mag=    13.4383
