 vasp.6.4.3 19Mar24 (build Mar 26 2024 14:05:37) complex                        
  
 executed on             LinuxIFC date 2024.12.17  11:39:24
 running  128 mpi-ranks, on    1 nodes
 distrk:  each k-point on   32 cores,    4 groups
 distr:  one band on NCORE=   1 cores,   32 groups


--------------------------------------------------------------------------------------------------------


 INCAR:
   ALGO = Normal
   EDIFF = 1e-06
   EDIFFG = -0.01
   ENCUT = 520
   GGA = Pe
   IBRION = -1
   ISIF = 4
   ISMEAR = -5
   ISPIN = 2
   KPAR = 4
   LCHARG = True
   LORBIT = 11
   LREAL = False
   LWAVE = False
   MAGMOM = 1*-2.233 2*2.517 2*2.388 1*2.621 1*-2.233 2*2.517 2*0.046 1*0.281
   NELM = 200
   NSW = 0
   PREC = Accurate
   SIGMA = 0.2
   SYMPREC = 9.999999999999999e-05

 POTCAR:    PAW_PBE Fe_pv 02Aug2007               
 POTCAR:    PAW_PBE Pt 04Feb2005                  
 -----------------------------------------------------------------------------
|                                                                             |
|           W    W    AA    RRRRR   N    N  II  N    N   GGGG   !!!           |
|           W    W   A  A   R    R  NN   N  II  NN   N  G    G  !!!           |
|           W    W  A    A  R    R  N N  N  II  N N  N  G       !!!           |
|           W WW W  AAAAAA  RRRRR   N  N N  II  N  N N  G  GGG   !            |
|           WW  WW  A    A  R   R   N   NN  II  N   NN  G    G                |
|           W    W  A    A  R    R  N    N  II  N    N   GGGG   !!!           |
|                                                                             |
|     For optimal performance we recommend to set                             |
|       NCORE = 2 up to number-of-cores-per-socket                            |
|     NCORE specifies how many cores store one orbital (NPAR=cpu/NCORE).      |
|     This setting can greatly improve the performance of VASP for DFT.       |
|     The default, NCORE=1 might be grossly inefficient on modern             |
|     multi-core architectures or massively parallel machines. Do your        |
|     own testing! More info at https://www.vasp.at/wiki/index.php/NCORE      |
|     Unfortunately you need to use the default for GW and RPA                |
|     calculations (for HF NCORE is supported but not extensively tested      |
|     yet).                                                                   |
|                                                                             |
 -----------------------------------------------------------------------------

 POTCAR:    PAW_PBE Fe_pv 02Aug2007               
   SHA256 =  5d22e414b1f82158bf2c7ecb8b97b28fd0923e48cadc1c3bf74d524558f5dd32 Fe_pv/POTCAR          
   COPYR  = (c) Copyright 02Aug2007 Georg Kresse                                                    
   COPYR  = This file is part of the software VASP. Any use, copying, and all other rights are regul
   COPYR  = If you do not have a valid VASP license, you may not use, copy or distribute this file. 
   VRHFIN =Fe:  3pd7s1                                                                              
   LEXCH  = PE                                                                                      
   EATOM  =  2457.4239 eV,  180.6156 Ry                                                             
                                                                                                    
   TITEL  = PAW_PBE Fe_pv 02Aug2007                                                                 
   LULTRA =        F    use ultrasoft PP ?                                                          
   IUNSCR =        1    unscreen: 0-lin 1-nonlin 2-no                                               
   RPACOR =    1.750    partial core radius                                                         
   POMASS =   55.847; ZVAL   =   14.000    mass and valenz                                          
   RCORE  =    2.200    outmost cutoff radius                                                       
   RWIGS  =    2.200; RWIGS  =    1.164    wigner-seitz radius (au A)                               
   ENMAX  =  293.238; ENMIN  =  219.928 eV                                                          
   ICORE  =        3    local potential                                                             
   LCOR   =        T    correct aug charges                                                         
   LPAW   =        T    paw PP                                                                      
   EAUG   =  578.342                                                                                
   DEXC   =    0.000                                                                                
   RMAX   =    2.249    core radius for proj-oper                                                   
   RAUG   =    1.300    factor for augmentation sphere                                              
   RDEP   =    2.296    radius for radial grids                                                     
   RDEPT  =    1.766    core radius for aug-charge                                                  
                                                                                                    
   Atomic configuration                                                                             
    8 entries                                                                                       
     n  l   j            E        occ.                                                              
     1  0  0.50     -6993.8440   2.0000                                                             
     2  0  0.50      -814.6047   2.0000                                                             
     2  1  1.50      -693.3689   6.0000                                                             
     3  0  0.50       -89.4732   2.0000                                                             
     3  1  1.50       -55.6373   6.0000                                                             
     3  2  2.50        -3.8151   7.0000                                                             
     4  0  0.50        -4.2551   1.0000                                                             
     4  3  2.50        -1.3606   0.0000                                                             
   Description                                                                                      
     l       E           TYP  RCUT    TYP  RCUT                                                     
     1    -55.6372668     23  2.000                                                                 
     1     -5.4423304     23  2.000                                                                 
     2     -3.8151096     23  2.200                                                                 
     2     -5.1756922     23  2.200                                                                 
     0     -4.2550951     23  2.200                                                                 
     0     27.2116520     23  2.200                                                                 
     3     -1.3605826     23  2.200                                                                 
  local pseudopotential read in
  partial core-charges read in
  partial kinetic energy density read in
  atomic valenz-charges read in
  non local Contribution for L=           1  read in
    real space projection operators read in
  non local Contribution for L=           1  read in
    real space projection operators read in
  non local Contribution for L=           2  read in
    real space projection operators read in
  non local Contribution for L=           2  read in
    real space projection operators read in
  non local Contribution for L=           0  read in
    real space projection operators read in
  non local Contribution for L=           0  read in
    real space projection operators read in
    PAW grid and wavefunctions read in
 
   number of l-projection  operators is LMAX  =           6
   number of lm-projection operators is LMMAX =          18
 
 POTCAR:    PAW_PBE Pt 04Feb2005                  
   SHA256 =  3ed90460adef76debcff1cfb73ee1349b515b1a3db03439735b44de3a8db7dc8 Pt/POTCAR             
   COPYR  = (c) Copyright 04Feb2005 Georg Kresse                                                    
   COPYR  = This file is part of the software VASP. Any use, copying, and all other rights are regul
   COPYR  = If you do not have a valid VASP license, you may not use, copy or distribute this file. 
   VRHFIN =Pt: s1d9                                                                                 
   LEXCH  = PE                                                                                      
   EATOM  =   729.1176 eV,   53.5886 Ry                                                             
                                                                                                    
   TITEL  = PAW_PBE Pt 04Feb2005                                                                    
   LULTRA =        F    use ultrasoft PP ?                                                          
   IUNSCR =        1    unscreen: 0-lin 1-nonlin 2-no                                               
   RPACOR =    2.330    partial core radius                                                         
   POMASS =  195.080; ZVAL   =   10.000    mass and valenz                                          
   RCORE  =    2.600    outmost cutoff radius                                                       
   RWIGS  =    2.750; RWIGS  =    1.455    wigner-seitz radius (au A)                               
   ENMAX  =  230.283; ENMIN  =  172.712 eV                                                          
   ICORE  =        3    local potential                                                             
   LCOR   =        T    correct aug charges                                                         
   LPAW   =        T    paw PP                                                                      
   EAUG   =  358.966                                                                                
   DEXC   =    0.000                                                                                
   RMAX   =    2.658    core radius for proj-oper                                                   
   RAUG   =    1.300    factor for augmentation sphere                                              
   RDEP   =    2.761    radius for radial grids                                                     
   RDEPT  =    2.203    core radius for aug-charge                                                  
                                                                                                    
   Atomic configuration                                                                             
   16 entries                                                                                       
     n  l   j            E        occ.                                                              
     1  0  0.50    -78401.1885   2.0000                                                             
     2  0  0.50    -13770.7750   2.0000                                                             
     2  1  1.50    -11931.0468   6.0000                                                             
     3  0  0.50     -3234.7234   2.0000                                                             
     3  1  1.50     -2699.2216   6.0000                                                             
     3  2  2.50     -2119.5714  10.0000                                                             
     4  0  0.50      -695.1528   2.0000                                                             
     4  1  1.50      -519.6034   6.0000                                                             
     4  2  2.50      -306.6786  10.0000                                                             
     4  3  3.50       -70.1041  14.0000                                                             
     5  0  0.50      -101.7747   2.0000                                                             
     5  1  1.50       -55.9873   6.0000                                                             
     5  2  2.50        -6.1423   9.0000                                                             
     6  0  0.50        -5.6573   1.0000                                                             
     6  1  1.50        -6.8029   0.0000                                                             
     5  3  2.50        -1.3606   0.0000                                                             
   Description                                                                                      
     l       E           TYP  RCUT    TYP  RCUT                                                     
     2     -6.1423404     23  2.500                                                                 
     2     -7.5029230     23  2.500                                                                 
     0     -5.6573207     23  2.500                                                                 
     0      0.7416693     23  2.500                                                                 
     1     -2.7211652     23  2.600                                                                 
     1     20.4087390     23  2.600                                                                 
     3     -1.3605826     23  2.500                                                                 
  local pseudopotential read in
  partial core-charges read in
  partial kinetic energy density read in
  atomic valenz-charges read in
  non local Contribution for L=           2  read in
    real space projection operators read in
  non local Contribution for L=           2  read in
    real space projection operators read in
  non local Contribution for L=           0  read in
    real space projection operators read in
  non local Contribution for L=           0  read in
    real space projection operators read in
  non local Contribution for L=           1  read in
    real space projection operators read in
  non local Contribution for L=           1  read in
    real space projection operators read in
    PAW grid and wavefunctions read in
 
   number of l-projection  operators is LMAX  =           6
   number of lm-projection operators is LMMAX =          18
 
  PAW_PBE Fe_pv 02Aug2007               :
 energy of atom  1       EATOM=-2457.4239
 kinetic energy error for atom=    0.0062 (will be added to EATOM!!)
  PAW_PBE Pt 04Feb2005                  :
 energy of atom  2       EATOM= -729.1176
 kinetic energy error for atom=    0.0032 (will be added to EATOM!!)
 
 
 POSCAR: Fe9 Pt3
  positions in direct lattice
  velocities in cartesian coordinates


 exchange-correlation table for PE
   RHO(1)=    0.500       N(1)  =     2000
   RHO(2)=  100.500       N(2)  =     4000
 


--------------------------------------------------------------------------------------------------------


 ion  position               nearest neighbor table
   1  0.000  0.500  0.167-  11 2.56  11 2.56  10 2.56  10 2.56   7 2.59   7 2.59   7 2.59   7 2.59
                             4 2.64   4 2.64   5 2.64   5 2.64
   2  0.000  0.500  0.499-   5 2.55   5 2.55   8 2.59   8 2.59   8 2.59   8 2.59   6 2.60   6 2.60
                            12 2.60  12 2.60  11 2.62  11 2.62
   3  0.000  0.500  0.834-   4 2.55   4 2.55   9 2.59   9 2.59   9 2.59   9 2.59  12 2.60  12 2.60
                             6 2.60   6 2.60  10 2.62  10 2.62
   4  0.500  0.500  0.995-   9 2.55   9 2.55   3 2.55   3 2.55  10 2.59  10 2.59  10 2.59  10 2.59
                             1 2.64   1 2.64   7 2.64   7 2.64
   5  0.500  0.500  0.338-   8 2.55   8 2.55   2 2.55   2 2.55  11 2.59  11 2.59  11 2.59  11 2.59
                             1 2.64   1 2.64   7 2.64   7 2.64
   6  0.500  0.500  0.667-  12 2.59  12 2.59  12 2.59  12 2.59   2 2.60   2 2.60   3 2.60   3 2.60
                             8 2.60   8 2.60   9 2.60   9 2.60
   7  0.500  0.000  0.167-  11 2.56  11 2.56  10 2.56  10 2.56   1 2.59   1 2.59   1 2.59   1 2.59
                             4 2.64   4 2.64   5 2.64   5 2.64
   8  0.500  0.000  0.499-   5 2.55   5 2.55   2 2.59   2 2.59   2 2.59   2 2.59   6 2.60   6 2.60
                            12 2.60  12 2.60  11 2.62  11 2.62
   9  0.500  0.000  0.834-   4 2.55   4 2.55   3 2.59   3 2.59   3 2.59   3 2.59  12 2.60  12 2.60
                             6 2.60   6 2.60  10 2.62  10 2.62
  10  0.000  0.000  0.004-   7 2.56   7 2.56   1 2.56   1 2.56   4 2.59   4 2.59   4 2.59   4 2.59
                             9 2.62   9 2.62   3 2.62   3 2.62
  11  0.000  0.000  0.329-   7 2.56   7 2.56   1 2.56   1 2.56   5 2.59   5 2.59   5 2.59   5 2.59
                             8 2.62   8 2.62   2 2.62   2 2.62
  12  0.000  0.000  0.667-   6 2.59   6 2.59   6 2.59   6 2.59   3 2.60   3 2.60   2 2.60   2 2.60
                             9 2.60   9 2.60   8 2.60   8 2.60
 
  LATTYP: Found a simple tetragonal cell.
 ALAT       =     3.6600818316
 C/A-ratio  =     3.0184583989
  
  Lattice vectors:
  
 A1 = (   3.6600818316,   0.0000000000,   0.0000000000)
 A2 = (   0.0000000000,   3.6601166761,   0.0000000000)
 A3 = (   0.0000000000,   0.0000000000,  11.0478047451)


Analysis of symmetry for initial positions (statically):
=====================================================================
 Subroutine PRICEL returns:
 Original cell was already a primitive cell.
 

 Routine SETGRP: Setting up the symmetry group for a 
 simple tetragonal supercell.


 Subroutine GETGRP returns: Found 16 space group operations
 (whereof  8 operations were pure point group operations)
 out of a pool of 16 trial point group operations.


The static configuration has the point symmetry C_4v.
 The point group associated with its full space group is D_4h.


Analysis of symmetry for dynamics (positions and initial velocities):
=====================================================================
 Subroutine PRICEL returns:
 Original cell was already a primitive cell.
 

 Routine SETGRP: Setting up the symmetry group for a 
 simple tetragonal supercell.


 Subroutine GETGRP returns: Found 16 space group operations
 (whereof  8 operations were pure point group operations)
 out of a pool of 16 trial point group operations.


The dynamic configuration has the point symmetry C_4v.
 The point group associated with its full space group is D_4h.


Analysis of structural, dynamic, and magnetic symmetry:
=====================================================================
 Subroutine PRICEL returns:
 Original cell was already a primitive cell.
 

 Routine SETGRP: Setting up the symmetry group for a 
 simple tetragonal supercell.


 Subroutine GETGRP returns: Found 16 space group operations
 (whereof  8 operations were pure point group operations)
 out of a pool of 16 trial point group operations.


The overall configuration has the point symmetry C_4v.
 The point group associated with its full space group is D_4h.


 Subroutine INISYM returns: Found 16 space group operations
 (whereof  8 operations are pure point group operations),
 and found     1 'primitive' translations


----------------------------------------------------------------------------------------

                                     Primitive cell                                     

  volume of cell :     148.0000

  direct lattice vectors                    reciprocal lattice vectors
     3.660081832  0.000000000  0.000000000     0.273217935  0.000000000  0.000000000
     0.000000000  3.660116676  0.000000000     0.000000000  0.273215334  0.000000000
     0.000000000  0.000000000 11.047804745     0.000000000  0.000000000  0.090515720

  length of vectors
     3.660081832  3.660116676 11.047804745     0.273217935  0.273215334  0.090515720

  position of ions in fractional coordinates (direct lattice)
     0.000000000  0.500000000  0.166660318
     0.000000000  0.500000000  0.499344307
     0.000000000  0.500000000  0.833994427
     0.500000000  0.500000000  0.994947717
     0.500000000  0.500000000  0.338399481
     0.500000000  0.500000000  0.666664342
     0.500000000  0.000000000  0.166660235
     0.500000000  0.000000000  0.499335790
     0.500000000  0.000000000  0.834003009
     0.000000000  0.000000000  0.004262753
     0.000000000  0.000000000  0.329056303
     0.000000000  0.000000000  0.666671319

  ion indices of the primitive-cell ions
   primitive index   ion index
                 1           1
                 2           2
                 3           3
                 4           4
                 5           5
                 6           6
                 7           7
                 8           8
                 9           9
                10          10
                11          11
                12          12

----------------------------------------------------------------------------------------

 
 
 KPOINTS: pymatgen with grid density = 8800 / numb

Automatic generation of k-mesh.
 Grid dimensions read from file:
 generate k-points for:   13   13    4

 Generating k-lattice:

  Cartesian coordinates                     Fractional coordinates (reciprocal lattice)
     0.021016764  0.000000000  0.000000000     0.076923077  0.000000000  0.000000000
     0.000000000  0.021016564  0.000000000     0.000000000  0.076923077  0.000000000
     0.000000000  0.000000000  0.022628930     0.000000000  0.000000000  0.250000000

  Length of vectors
     0.021016764  0.021016564  0.022628930

  Shift w.r.t. Gamma in fractional coordinates (k-lattice)
     0.000000000  0.000000000  0.000000000

 TETIRR: Found   1010 inequivalent tetrahedra from     4056
 
 Subroutine IBZKPT returns following result:
 ===========================================
 
 Found     84 irreducible k-points:
 
 Following reciprocal coordinates:
            Coordinates               Weight
  0.000000  0.000000  0.000000      1.000000
  0.076923  0.000000  0.000000      4.000000
  0.153846  0.000000  0.000000      4.000000
  0.230769  0.000000  0.000000      4.000000
  0.307692  0.000000  0.000000      4.000000
  0.384615  0.000000  0.000000      4.000000
  0.461538  0.000000  0.000000      4.000000
  0.076923  0.076923  0.000000      4.000000
  0.153846  0.076923  0.000000      8.000000
  0.230769  0.076923  0.000000      8.000000
  0.307692  0.076923  0.000000      8.000000
  0.384615  0.076923  0.000000      8.000000
  0.461538  0.076923  0.000000      8.000000
  0.153846  0.153846  0.000000      4.000000
  0.230769  0.153846  0.000000      8.000000
  0.307692  0.153846  0.000000      8.000000
  0.384615  0.153846  0.000000      8.000000
  0.461538  0.153846  0.000000      8.000000
  0.230769  0.230769  0.000000      4.000000
  0.307692  0.230769  0.000000      8.000000
  0.384615  0.230769  0.000000      8.000000
  0.461538  0.230769  0.000000      8.000000
  0.307692  0.307692  0.000000      4.000000
  0.384615  0.307692  0.000000      8.000000
  0.461538  0.307692  0.000000      8.000000
  0.384615  0.384615  0.000000      4.000000
  0.461538  0.384615  0.000000      8.000000
  0.461538  0.461538  0.000000      4.000000
  0.000000  0.000000  0.250000      2.000000
  0.076923  0.000000  0.250000      8.000000
  0.153846  0.000000  0.250000      8.000000
  0.230769  0.000000  0.250000      8.000000
  0.307692  0.000000  0.250000      8.000000
  0.384615  0.000000  0.250000      8.000000
  0.461538  0.000000  0.250000      8.000000
  0.076923  0.076923  0.250000      8.000000
  0.153846  0.076923  0.250000     16.000000
  0.230769  0.076923  0.250000     16.000000
  0.307692  0.076923  0.250000     16.000000
  0.384615  0.076923  0.250000     16.000000
  0.461538  0.076923  0.250000     16.000000
  0.153846  0.153846  0.250000      8.000000
  0.230769  0.153846  0.250000     16.000000
  0.307692  0.153846  0.250000     16.000000
  0.384615  0.153846  0.250000     16.000000
  0.461538  0.153846  0.250000     16.000000
  0.230769  0.230769  0.250000      8.000000
  0.307692  0.230769  0.250000     16.000000
  0.384615  0.230769  0.250000     16.000000
  0.461538  0.230769  0.250000     16.000000
  0.307692  0.307692  0.250000      8.000000
  0.384615  0.307692  0.250000     16.000000
  0.461538  0.307692  0.250000     16.000000
  0.384615  0.384615  0.250000      8.000000
  0.461538  0.384615  0.250000     16.000000
  0.461538  0.461538  0.250000      8.000000
  0.000000  0.000000  0.500000      1.000000
  0.076923  0.000000  0.500000      4.000000
  0.153846  0.000000  0.500000      4.000000
  0.230769  0.000000  0.500000      4.000000
  0.307692  0.000000  0.500000      4.000000
  0.384615  0.000000  0.500000      4.000000
  0.461538  0.000000  0.500000      4.000000
  0.076923  0.076923  0.500000      4.000000
  0.153846  0.076923  0.500000      8.000000
  0.230769  0.076923  0.500000      8.000000
  0.307692  0.076923  0.500000      8.000000
  0.384615  0.076923  0.500000      8.000000
  0.461538  0.076923  0.500000      8.000000
  0.153846  0.153846  0.500000      4.000000
  0.230769  0.153846  0.500000      8.000000
  0.307692  0.153846  0.500000      8.000000
  0.384615  0.153846  0.500000      8.000000
  0.461538  0.153846  0.500000      8.000000
  0.230769  0.230769  0.500000      4.000000
  0.307692  0.230769  0.500000      8.000000
  0.384615  0.230769  0.500000      8.000000
  0.461538  0.230769  0.500000      8.000000
  0.307692  0.307692  0.500000      4.000000
  0.384615  0.307692  0.500000      8.000000
  0.461538  0.307692  0.500000      8.000000
  0.384615  0.384615  0.500000      4.000000
  0.461538  0.384615  0.500000      8.000000
  0.461538  0.461538  0.500000      4.000000
 
 Following cartesian coordinates:
            Coordinates               Weight
  0.000000  0.000000  0.000000      1.000000
  0.021017  0.000000  0.000000      4.000000
  0.042034  0.000000  0.000000      4.000000
  0.063050  0.000000  0.000000      4.000000
  0.084067  0.000000  0.000000      4.000000
  0.105084  0.000000  0.000000      4.000000
  0.126101  0.000000  0.000000      4.000000
  0.021017  0.021017  0.000000      4.000000
  0.042034  0.021017  0.000000      8.000000
  0.063050  0.021017  0.000000      8.000000
  0.084067  0.021017  0.000000      8.000000
  0.105084  0.021017  0.000000      8.000000
  0.126101  0.021017  0.000000      8.000000
  0.042034  0.042033  0.000000      4.000000
  0.063050  0.042033  0.000000      8.000000
  0.084067  0.042033  0.000000      8.000000
  0.105084  0.042033  0.000000      8.000000
  0.126101  0.042033  0.000000      8.000000
  0.063050  0.063050  0.000000      4.000000
  0.084067  0.063050  0.000000      8.000000
  0.105084  0.063050  0.000000      8.000000
  0.126101  0.063050  0.000000      8.000000
  0.084067  0.084066  0.000000      4.000000
  0.105084  0.084066  0.000000      8.000000
  0.126101  0.084066  0.000000      8.000000
  0.105084  0.105083  0.000000      4.000000
  0.126101  0.105083  0.000000      8.000000
  0.126101  0.126099  0.000000      4.000000
  0.000000  0.000000  0.022629      2.000000
  0.021017  0.000000  0.022629      8.000000
  0.042034  0.000000  0.022629      8.000000
  0.063050  0.000000  0.022629      8.000000
  0.084067  0.000000  0.022629      8.000000
  0.105084  0.000000  0.022629      8.000000
  0.126101  0.000000  0.022629      8.000000
  0.021017  0.021017  0.022629      8.000000
  0.042034  0.021017  0.022629     16.000000
  0.063050  0.021017  0.022629     16.000000
  0.084067  0.021017  0.022629     16.000000
  0.105084  0.021017  0.022629     16.000000
  0.126101  0.021017  0.022629     16.000000
  0.042034  0.042033  0.022629      8.000000
  0.063050  0.042033  0.022629     16.000000
  0.084067  0.042033  0.022629     16.000000
  0.105084  0.042033  0.022629     16.000000
  0.126101  0.042033  0.022629     16.000000
  0.063050  0.063050  0.022629      8.000000
  0.084067  0.063050  0.022629     16.000000
  0.105084  0.063050  0.022629     16.000000
  0.126101  0.063050  0.022629     16.000000
  0.084067  0.084066  0.022629      8.000000
  0.105084  0.084066  0.022629     16.000000
  0.126101  0.084066  0.022629     16.000000
  0.105084  0.105083  0.022629      8.000000
  0.126101  0.105083  0.022629     16.000000
  0.126101  0.126099  0.022629      8.000000
  0.000000  0.000000  0.045258      1.000000
  0.021017  0.000000  0.045258      4.000000
  0.042034  0.000000  0.045258      4.000000
  0.063050  0.000000  0.045258      4.000000
  0.084067  0.000000  0.045258      4.000000
  0.105084  0.000000  0.045258      4.000000
  0.126101  0.000000  0.045258      4.000000
  0.021017  0.021017  0.045258      4.000000
  0.042034  0.021017  0.045258      8.000000
  0.063050  0.021017  0.045258      8.000000
  0.084067  0.021017  0.045258      8.000000
  0.105084  0.021017  0.045258      8.000000
  0.126101  0.021017  0.045258      8.000000
  0.042034  0.042033  0.045258      4.000000
  0.063050  0.042033  0.045258      8.000000
  0.084067  0.042033  0.045258      8.000000
  0.105084  0.042033  0.045258      8.000000
  0.126101  0.042033  0.045258      8.000000
  0.063050  0.063050  0.045258      4.000000
  0.084067  0.063050  0.045258      8.000000
  0.105084  0.063050  0.045258      8.000000
  0.126101  0.063050  0.045258      8.000000
  0.084067  0.084066  0.045258      4.000000
  0.105084  0.084066  0.045258      8.000000
  0.126101  0.084066  0.045258      8.000000
  0.105084  0.105083  0.045258      4.000000
  0.126101  0.105083  0.045258      8.000000
  0.126101  0.126099  0.045258      4.000000
 


--------------------------------------------------------------------------------------------------------




 Dimension of arrays:
   k-points           NKPTS =     84   k-points in BZ     NKDIM =     84   number of bands    NBANDS=    128
   number of dos      NEDOS =    301   number of ions     NIONS =     12
   non local maximal  LDIM  =      6   non local SUM 2l+1 LMDIM =     18
   total plane-waves  NPLWV =  65856
   max r-space proj   IRMAX =      1   max aug-charges    IRDMAX=  27147
   dimension x,y,z NGX =    28 NGY =   28 NGZ =   84
   dimension x,y,z NGXF=    56 NGYF=   56 NGZF=  168
   support grid    NGXF=    56 NGYF=   56 NGZF=  168
   ions per type =               9   3
   NGX,Y,Z   is equivalent  to a cutoff of  12.72, 12.72, 12.64 a.u.
   NGXF,Y,Z  is equivalent  to a cutoff of  25.44, 25.44, 25.28 a.u.

 SYSTEM =  unknown system                          
 POSCAR =  Fe9 Pt3                                 

 Startparameter for this run:
   NWRITE =      2    write-flag & timer
   PREC   = accura    normal or accurate (medium, high low for compatibility)
   ISTART =      0    job   : 0-new  1-cont  2-samecut
   ICHARG =      2    charge: 1-file 2-atom 10-const
   ISPIN  =      2    spin polarized calculation?
   LNONCOLLINEAR =      F non collinear calculations
   LSORBIT =      F    spin-orbit coupling
   INIWAV =      1    electr: 0-lowe 1-rand  2-diag
   LASPH  =      F    aspherical Exc in radial PAW
 Electronic Relaxation 1
   ENCUT  =  520.0 eV  38.22 Ry    6.18 a.u.   6.81  6.81 20.54*2*pi/ulx,y,z
   ENINI  =  520.0     initial cutoff
   ENAUG  =  578.3 eV  augmentation charge cutoff
   NELM   =    200;   NELMIN=  2; NELMDL=  0     # of ELM steps 
   EDIFF  = 0.1E-05   stopping-criterion for ELM
   LREAL  =      F    real-space projection
   NLSPLINE    = F    spline interpolate recip. space projectors
   LCOMPAT=      F    compatible to vasp.4.4
   GGA_COMPAT  = T    GGA compatible to vasp.4.4-vasp.4.6
   LMAXPAW     = -100 max onsite density
   LMAXMIX     =    2 max onsite mixed and CHGCAR
   VOSKOWN=      0    Vosko Wilk Nusair interpolation
   ROPT   =    0.00000   0.00000
 Ionic relaxation
   EDIFFG = -.1E-01   stopping-criterion for IOM
   NSW    =      0    number of steps for IOM
   NBLOCK =      1;   KBLOCK =      1    inner block; outer block 
   IBRION =     -1    ionic relax: 0-MD 1-quasi-New 2-CG
   NFREE  =      0    steps in history (QN), initial steepest desc. (CG)
   ISIF   =      4    stress and relaxation
   IWAVPR =     10    prediction:  0-non 1-charg 2-wave 3-comb
   ISYM   =      2    0-nonsym 1-usesym 2-fastsym
   LCORR  =      T    Harris-Foulkes like correction to forces

   POTIM  = 0.5000    time-step for ionic-motion
   TEIN   =    0.0    initial temperature
   TEBEG  =    0.0;   TEEND  =   0.0 temperature during run
   SMASS  =  -3.00    Nose mass-parameter (am)
   estimated Nose-frequenzy (Omega)   =  0.10E-29 period in steps = 0.13E+47 mass=  -0.306E-27a.u.
   SCALEE = 1.0000    scale energy and forces
   NPACO  =    256;   APACO  = 10.0  distance and # of slots for P.C.
   PSTRESS=    0.0 pullay stress

  Mass of Ions in am
   POMASS =  55.85195.08
  Ionic Valenz
   ZVAL   =  14.00 10.00
  Atomic Wigner-Seitz radii
   RWIGS  =  -1.00 -1.00
  virtual crystal weights 
   VCA    =   1.00  1.00
   NELECT =     156.0000    total number of electrons
   NUPDOWN=      -1.0000    fix difference up-down

 DOS related values:
   EMIN   =  10.00;   EMAX   =-10.00  energy-range for DOS
   EFERMI =   0.00;   METHOD = LEGACY      
   ISMEAR =    -5;   SIGMA  =   0.20  broadening in eV -4-tet -1-fermi 0-gaus

 Electronic relaxation 2 (details)
   IALGO  =     38    algorithm
   LDIAG  =      T    sub-space diagonalisation (order eigenvalues)
   LSUBROT=      F    optimize rotation matrix (better conditioning)
   TURBO    =      0    0=normal 1=particle mesh
   IRESTART =      0    0=no restart 2=restart with 2 vectors
   NREBOOT  =      0    no. of reboots
   NMIN     =      0    reboot dimension
   EREF     =   0.00    reference energy to select bands
   IMIX   =      4    mixing-type and parameters
     AMIX     =   0.40;   BMIX     =  1.00
     AMIX_MAG =   1.60;   BMIX_MAG =  1.00
     AMIN     =   0.10
     WC   =   100.;   INIMIX=   1;  MIXPRE=   1;  MAXMIX= -45

 Intra band minimization:
   WEIMIN = 0.0000     energy-eigenvalue tresh-hold
   EBREAK =  0.20E-08  absolut break condition
   DEPER  =   0.30     relativ break condition  

   TIME   =   0.40     timestep for ELM

  volume/ion in A,a.u.               =      12.33        83.23
  Fermi-wavevector in a.u.,A,eV,Ry     =   1.666080  3.148434 37.767349  2.775822
  Thomas-Fermi vector in A             =   2.752338
 
 Write flags
   LWAVE        =      F    write WAVECAR
   LDOWNSAMPLE  =      F    k-point downsampling of WAVECAR
   LCHARG       =      T    write CHGCAR
   LVTOT        =      F    write LOCPOT, total local potential
   LVHAR        =      F    write LOCPOT, Hartree potential only
   WRT_POTENTIAL= false  ! write potential to hdf5 file
   LELF         =      F    write electronic localiz. function (ELF)
   LORBIT       =     11    0 simple, 1 ext, 2 COOP (PROOUT), +10 PAW based schemes


 Dipole corrections
   LMONO      =      F    monopole corrections only (constant potential shift)
   LDIPOL     =      F    correct potential (dipole corrections)
   IDIPOL     =      0    1-x, 2-y, 3-z, 4-all directions 
   EPSILON    =  1.0000000 bulk dielectric constant
   LVACPOTAV  =      F  vacuum potentials using an averaging scheme for the charge density
   VACPOTFLAT =  0.1000000 required flatness to determine vacuum potential
 Exchange correlation treatment:
   GGA     = PE    functional components
   XC_C    = 1    coefficients multiplying the functional components
   LIBXC   =     F    Libxc                    
   VOSKOWN =     0    Vosko Wilk Nusair interpolation
   LHFCALC =     F    Hartree Fock is set to
   LHFONE  =     F    Hartree Fock one center treatment
   AEXX    =    0.0000 exact exchange contribution

 Parameters of functionals:
   PE:
     No parameter
 
 Van der Waals corrections
   IVDW    =     0    specifies the selected vdW correction

 Linear response parameters
   LEPSILON=     F    determine dielectric tensor
   LRPA    =     F    only Hartree local field effects (RPA)
   LNABLA  =     F    use nabla operator in PAW spheres
   LVEL    =     F    velocity operator in full k-point grid
   CSHIFT  =0.1000    complex shift for real part using Kramers Kronig
   OMEGAMAX=  -1.0    maximum frequency
   DEG_THRESHOLD= 0.2000000E-02 threshold for treating states as degnerate
   RTIME   =   -0.100 relaxation time in fs
  (WPLASMAI=    0.000 imaginary part of plasma frequency in eV, 0.658/RTIME)
   DFIELD  = 0.0000000 0.0000000 0.0000000 field for delta impulse in time
 
  Optional k-point grid parameters
   LKPOINTS_OPT  =     F    use optional k-point grid
   KPOINTS_OPT_MODE=     1    mode for optional k-point grid
 
 Orbital magnetization related:
   ORBITALMAG=     F  switch on orbital magnetization
   LCHIMAG   =     F  perturbation theory with respect to B field
   DQ        =  0.001000  dq finite difference perturbation B field
   LLRAUG    =     F  two centre corrections for induced B field
   LBONE     =     F  B-component reconstruction in AE one-centre
   LVGVCALC  =     T  calculate vGv susceptibility
   LVGVAPPL  =     F  apply vGv susceptibility instead of pGv for G=0

 Random number generation:
   RANDOM_GENERATOR = DEFAULT
   PCG_SEED         = not used


--------------------------------------------------------------------------------------------------------


 Static calculation
 charge density and potential will be updated during run
 spin polarized calculation
 Variant of blocked Davidson
 Davidson routine will perform the subspace rotation
 perform sub-space diagonalisation
    after iterative eigenvector-optimisation
 modified Broyden-mixing scheme, WC =      100.0
 initial mixing is a Kerker type mixing with AMIX =  0.4000 and BMIX =      1.0000
 Hartree-type preconditioning will be used
 using additional bands           50
 reciprocal scheme for non local part
 use partial core corrections
 calculate Harris-corrections to forces 
   (improved forces if not selfconsistent)
 use gradient corrections 
 use of overlap-Matrix (Vanderbilt PP)
 Fermi weights with tetrahedron method with Bloechl corrections


--------------------------------------------------------------------------------------------------------


  energy-cutoff  :      520.00
  volume of cell :      148.00
      direct lattice vectors                 reciprocal lattice vectors
     3.660081832  0.000000000  0.000000000     0.273217935  0.000000000  0.000000000
     0.000000000  3.660116676  0.000000000     0.000000000  0.273215334  0.000000000
     0.000000000  0.000000000 11.047804745     0.000000000  0.000000000  0.090515720

  length of vectors
     3.660081832  3.660116676 11.047804745     0.273217935  0.273215334  0.090515720


 
 k-points in units of 2pi/SCALE and weight: pymatgen with grid density = 8800 / numb
   0.00000000  0.00000000  0.00000000       0.001
   0.02101676  0.00000000  0.00000000       0.006
   0.04203353  0.00000000  0.00000000       0.006
   0.06305029  0.00000000  0.00000000       0.006
   0.08406706  0.00000000  0.00000000       0.006
   0.10508382  0.00000000  0.00000000       0.006
   0.12610059  0.00000000  0.00000000       0.006
   0.02101676  0.02101656  0.00000000       0.006
   0.04203353  0.02101656  0.00000000       0.012
   0.06305029  0.02101656  0.00000000       0.012
   0.08406706  0.02101656  0.00000000       0.012
   0.10508382  0.02101656  0.00000000       0.012
   0.12610059  0.02101656  0.00000000       0.012
   0.04203353  0.04203313  0.00000000       0.006
   0.06305029  0.04203313  0.00000000       0.012
   0.08406706  0.04203313  0.00000000       0.012
   0.10508382  0.04203313  0.00000000       0.012
   0.12610059  0.04203313  0.00000000       0.012
   0.06305029  0.06304969  0.00000000       0.006
   0.08406706  0.06304969  0.00000000       0.012
   0.10508382  0.06304969  0.00000000       0.012
   0.12610059  0.06304969  0.00000000       0.012
   0.08406706  0.08406626  0.00000000       0.006
   0.10508382  0.08406626  0.00000000       0.012
   0.12610059  0.08406626  0.00000000       0.012
   0.10508382  0.10508282  0.00000000       0.006
   0.12610059  0.10508282  0.00000000       0.012
   0.12610059  0.12609938  0.00000000       0.006
   0.00000000  0.00000000  0.02262893       0.003
   0.02101676  0.00000000  0.02262893       0.012
   0.04203353  0.00000000  0.02262893       0.012
   0.06305029  0.00000000  0.02262893       0.012
   0.08406706  0.00000000  0.02262893       0.012
   0.10508382  0.00000000  0.02262893       0.012
   0.12610059  0.00000000  0.02262893       0.012
   0.02101676  0.02101656  0.02262893       0.012
   0.04203353  0.02101656  0.02262893       0.024
   0.06305029  0.02101656  0.02262893       0.024
   0.08406706  0.02101656  0.02262893       0.024
   0.10508382  0.02101656  0.02262893       0.024
   0.12610059  0.02101656  0.02262893       0.024
   0.04203353  0.04203313  0.02262893       0.012
   0.06305029  0.04203313  0.02262893       0.024
   0.08406706  0.04203313  0.02262893       0.024
   0.10508382  0.04203313  0.02262893       0.024
   0.12610059  0.04203313  0.02262893       0.024
   0.06305029  0.06304969  0.02262893       0.012
   0.08406706  0.06304969  0.02262893       0.024
   0.10508382  0.06304969  0.02262893       0.024
   0.12610059  0.06304969  0.02262893       0.024
   0.08406706  0.08406626  0.02262893       0.012
   0.10508382  0.08406626  0.02262893       0.024
   0.12610059  0.08406626  0.02262893       0.024
   0.10508382  0.10508282  0.02262893       0.012
   0.12610059  0.10508282  0.02262893       0.024
   0.12610059  0.12609938  0.02262893       0.012
   0.00000000  0.00000000  0.04525786       0.001
   0.02101676  0.00000000  0.04525786       0.006
   0.04203353  0.00000000  0.04525786       0.006
   0.06305029  0.00000000  0.04525786       0.006
   0.08406706  0.00000000  0.04525786       0.006
   0.10508382  0.00000000  0.04525786       0.006
   0.12610059  0.00000000  0.04525786       0.006
   0.02101676  0.02101656  0.04525786       0.006
   0.04203353  0.02101656  0.04525786       0.012
   0.06305029  0.02101656  0.04525786       0.012
   0.08406706  0.02101656  0.04525786       0.012
   0.10508382  0.02101656  0.04525786       0.012
   0.12610059  0.02101656  0.04525786       0.012
   0.04203353  0.04203313  0.04525786       0.006
   0.06305029  0.04203313  0.04525786       0.012
   0.08406706  0.04203313  0.04525786       0.012
   0.10508382  0.04203313  0.04525786       0.012
   0.12610059  0.04203313  0.04525786       0.012
   0.06305029  0.06304969  0.04525786       0.006
   0.08406706  0.06304969  0.04525786       0.012
   0.10508382  0.06304969  0.04525786       0.012
   0.12610059  0.06304969  0.04525786       0.012
   0.08406706  0.08406626  0.04525786       0.006
   0.10508382  0.08406626  0.04525786       0.012
   0.12610059  0.08406626  0.04525786       0.012
   0.10508382  0.10508282  0.04525786       0.006
   0.12610059  0.10508282  0.04525786       0.012
   0.12610059  0.12609938  0.04525786       0.006
 
 k-points in reciprocal lattice and weights: pymatgen with grid density = 8800 / numb
   0.00000000  0.00000000  0.00000000       0.001
   0.07692308  0.00000000  0.00000000       0.006
   0.15384615  0.00000000  0.00000000       0.006
   0.23076923  0.00000000  0.00000000       0.006
   0.30769231  0.00000000  0.00000000       0.006
   0.38461538  0.00000000  0.00000000       0.006
   0.46153846  0.00000000  0.00000000       0.006
   0.07692308  0.07692308  0.00000000       0.006
   0.15384615  0.07692308  0.00000000       0.012
   0.23076923  0.07692308  0.00000000       0.012
   0.30769231  0.07692308  0.00000000       0.012
   0.38461538  0.07692308  0.00000000       0.012
   0.46153846  0.07692308  0.00000000       0.012
   0.15384615  0.15384615  0.00000000       0.006
   0.23076923  0.15384615  0.00000000       0.012
   0.30769231  0.15384615  0.00000000       0.012
   0.38461538  0.15384615  0.00000000       0.012
   0.46153846  0.15384615  0.00000000       0.012
   0.23076923  0.23076923  0.00000000       0.006
   0.30769231  0.23076923  0.00000000       0.012
   0.38461538  0.23076923  0.00000000       0.012
   0.46153846  0.23076923  0.00000000       0.012
   0.30769231  0.30769231  0.00000000       0.006
   0.38461538  0.30769231  0.00000000       0.012
   0.46153846  0.30769231  0.00000000       0.012
   0.38461538  0.38461538  0.00000000       0.006
   0.46153846  0.38461538  0.00000000       0.012
   0.46153846  0.46153846  0.00000000       0.006
   0.00000000  0.00000000  0.25000000       0.003
   0.07692308  0.00000000  0.25000000       0.012
   0.15384615  0.00000000  0.25000000       0.012
   0.23076923  0.00000000  0.25000000       0.012
   0.30769231  0.00000000  0.25000000       0.012
   0.38461538  0.00000000  0.25000000       0.012
   0.46153846  0.00000000  0.25000000       0.012
   0.07692308  0.07692308  0.25000000       0.012
   0.15384615  0.07692308  0.25000000       0.024
   0.23076923  0.07692308  0.25000000       0.024
   0.30769231  0.07692308  0.25000000       0.024
   0.38461538  0.07692308  0.25000000       0.024
   0.46153846  0.07692308  0.25000000       0.024
   0.15384615  0.15384615  0.25000000       0.012
   0.23076923  0.15384615  0.25000000       0.024
   0.30769231  0.15384615  0.25000000       0.024
   0.38461538  0.15384615  0.25000000       0.024
   0.46153846  0.15384615  0.25000000       0.024
   0.23076923  0.23076923  0.25000000       0.012
   0.30769231  0.23076923  0.25000000       0.024
   0.38461538  0.23076923  0.25000000       0.024
   0.46153846  0.23076923  0.25000000       0.024
   0.30769231  0.30769231  0.25000000       0.012
   0.38461538  0.30769231  0.25000000       0.024
   0.46153846  0.30769231  0.25000000       0.024
   0.38461538  0.38461538  0.25000000       0.012
   0.46153846  0.38461538  0.25000000       0.024
   0.46153846  0.46153846  0.25000000       0.012
   0.00000000  0.00000000  0.50000000       0.001
   0.07692308  0.00000000  0.50000000       0.006
   0.15384615  0.00000000  0.50000000       0.006
   0.23076923  0.00000000  0.50000000       0.006
   0.30769231  0.00000000  0.50000000       0.006
   0.38461538  0.00000000  0.50000000       0.006
   0.46153846  0.00000000  0.50000000       0.006
   0.07692308  0.07692308  0.50000000       0.006
   0.15384615  0.07692308  0.50000000       0.012
   0.23076923  0.07692308  0.50000000       0.012
   0.30769231  0.07692308  0.50000000       0.012
   0.38461538  0.07692308  0.50000000       0.012
   0.46153846  0.07692308  0.50000000       0.012
   0.15384615  0.15384615  0.50000000       0.006
   0.23076923  0.15384615  0.50000000       0.012
   0.30769231  0.15384615  0.50000000       0.012
   0.38461538  0.15384615  0.50000000       0.012
   0.46153846  0.15384615  0.50000000       0.012
   0.23076923  0.23076923  0.50000000       0.006
   0.30769231  0.23076923  0.50000000       0.012
   0.38461538  0.23076923  0.50000000       0.012
   0.46153846  0.23076923  0.50000000       0.012
   0.30769231  0.30769231  0.50000000       0.006
   0.38461538  0.30769231  0.50000000       0.012
   0.46153846  0.30769231  0.50000000       0.012
   0.38461538  0.38461538  0.50000000       0.006
   0.46153846  0.38461538  0.50000000       0.012
   0.46153846  0.46153846  0.50000000       0.006
 
 position of ions in fractional coordinates (direct lattice) 
   0.00000000  0.50000000  0.16666032
   0.00000000  0.50000000  0.49934431
   0.00000000  0.50000000  0.83399443
   0.50000000  0.50000000  0.99494772
   0.50000000  0.50000000  0.33839948
   0.50000000  0.50000000  0.66666434
   0.50000000  0.00000000  0.16666024
   0.50000000  0.00000000  0.49933579
   0.50000000  0.00000000  0.83400301
   0.00000000  0.00000000  0.00426275
   0.00000000  0.00000000  0.32905630
   0.00000000  0.00000000  0.66667132
 
 position of ions in cartesian coordinates  (Angst):
   0.00000000  1.83005834  1.84123065
   0.00000000  1.83005834  5.51665840
   0.00000000  1.83005834  9.21380759
   1.83004092  1.83005834 10.99198811
   1.83004092  1.83005834  3.73857139
   1.83004092  1.83005834  7.36517748
   1.83004092  0.00000000  1.84122974
   1.83004092  0.00000000  5.51656431
   1.83004092  0.00000000  9.21390240
   0.00000000  0.00000000  0.04709406
   0.00000000  0.00000000  3.63534979
   0.00000000  0.00000000  7.36525456
 


--------------------------------------------------------------------------------------------------------


 k-point     1 :   0.0000 0.0000 0.0000  plane waves:    3993
 k-point     2 :   0.0769 0.0000 0.0000  plane waves:    4005
 k-point     3 :   0.1538 0.0000 0.0000  plane waves:    3985
 k-point     4 :   0.2308 0.0000 0.0000  plane waves:    3982
 k-point     5 :   0.3077 0.0000 0.0000  plane waves:    3980
 k-point     6 :   0.3846 0.0000 0.0000  plane waves:    3978
 k-point     7 :   0.4615 0.0000 0.0000  plane waves:    3978
 k-point     8 :   0.0769 0.0769 0.0000  plane waves:    3991
 k-point     9 :   0.1538 0.0769 0.0000  plane waves:    3992
 k-point    10 :   0.2308 0.0769 0.0000  plane waves:    3977
 k-point    11 :   0.3077 0.0769 0.0000  plane waves:    3982
 k-point    12 :   0.3846 0.0769 0.0000  plane waves:    3987
 k-point    13 :   0.4615 0.0769 0.0000  plane waves:    3977
 k-point    14 :   0.1538 0.1538 0.0000  plane waves:    3983
 k-point    15 :   0.2308 0.1538 0.0000  plane waves:    3976
 k-point    16 :   0.3077 0.1538 0.0000  plane waves:    3980
 k-point    17 :   0.3846 0.1538 0.0000  plane waves:    3988
 k-point    18 :   0.4615 0.1538 0.0000  plane waves:    3985
 k-point    19 :   0.2308 0.2308 0.0000  plane waves:    3976
 k-point    20 :   0.3077 0.2308 0.0000  plane waves:    3974
 k-point    21 :   0.3846 0.2308 0.0000  plane waves:    3999
 k-point    22 :   0.4615 0.2308 0.0000  plane waves:    3998
 k-point    23 :   0.3077 0.3077 0.0000  plane waves:    3988
 k-point    24 :   0.3846 0.3077 0.0000  plane waves:    3987
 k-point    25 :   0.4615 0.3077 0.0000  plane waves:    4002
 k-point    26 :   0.3846 0.3846 0.0000  plane waves:    3986
 k-point    27 :   0.4615 0.3846 0.0000  plane waves:    3998
 k-point    28 :   0.4615 0.4615 0.0000  plane waves:    4012
 k-point    29 :   0.0000 0.0000 0.2500  plane waves:    3989
 k-point    30 :   0.0769 0.0000 0.2500  plane waves:    3997
 k-point    31 :   0.1538 0.0000 0.2500  plane waves:    3984
 k-point    32 :   0.2308 0.0000 0.2500  plane waves:    3975
 k-point    33 :   0.3077 0.0000 0.2500  plane waves:    3981
 k-point    34 :   0.3846 0.0000 0.2500  plane waves:    3986
 k-point    35 :   0.4615 0.0000 0.2500  plane waves:    3983
 k-point    36 :   0.0769 0.0769 0.2500  plane waves:    3987
 k-point    37 :   0.1538 0.0769 0.2500  plane waves:    3974
 k-point    38 :   0.2308 0.0769 0.2500  plane waves:    3982
 k-point    39 :   0.3077 0.0769 0.2500  plane waves:    3983
 k-point    40 :   0.3846 0.0769 0.2500  plane waves:    3982
 k-point    41 :   0.4615 0.0769 0.2500  plane waves:    3972
 k-point    42 :   0.1538 0.1538 0.2500  plane waves:    3986
 k-point    43 :   0.2308 0.1538 0.2500  plane waves:    3975
 k-point    44 :   0.3077 0.1538 0.2500  plane waves:    3988
 k-point    45 :   0.3846 0.1538 0.2500  plane waves:    3976
 k-point    46 :   0.4615 0.1538 0.2500  plane waves:    3972
 k-point    47 :   0.2308 0.2308 0.2500  plane waves:    3971
 k-point    48 :   0.3077 0.2308 0.2500  plane waves:    3980
 k-point    49 :   0.3846 0.2308 0.2500  plane waves:    3987
 k-point    50 :   0.4615 0.2308 0.2500  plane waves:    3992
 k-point    51 :   0.3077 0.3077 0.2500  plane waves:    3983
 k-point    52 :   0.3846 0.3077 0.2500  plane waves:    3995
 k-point    53 :   0.4615 0.3077 0.2500  plane waves:    4001
 k-point    54 :   0.3846 0.3846 0.2500  plane waves:    4001
 k-point    55 :   0.4615 0.3846 0.2500  plane waves:    3998
 k-point    56 :   0.4615 0.4615 0.2500  plane waves:    4010
 k-point    57 :   0.0000 0.0000 0.5000  plane waves:    3986
 k-point    58 :   0.0769 0.0000 0.5000  plane waves:    3988
 k-point    59 :   0.1538 0.0000 0.5000  plane waves:    3974
 k-point    60 :   0.2308 0.0000 0.5000  plane waves:    3974
 k-point    61 :   0.3077 0.0000 0.5000  plane waves:    3986
 k-point    62 :   0.3846 0.0000 0.5000  plane waves:    3988
 k-point    63 :   0.4615 0.0000 0.5000  plane waves:    3994
 k-point    64 :   0.0769 0.0769 0.5000  plane waves:    3980
 k-point    65 :   0.1538 0.0769 0.5000  plane waves:    3966
 k-point    66 :   0.2308 0.0769 0.5000  plane waves:    3984
 k-point    67 :   0.3077 0.0769 0.5000  plane waves:    3990
 k-point    68 :   0.3846 0.0769 0.5000  plane waves:    3986
 k-point    69 :   0.4615 0.0769 0.5000  plane waves:    3976
 k-point    70 :   0.1538 0.1538 0.5000  plane waves:    3970
 k-point    71 :   0.2308 0.1538 0.5000  plane waves:    3980
 k-point    72 :   0.3077 0.1538 0.5000  plane waves:    3984
 k-point    73 :   0.3846 0.1538 0.5000  plane waves:    3982
 k-point    74 :   0.4615 0.1538 0.5000  plane waves:    3966
 k-point    75 :   0.2308 0.2308 0.5000  plane waves:    3980
 k-point    76 :   0.3077 0.2308 0.5000  plane waves:    3988
 k-point    77 :   0.3846 0.2308 0.5000  plane waves:    3982
 k-point    78 :   0.4615 0.2308 0.5000  plane waves:    3986
 k-point    79 :   0.3077 0.3077 0.5000  plane waves:    3984
 k-point    80 :   0.3846 0.3077 0.5000  plane waves:    3986
 k-point    81 :   0.4615 0.3077 0.5000  plane waves:    3988
 k-point    82 :   0.3846 0.3846 0.5000  plane waves:    3998
 k-point    83 :   0.4615 0.3846 0.5000  plane waves:    4010
 k-point    84 :   0.4615 0.4615 0.5000  plane waves:    3998

 maximum and minimum number of plane-waves per node :      4012     3966

 maximum number of plane-waves:      4012
 maximum index in each direction: 
   IXMAX=    6   IYMAX=    6   IZMAX=   20
   IXMIN=   -7   IYMIN=   -7   IZMIN=  -21


 serial   3D FFT for wavefunctions
 parallel 3D FFT for charge:
    minimum data exchange during FFTs selected (reduces bandwidth)


 total amount of memory used by VASP MPI-rank0   182150. kBytes
=======================================================================

   base      :      30000. kBytes
   nonl-proj :      98316. kBytes
   fftplans  :        888. kBytes
   grid      :       6813. kBytes
   one-center:        373. kBytes
   wavefun   :      45760. kBytes
 
     INWAV:  cpu time      0.0000: real time      0.0000
 Broyden mixing: mesh for mixing (old mesh)
   NGX = 13   NGY = 13   NGZ = 41
  (NGX  = 56   NGY  = 56   NGZ  =168)
  gives a total of   6929 points

 initial charge density was supplied:
 charge density of overlapping atoms calculated
 number of electron     156.0000000 magnetization      13.3720000
 keeping initial charge density in first step


--------------------------------------------------------------------------------------------------------


 Maximum index for augmentation-charges         1069 (set IRDMAX)


--------------------------------------------------------------------------------------------------------


 First call to EWALD:  gamma=   0.335
 Maximum number of real-space cells 4x 4x 2
 Maximum number of reciprocal cells 2x 2x 5

    FEWALD:  cpu time      0.0040: real time      0.0040


--------------------------------------- Ionic step        1  -------------------------------------------




--------------------------------------- Iteration      1(   1)  ---------------------------------------


    POTLOK:  cpu time      0.0271: real time      0.0515
    SETDIJ:  cpu time      0.0089: real time      0.0091
     EDDAV:  cpu time      5.7162: real time      5.7625
 BZINTS: Fermi energy:   23.989202;  156.000000 electrons
         Band energy: 0.621409E+03;  BLOECHL correction:   -0.048247
       DOS:  cpu time      0.1297: real time      0.1312
    --------------------------------------------
      LOOP:  cpu time      5.8821: real time      5.9544

 eigenvalue-minimisations  : 43040
 total energy-change (2. order) : 0.1766753E+04  (-0.8416446E+04)
 number of electron     156.0000000 magnetization      13.3720000
 augmentation part      156.0000000 magnetization      13.3720000

 Free energy of the ion-electron system (eV)
  ---------------------------------------------------
  alpha Z        PSCENC =      1149.93330786
  Ewald energy   TEWEN  =    -18409.02465270
  -Hartree energ DENC   =     -5834.06418288
  -exchange      EXHF   =         0.00000000
  -V(xc)+E(xc)   XCENC  =       658.42621144
  PAW double counting   =     20095.06231925   -20819.09164289
  entropy T*S    EENTRO =         0.00000000
  eigenvalues    EBANDS =       621.40900122
  atomic energy  EATOM  =     24304.10294433
  Solvation  Ediel_sol  =         0.00000000
  ---------------------------------------------------
  free energy    TOTEN  =      1766.75330562 eV

  energy without entropy =     1766.75330562  energy(sigma->0) =     1766.75330562


--------------------------------------------------------------------------------------------------------




--------------------------------------- Iteration      1(   2)  ---------------------------------------


     EDDAV:  cpu time      5.7136: real time      5.7652
 BZINTS: Fermi energy:   13.012830;  156.000000 electrons
         Band energy:-0.113926E+04;  BLOECHL correction:   -0.023649
       DOS:  cpu time      0.1297: real time      0.1306
    --------------------------------------------
      LOOP:  cpu time      5.8433: real time      5.8958

 eigenvalue-minimisations  : 43008
 total energy-change (2. order) :-0.1760670E+04  (-0.1670032E+04)
 number of electron     156.0000000 magnetization      13.3720000
 augmentation part      156.0000000 magnetization      13.3720000

 Free energy of the ion-electron system (eV)
  ---------------------------------------------------
  alpha Z        PSCENC =      1149.93330786
  Ewald energy   TEWEN  =    -18409.02465270
  -Hartree energ DENC   =     -5834.06418288
  -exchange      EXHF   =         0.00000000
  -V(xc)+E(xc)   XCENC  =       658.42621144
  PAW double counting   =     20095.06231925   -20819.09164289
  entropy T*S    EENTRO =         0.00000000
  eigenvalues    EBANDS =     -1139.26117688
  atomic energy  EATOM  =     24304.10294433
  Solvation  Ediel_sol  =         0.00000000
  ---------------------------------------------------
  free energy    TOTEN  =         6.08312753 eV

  energy without entropy =        6.08312753  energy(sigma->0) =        6.08312753


--------------------------------------------------------------------------------------------------------




--------------------------------------- Iteration      1(   3)  ---------------------------------------


     EDDAV:  cpu time      6.8694: real time      6.9268
 BZINTS: Fermi energy:   12.426691;  156.000000 electrons
         Band energy:-0.124884E+04;  BLOECHL correction:   -0.032540
       DOS:  cpu time      0.1906: real time      0.1920
    --------------------------------------------
      LOOP:  cpu time      7.0600: real time      7.1187

 eigenvalue-minimisations  : 50720
 total energy-change (2. order) :-0.1095761E+03  (-0.1081731E+03)
 number of electron     156.0000000 magnetization      13.3720000
 augmentation part      156.0000000 magnetization      13.3720000

 Free energy of the ion-electron system (eV)
  ---------------------------------------------------
  alpha Z        PSCENC =      1149.93330786
  Ewald energy   TEWEN  =    -18409.02465270
  -Hartree energ DENC   =     -5834.06418288
  -exchange      EXHF   =         0.00000000
  -V(xc)+E(xc)   XCENC  =       658.42621144
  PAW double counting   =     20095.06231925   -20819.09164289
  entropy T*S    EENTRO =         0.00000000
  eigenvalues    EBANDS =     -1248.83730407
  atomic energy  EATOM  =     24304.10294433
  Solvation  Ediel_sol  =         0.00000000
  ---------------------------------------------------
  free energy    TOTEN  =      -103.49299967 eV

  energy without entropy =     -103.49299967  energy(sigma->0) =     -103.49299967


--------------------------------------------------------------------------------------------------------




--------------------------------------- Iteration      1(   4)  ---------------------------------------


     EDDAV:  cpu time      6.0194: real time      6.0741
 BZINTS: Fermi energy:   12.421771;  156.000000 electrons
         Band energy:-0.125038E+04;  BLOECHL correction:   -0.032547
       DOS:  cpu time      0.1283: real time      0.1293
    --------------------------------------------
      LOOP:  cpu time      6.1477: real time      6.2033

 eigenvalue-minimisations  : 45248
 total energy-change (2. order) :-0.1542714E+01  (-0.1542393E+01)
 number of electron     156.0000000 magnetization      13.3720000
 augmentation part      156.0000000 magnetization      13.3720000

 Free energy of the ion-electron system (eV)
  ---------------------------------------------------
  alpha Z        PSCENC =      1149.93330786
  Ewald energy   TEWEN  =    -18409.02465270
  -Hartree energ DENC   =     -5834.06418288
  -exchange      EXHF   =         0.00000000
  -V(xc)+E(xc)   XCENC  =       658.42621144
  PAW double counting   =     20095.06231925   -20819.09164289
  entropy T*S    EENTRO =         0.00000000
  eigenvalues    EBANDS =     -1250.38001777
  atomic energy  EATOM  =     24304.10294433
  Solvation  Ediel_sol  =         0.00000000
  ---------------------------------------------------
  free energy    TOTEN  =      -105.03571337 eV

  energy without entropy =     -105.03571337  energy(sigma->0) =     -105.03571337


--------------------------------------------------------------------------------------------------------




--------------------------------------- Iteration      1(   5)  ---------------------------------------


     EDDAV:  cpu time      7.3950: real time      7.4549
 BZINTS: Fermi energy:   12.421722;  156.000000 electrons
         Band energy:-0.125041E+04;  BLOECHL correction:   -0.032546
       DOS:  cpu time      0.1291: real time      0.1301
    CHARGE:  cpu time      0.1528: real time      0.1539
    MIXING:  cpu time      0.0077: real time      0.0078
    --------------------------------------------
      LOOP:  cpu time      7.6846: real time      7.7467

 eigenvalue-minimisations  : 53248
 total energy-change (2. order) :-0.2836827E-01  (-0.2836764E-01)
 number of electron     156.0000045 magnetization      12.5328648
 augmentation part       79.2661076 magnetization       9.4027118

 Broyden mixing:
  rms(total) = 0.40894E+01    rms(broyden)= 0.40888E+01
  rms(prec ) = 0.46276E+01
  weight for this iteration     100.00

 Free energy of the ion-electron system (eV)
  ---------------------------------------------------
  alpha Z        PSCENC =      1149.93330786
  Ewald energy   TEWEN  =    -18409.02465270
  -Hartree energ DENC   =     -5834.06418288
  -exchange      EXHF   =         0.00000000
  -V(xc)+E(xc)   XCENC  =       658.42621144
  PAW double counting   =     20095.06231925   -20819.09164289
  entropy T*S    EENTRO =         0.00000000
  eigenvalues    EBANDS =     -1250.40838604
  atomic energy  EATOM  =     24304.10294433
  Solvation  Ediel_sol  =         0.00000000
  ---------------------------------------------------
  free energy    TOTEN  =      -105.06408164 eV

  energy without entropy =     -105.06408164  energy(sigma->0) =     -105.06408164


--------------------------------------------------------------------------------------------------------




--------------------------------------- Iteration      1(   6)  ---------------------------------------


    POTLOK:  cpu time      0.0356: real time      0.0455
    SETDIJ:  cpu time      0.0077: real time      0.0078
     EDDAV:  cpu time      7.2784: real time      7.3281
 BZINTS: Fermi energy:    9.943799;  156.000000 electrons
         Band energy:-0.167362E+04;  BLOECHL correction:   -0.024985
       DOS:  cpu time      0.1359: real time      0.1373
    CHARGE:  cpu time      0.1479: real time      0.1487
    MIXING:  cpu time      0.0039: real time      0.0040
    --------------------------------------------
      LOOP:  cpu time      7.6094: real time      7.6715

 eigenvalue-minimisations  : 53248
 total energy-change (2. order) :-0.1378262E+02  (-0.2494470E+02)
 number of electron     156.0000050 magnetization      12.4978850
 augmentation part       87.8540079 magnetization       9.0127335

 Broyden mixing:
  rms(total) = 0.71113E+01    rms(broyden)= 0.71110E+01
  rms(prec ) = 0.11309E+02
  weight for this iteration     100.00

 eigenvalues of (default mixing * dielectric matrix)
  average eigenvalue GAMMA=   0.2295
  0.2295

 Free energy of the ion-electron system (eV)
  ---------------------------------------------------
  alpha Z        PSCENC =      1149.93330786
  Ewald energy   TEWEN  =    -18409.02465270
  -Hartree energ DENC   =     -5429.17458408
  -exchange      EXHF   =         0.00000000
  -V(xc)+E(xc)   XCENC  =       640.85444845
  PAW double counting   =     20614.96225303   -21316.87589998
  entropy T*S    EENTRO =         0.00000000
  eigenvalues    EBANDS =     -1673.62452106
  atomic energy  EATOM  =     24304.10294433
  Solvation  Ediel_sol  =         0.00000000
  ---------------------------------------------------
  free energy    TOTEN  =      -118.84670416 eV

  energy without entropy =     -118.84670416  energy(sigma->0) =     -118.84670416


--------------------------------------------------------------------------------------------------------




--------------------------------------- Iteration      1(   7)  ---------------------------------------


    POTLOK:  cpu time      0.0345: real time      0.0444
    SETDIJ:  cpu time      0.0081: real time      0.0082
     EDDAV:  cpu time      7.2149: real time      7.2645
 BZINTS: Fermi energy:   10.209664;  156.000000 electrons
         Band energy:-0.159976E+04;  BLOECHL correction:   -0.031512
       DOS:  cpu time      0.1368: real time      0.1377
    CHARGE:  cpu time      0.1488: real time      0.1497
    MIXING:  cpu time      0.0028: real time      0.0031
    --------------------------------------------
      LOOP:  cpu time      7.5460: real time      7.6075

 eigenvalue-minimisations  : 52736
 total energy-change (2. order) : 0.1003261E+02  (-0.2445834E+02)
 number of electron     156.0000040 magnetization      11.5495731
 augmentation part       86.3711949 magnetization      10.7516537

 Broyden mixing:
  rms(total) = 0.62422E+01    rms(broyden)= 0.62416E+01
  rms(prec ) = 0.10589E+02
  weight for this iteration     100.00

 eigenvalues of (default mixing * dielectric matrix)
  average eigenvalue GAMMA=   0.3204
  0.5309  0.1098

 Free energy of the ion-electron system (eV)
  ---------------------------------------------------
  alpha Z        PSCENC =      1149.93330786
  Ewald energy   TEWEN  =    -18409.02465270
  -Hartree energ DENC   =     -5482.00463565
  -exchange      EXHF   =         0.00000000
  -V(xc)+E(xc)   XCENC  =       642.35566032
  PAW double counting   =     20887.46007196   -21601.87627781
  entropy T*S    EENTRO =         0.00000000
  eigenvalues    EBANDS =     -1599.76051051
  atomic energy  EATOM  =     24304.10294433
  Solvation  Ediel_sol  =         0.00000000
  ---------------------------------------------------
  free energy    TOTEN  =      -108.81409220 eV

  energy without entropy =     -108.81409220  energy(sigma->0) =     -108.81409220


--------------------------------------------------------------------------------------------------------




--------------------------------------- Iteration      1(   8)  ---------------------------------------


    POTLOK:  cpu time      0.0434: real time      0.0442
    SETDIJ:  cpu time      0.0083: real time      0.0083
     EDDAV:  cpu time      7.1232: real time      7.1726
 BZINTS: Fermi energy:   10.980459;  156.000000 electrons
         Band energy:-0.146870E+04;  BLOECHL correction:   -0.028239
       DOS:  cpu time      0.1369: real time      0.1380
    CHARGE:  cpu time      0.1475: real time      0.1483
    MIXING:  cpu time      0.0019: real time      0.0019
    --------------------------------------------
      LOOP:  cpu time      7.4612: real time      7.5134

 eigenvalue-minimisations  : 51840
 total energy-change (2. order) : 0.1230168E+02  (-0.1693588E+02)
 number of electron     156.0000057 magnetization      11.0136358
 augmentation part       83.4165069 magnetization       7.5825073

 Broyden mixing:
  rms(total) = 0.31032E+01    rms(broyden)= 0.31024E+01
  rms(prec ) = 0.48820E+01
  weight for this iteration     100.00

 eigenvalues of (default mixing * dielectric matrix)
  average eigenvalue GAMMA=   0.4765
  0.9506  0.3828  0.0960

 Free energy of the ion-electron system (eV)
  ---------------------------------------------------
  alpha Z        PSCENC =      1149.93330786
  Ewald energy   TEWEN  =    -18409.02465270
  -Hartree energ DENC   =     -5577.67774974
  -exchange      EXHF   =         0.00000000
  -V(xc)+E(xc)   XCENC  =       644.83868180
  PAW double counting   =     21474.66342772   -22214.64639013
  entropy T*S    EENTRO =         0.00000000
  eigenvalues    EBANDS =     -1468.70197818
  atomic energy  EATOM  =     24304.10294433
  Solvation  Ediel_sol  =         0.00000000
  ---------------------------------------------------
  free energy    TOTEN  =       -96.51240904 eV

  energy without entropy =      -96.51240904  energy(sigma->0) =      -96.51240904


--------------------------------------------------------------------------------------------------------




--------------------------------------- Iteration      1(   9)  ---------------------------------------


    POTLOK:  cpu time      0.0358: real time      0.0454
    SETDIJ:  cpu time      0.0081: real time      0.0081
     EDDAV:  cpu time      6.7586: real time      6.8052
 BZINTS: Fermi energy:   10.932201;  156.000000 electrons
         Band energy:-0.151161E+04;  BLOECHL correction:   -0.017832
       DOS:  cpu time      0.1372: real time      0.1382
    CHARGE:  cpu time      0.1468: real time      0.1477
    MIXING:  cpu time      0.0019: real time      0.0019
    --------------------------------------------
      LOOP:  cpu time      7.0884: real time      7.1465

 eigenvalue-minimisations  : 49984
 total energy-change (2. order) :-0.1038940E+02  (-0.1620802E+02)
 number of electron     156.0000078 magnetization      10.6224361
 augmentation part       84.2423897 magnetization       8.0199800

 Broyden mixing:
  rms(total) = 0.53562E+01    rms(broyden)= 0.53557E+01
  rms(prec ) = 0.71857E+01
  weight for this iteration     100.00

 eigenvalues of (default mixing * dielectric matrix)
  average eigenvalue GAMMA=   0.4728
  1.2431  0.4270  0.0907  0.1304

 Free energy of the ion-electron system (eV)
  ---------------------------------------------------
  alpha Z        PSCENC =      1149.93330786
  Ewald energy   TEWEN  =    -18409.02465270
  -Hartree energ DENC   =     -5538.60806116
  -exchange      EXHF   =         0.00000000
  -V(xc)+E(xc)   XCENC  =       643.16311317
  PAW double counting   =     21735.49505289   -22480.35376232
  entropy T*S    EENTRO =         0.00000000
  eigenvalues    EBANDS =     -1511.60974662
  atomic energy  EATOM  =     24304.10294433
  Solvation  Ediel_sol  =         0.00000000
  ---------------------------------------------------
  free energy    TOTEN  =      -106.90180455 eV

  energy without entropy =     -106.90180455  energy(sigma->0) =     -106.90180455


--------------------------------------------------------------------------------------------------------




--------------------------------------- Iteration      1(  10)  ---------------------------------------


    POTLOK:  cpu time      0.0444: real time      0.0477
    SETDIJ:  cpu time      0.0063: real time      0.0063
     EDDAV:  cpu time      6.6428: real time      6.6914
 BZINTS: Fermi energy:   10.437860;  156.000000 electrons
         Band energy:-0.152651E+04;  BLOECHL correction:   -0.025550
       DOS:  cpu time      0.1371: real time      0.1381
    CHARGE:  cpu time      0.1506: real time      0.1514
    MIXING:  cpu time      0.0020: real time      0.0020
    --------------------------------------------
      LOOP:  cpu time      6.9831: real time      7.0370

 eigenvalue-minimisations  : 49600
 total energy-change (2. order) : 0.1385791E+02  (-0.3363808E+01)
 number of electron     156.0000087 magnetization      10.6592462
 augmentation part       84.6992923 magnetization       7.7093700

 Broyden mixing:
  rms(total) = 0.20427E+01    rms(broyden)= 0.20419E+01
  rms(prec ) = 0.28447E+01
  weight for this iteration     100.00

 eigenvalues of (default mixing * dielectric matrix)
  average eigenvalue GAMMA=   0.4294
  1.2090  0.3729  0.3384  0.0923  0.1346

 Free energy of the ion-electron system (eV)
  ---------------------------------------------------
  alpha Z        PSCENC =      1149.93330786
  Ewald energy   TEWEN  =    -18409.02465270
  -Hartree energ DENC   =     -5505.23591328
  -exchange      EXHF   =         0.00000000
  -V(xc)+E(xc)   XCENC  =       641.82116568
  PAW double counting   =     21929.69526496   -22677.82721396
  entropy T*S    EENTRO =         0.00000000
  eigenvalues    EBANDS =     -1526.50879834
  atomic energy  EATOM  =     24304.10294433
  Solvation  Ediel_sol  =         0.00000000
  ---------------------------------------------------
  free energy    TOTEN  =       -93.04389545 eV

  energy without entropy =      -93.04389545  energy(sigma->0) =      -93.04389545


--------------------------------------------------------------------------------------------------------




--------------------------------------- Iteration      1(  11)  ---------------------------------------


    POTLOK:  cpu time      0.0353: real time      0.0453
    SETDIJ:  cpu time      0.0076: real time      0.0077
     EDDAV:  cpu time      6.9117: real time      6.9610
 BZINTS: Fermi energy:   10.541147;  156.000000 electrons
         Band energy:-0.152762E+04;  BLOECHL correction:   -0.029182
       DOS:  cpu time      0.1369: real time      0.1379
    CHARGE:  cpu time      0.1479: real time      0.1487
    MIXING:  cpu time      0.0020: real time      0.0020
    --------------------------------------------
      LOOP:  cpu time      7.2414: real time      7.3025

 eigenvalue-minimisations  : 51360
 total energy-change (2. order) :-0.3890272E+00  (-0.2112380E+01)
 number of electron     156.0000109 magnetization      10.5457537
 augmentation part       84.5633586 magnetization       8.5441657

 Broyden mixing:
  rms(total) = 0.23276E+01    rms(broyden)= 0.23271E+01
  rms(prec ) = 0.31836E+01
  weight for this iteration     100.00

 eigenvalues of (default mixing * dielectric matrix)
  average eigenvalue GAMMA=   0.4127
  1.2278  0.4607  0.4607  0.1381  0.0912  0.0976

 Free energy of the ion-electron system (eV)
  ---------------------------------------------------
  alpha Z        PSCENC =      1149.93330786
  Ewald energy   TEWEN  =    -18409.02465270
  -Hartree energ DENC   =     -5503.64584295
  -exchange      EXHF   =         0.00000000
  -V(xc)+E(xc)   XCENC  =       641.93313886
  PAW double counting   =     21955.01242040   -22704.12257035
  entropy T*S    EENTRO =         0.00000000
  eigenvalues    EBANDS =     -1527.62166810
  atomic energy  EATOM  =     24304.10294433
  Solvation  Ediel_sol  =         0.00000000
  ---------------------------------------------------
  free energy    TOTEN  =       -93.43292266 eV

  energy without entropy =      -93.43292266  energy(sigma->0) =      -93.43292266


--------------------------------------------------------------------------------------------------------




--------------------------------------- Iteration      1(  12)  ---------------------------------------


    POTLOK:  cpu time      0.0441: real time      0.0451
    SETDIJ:  cpu time      0.0088: real time      0.0089
     EDDAV:  cpu time      6.7286: real time      6.7894
 BZINTS: Fermi energy:   10.450694;  156.000000 electrons
         Band energy:-0.152423E+04;  BLOECHL correction:   -0.030403
       DOS:  cpu time      0.1362: real time      0.1374
    CHARGE:  cpu time      0.1474: real time      0.1484
    MIXING:  cpu time      0.0020: real time      0.0021
    --------------------------------------------
      LOOP:  cpu time      7.0671: real time      7.1312

 eigenvalue-minimisations  : 50624
 total energy-change (2. order) : 0.1125767E+01  (-0.1651033E+01)
 number of electron     156.0000069 magnetization      10.6742233
 augmentation part       84.5944195 magnetization       7.8258848

 Broyden mixing:
  rms(total) = 0.95675E+00    rms(broyden)= 0.95641E+00
  rms(prec ) = 0.11914E+01
  weight for this iteration     100.00

 eigenvalues of (default mixing * dielectric matrix)
  average eigenvalue GAMMA=   0.4412
  1.2223  0.6018  0.6018  0.3544  0.1306  0.0901  0.0874

 Free energy of the ion-electron system (eV)
  ---------------------------------------------------
  alpha Z        PSCENC =      1149.93330786
  Ewald energy   TEWEN  =    -18409.02465270
  -Hartree energ DENC   =     -5503.63960818
  -exchange      EXHF   =         0.00000000
  -V(xc)+E(xc)   XCENC  =       642.17599029
  PAW double counting   =     22012.76981391   -22764.39382378
  entropy T*S    EENTRO =         0.00000000
  eigenvalues    EBANDS =     -1524.23112726
  atomic energy  EATOM  =     24304.10294433
  Solvation  Ediel_sol  =         0.00000000
  ---------------------------------------------------
  free energy    TOTEN  =       -92.30715554 eV

  energy without entropy =      -92.30715554  energy(sigma->0) =      -92.30715554


--------------------------------------------------------------------------------------------------------




--------------------------------------- Iteration      1(  13)  ---------------------------------------


    POTLOK:  cpu time      0.0342: real time      0.0447
    SETDIJ:  cpu time      0.0083: real time      0.0083
     EDDAV:  cpu time      7.0169: real time      7.0637
 BZINTS: Fermi energy:   10.464529;  156.000000 electrons
         Band energy:-0.152405E+04;  BLOECHL correction:   -0.032221
       DOS:  cpu time      0.1366: real time      0.1377
    CHARGE:  cpu time      0.1477: real time      0.1485
    MIXING:  cpu time      0.0019: real time      0.0020
    --------------------------------------------
      LOOP:  cpu time      7.3455: real time      7.4050

 eigenvalue-minimisations  : 51200
 total energy-change (2. order) :-0.1642112E+00  (-0.5289906E-01)
 number of electron     156.0000054 magnetization      10.8139708
 augmentation part       84.6017040 magnetization       7.9423606

 Broyden mixing:
  rms(total) = 0.91649E+00    rms(broyden)= 0.91643E+00
  rms(prec ) = 0.11201E+01
  weight for this iteration     100.00

 eigenvalues of (default mixing * dielectric matrix)
  average eigenvalue GAMMA=   0.4641
  1.2836  0.6933  0.6933  0.3666  0.3666  0.1300  0.0897  0.0897

 Free energy of the ion-electron system (eV)
  ---------------------------------------------------
  alpha Z        PSCENC =      1149.93330786
  Ewald energy   TEWEN  =    -18409.02465270
  -Hartree energ DENC   =     -5503.63638530
  -exchange      EXHF   =         0.00000000
  -V(xc)+E(xc)   XCENC  =       642.46420798
  PAW double counting   =     22031.50088674   -22783.76664413
  entropy T*S    EENTRO =         0.00000000
  eigenvalues    EBANDS =     -1524.04503147
  atomic energy  EATOM  =     24304.10294433
  Solvation  Ediel_sol  =         0.00000000
  ---------------------------------------------------
  free energy    TOTEN  =       -92.47136670 eV

  energy without entropy =      -92.47136670  energy(sigma->0) =      -92.47136670


--------------------------------------------------------------------------------------------------------




--------------------------------------- Iteration      1(  14)  ---------------------------------------


[...]
    113      25.6412      0.00000
    114      25.9638      0.00000
    115      26.0438      0.00000
    116      26.3788      0.00000
    117      26.5270      0.00000
    118      27.1702      0.00000
    119      27.4897      0.00000
    120      28.2866      0.00000
    121      28.3391      0.00000
    122      28.3486      0.00000
    123      28.8591      0.00000
    124      29.8121      0.00000
    125      30.0142      0.00000
    126      30.2780      0.00000
    127      30.4194      0.00000
    128      31.0062      0.00000


--------------------------------------------------------------------------------------------------------


 soft charge-density along one line, spin component           1
         0         1         2         3         4         5         6         7         8         9
 total charge-density along one line
 
 soft charge-density along one line, spin component           2
         0         1         2         3         4         5         6         7         8         9
 total charge-density along one line
 
 pseudopotential strength for first ion, spin component:           1
-42.692   0.000  -0.000   6.658  -0.000   0.000  -0.000   0.001
  0.000 -42.749   0.000  -0.000   6.682  -0.000  -0.000   0.000
 -0.000   0.000 -42.655   0.000  -0.000   6.643   0.000  -0.000
  6.658  -0.000   0.000   5.890  -0.000   0.000   0.000  -0.000
 -0.000   6.682  -0.000  -0.000   5.882  -0.000   0.000  -0.000
  0.000  -0.000   6.643   0.000  -0.000   5.891  -0.000   0.000
 -0.000  -0.000   0.000   0.000   0.000  -0.000  -0.271   0.000
  0.001   0.000  -0.000  -0.000  -0.000   0.000   0.000  -0.313
 -0.000   0.001   0.000   0.000  -0.000  -0.000   0.000   0.000
 -0.000   0.000   0.001   0.000   0.000  -0.000   0.000  -0.000
 -0.000   0.000  -0.000   0.000  -0.000   0.000  -0.000  -0.000
 -0.000  -0.000   0.000  -0.000   0.000  -0.000  -0.814   0.000
  0.001   0.000  -0.000  -0.000  -0.000   0.000   0.000  -0.855
 -0.000   0.001   0.000   0.000  -0.000  -0.000   0.000   0.000
 -0.000  -0.000   0.001   0.000   0.000  -0.000   0.000  -0.000
 -0.000   0.000  -0.000   0.000  -0.000   0.000  -0.000  -0.000
 -0.000  -0.000   0.000  -0.000  -0.000   0.000   0.000  -0.000
 -0.000  -0.000   0.000  -0.000  -0.000   0.000   0.000  -0.000
 pseudopotential strength for first ion, spin component:           2
-44.558   0.000  -0.000   7.445  -0.000   0.000  -0.000   0.001
  0.000 -44.655   0.000  -0.000   7.483  -0.000  -0.000   0.000
 -0.000   0.000 -44.453   0.000  -0.000   7.402   0.000  -0.000
  7.445  -0.000   0.000   5.668  -0.000   0.000   0.000  -0.000
 -0.000   7.483  -0.000  -0.000   5.660  -0.000   0.000  -0.000
  0.000  -0.000   7.402   0.000  -0.000   5.677  -0.000   0.000
 -0.000  -0.000   0.000   0.000   0.000  -0.000  -1.650   0.000
  0.001   0.000  -0.000  -0.000  -0.000   0.000   0.000  -1.815
 -0.000   0.001   0.000   0.000  -0.000  -0.000   0.000   0.000
 -0.000  -0.000   0.001   0.000   0.000  -0.000   0.000  -0.000
 -0.000   0.000  -0.000   0.000  -0.000   0.000  -0.000  -0.000
 -0.000  -0.000   0.000   0.000   0.000  -0.000  -2.170   0.000
  0.001   0.000  -0.000  -0.000  -0.000   0.000   0.000  -2.332
 -0.000   0.001   0.000   0.000  -0.000  -0.000   0.000   0.000
 -0.000  -0.000   0.001   0.000   0.000  -0.000   0.000  -0.000
 -0.000   0.000  -0.000   0.000  -0.000   0.000  -0.000  -0.000
 -0.000  -0.000   0.000  -0.000  -0.000   0.000   0.000  -0.000
 -0.000  -0.000   0.000  -0.000  -0.000   0.000   0.000  -0.000
 total augmentation occupancy for first ion, spin component:           1
  1.992   0.000   0.000  -0.027   0.000   0.000  -0.000  -0.000   0.000   0.000   0.000   0.000  -0.000   0.000  -0.000  -0.000
  0.000   1.991   0.000   0.000  -0.028  -0.000  -0.000   0.000  -0.000   0.000  -0.000   0.000   0.000   0.000   0.000   0.000
  0.000   0.000   1.992   0.000  -0.000  -0.028   0.000   0.000   0.000  -0.000   0.000   0.000   0.000  -0.000  -0.000  -0.000
 -0.027   0.000   0.000   0.209  -0.000   0.000   0.000  -0.000   0.000   0.000   0.000   0.000   0.000  -0.000  -0.000   0.000
  0.000  -0.028  -0.000  -0.000   0.204  -0.000   0.000   0.000   0.000   0.000  -0.000  -0.000  -0.000   0.000   0.000   0.000
  0.000  -0.000  -0.028   0.000  -0.000   0.170   0.000   0.000   0.000  -0.000   0.000   0.000   0.000   0.000  -0.000   0.000
 -0.000  -0.000   0.000   0.000   0.000   0.000   2.643   0.000  -0.000  -0.000   0.000  -1.446   0.000   0.000   0.000   0.000
 -0.000   0.000   0.000  -0.000   0.000   0.000   0.000   2.627   0.000   0.000  -0.000   0.000  -1.864   0.000   0.000   0.000
  0.000  -0.000   0.000   0.000   0.000   0.000  -0.000   0.000   3.216   0.000   0.314   0.000   0.000  -1.833   0.000  -0.267
  0.000   0.000  -0.000   0.000   0.000  -0.000  -0.000   0.000   0.000   2.382   0.000   0.000   0.000   0.000  -1.350   0.000
  0.000  -0.000   0.000   0.000  -0.000   0.000   0.000  -0.000   0.314   0.000   2.879   0.000   0.000  -0.260  -0.000  -1.677
  0.000   0.000   0.000   0.000  -0.000   0.000  -1.446   0.000   0.000   0.000   0.000   1.709   0.000   0.000  -0.000  -0.000
  0.000   0.000   0.000   0.000  -0.000   0.000   0.000  -1.864   0.000   0.000   0.000   0.000   2.375   0.000   0.000   0.000
  0.000   0.000  -0.000   0.000   0.000   0.000   0.000   0.000  -1.833   0.000  -0.260   0.000   0.000   1.821   0.000   0.169
 -0.000   0.000   0.000  -0.000   0.000  -0.000   0.000   0.000  -0.000  -1.350  -0.000  -0.000   0.000   0.000   1.571   0.000
 -0.000   0.000  -0.000   0.000   0.000   0.000   0.000   0.000  -0.267   0.000  -1.677  -0.000   0.000   0.169   0.000   1.765
  0.000   0.000  -0.000   0.000   0.000   0.000   0.000   0.000  -0.147   0.000   0.262   0.000  -0.000   0.093   0.000  -0.239
  0.000  -0.000   0.000   0.000   0.000   0.000   0.000   0.000   0.014   0.000  -0.012   0.000   0.000  -0.006   0.000   0.010
 total augmentation occupancy for first ion, spin component:           2
  0.002   0.000   0.000   0.007   0.000   0.000   0.000  -0.000   0.000   0.000   0.000   0.000   0.000   0.000   0.000   0.000
  0.000   0.002  -0.000  -0.000   0.006   0.000   0.000   0.000  -0.000   0.000  -0.000   0.000   0.000   0.000   0.000  -0.000
  0.000  -0.000   0.002   0.000   0.000   0.007   0.000   0.000  -0.000   0.000   0.000   0.000   0.000   0.000   0.000   0.000
  0.007  -0.000   0.000  -0.011   0.000   0.000   0.000   0.000   0.000  -0.000  -0.000   0.000   0.000   0.000   0.000   0.000
  0.000   0.006   0.000   0.000  -0.012   0.000   0.000   0.000  -0.000   0.000   0.000   0.000  -0.000   0.000   0.000  -0.000
  0.000   0.000   0.007   0.000   0.000  -0.011   0.000   0.000   0.000  -0.000   0.000   0.000   0.000  -0.000  -0.000   0.000
  0.000   0.000   0.000   0.000   0.000   0.000  -1.694   0.000  -0.000   0.000   0.000   0.776   0.000   0.000   0.000   0.000
 -0.000   0.000   0.000   0.000   0.000   0.000   0.000  -1.500   0.000   0.000   0.000  -0.000   0.455  -0.000   0.000   0.000
  0.000  -0.000  -0.000   0.000  -0.000   0.000  -0.000   0.000  -2.147  -0.000  -0.263   0.000   0.000   0.952   0.000   0.106
  0.000   0.000  -0.000  -0.000   0.000  -0.000   0.000   0.000  -0.000  -1.599   0.000   0.000  -0.000   0.000   0.404   0.000
  0.000  -0.000   0.000  -0.000   0.000   0.000   0.000   0.000  -0.263   0.000  -2.012  -0.000   0.000   0.114   0.000   0.720
  0.000   0.000   0.000   0.000   0.000   0.000   0.776  -0.000   0.000   0.000  -0.000  -0.204   0.000  -0.000   0.000   0.000
  0.000   0.000   0.000  -0.000  -0.000   0.000   0.000   0.455  -0.000  -0.000   0.000   0.000   0.129  -0.000   0.000   0.000
  0.000   0.000   0.000   0.000   0.000  -0.000   0.000  -0.000   0.952   0.000   0.114  -0.000  -0.000  -0.312   0.000  -0.057
  0.000   0.000   0.000  -0.000   0.000  -0.000   0.000   0.000   0.000   0.404   0.000   0.000   0.000  -0.000   0.175   0.000
  0.000  -0.000   0.000   0.000  -0.000   0.000   0.000   0.000   0.106   0.000   0.720   0.000   0.000  -0.057   0.000  -0.055
  0.000  -0.000   0.000   0.000  -0.000   0.000   0.000   0.000  -0.017   0.000  -0.058   0.000   0.000  -0.013   0.000   0.022
 -0.000   0.000   0.000   0.000   0.000  -0.000  -0.000   0.000  -0.008   0.000   0.002   0.000   0.000   0.002   0.000   0.000


------------------------ aborting loop because EDIFF is reached ----------------------------------------





 total charge

# of ion       s       p       d       tot
------------------------------------------
    1        0.365   6.364   6.057  12.786
    2        0.361   6.353   6.069  12.783
    3        0.361   6.353   6.069  12.783
    4        0.367   6.359   6.054  12.781
    5        0.367   6.359   6.054  12.781
    6        0.360   6.357   6.050  12.767
    7        0.365   6.364   6.057  12.786
    8        0.361   6.353   6.069  12.783
    9        0.361   6.353   6.069  12.783
   10        0.797   0.759   8.044   9.599
   11        0.797   0.759   8.044   9.599
   12        0.786   0.767   8.052   9.605
--------------------------------------------------
tot          5.647  59.501  78.689 143.837



 magnetization (x)

# of ion       s       p       d       tot
------------------------------------------
    1       -0.018  -0.021  -2.186  -2.225
    2        0.001  -0.013   2.527   2.514
    3        0.001  -0.013   2.527   2.514
    4        0.013   0.023   2.374   2.410
    5        0.013   0.023   2.374   2.410
    6       -0.002  -0.013   2.640   2.626
    7       -0.018  -0.021  -2.186  -2.225
    8        0.001  -0.013   2.527   2.514
    9        0.001  -0.013   2.527   2.514
   10       -0.012  -0.021   0.084   0.052
   11       -0.012  -0.021   0.084   0.052
   12       -0.040  -0.108   0.429   0.282
--------------------------------------------------
tot         -0.073  -0.211  13.723  13.438
 
    CHARGE:  cpu time      0.1487: real time      0.1498
    FORLOC:  cpu time      0.0019: real time      0.0021
    FORNL :  cpu time      0.6921: real time      0.6962
    STRESS:  cpu time      4.2427: real time      4.2781
    FORCOR:  cpu time      0.0199: real time      0.2739
    FORHAR:  cpu time      0.0026: real time      0.0027
    MIXING:  cpu time      0.0033: real time      0.0034
    OFIELD:  cpu time      0.0008: real time      0.0008

  FORCE on cell =-STRESS in cart. coord.  units (eV):
  Direction    XX          YY          ZZ          XY          YZ          ZX
  --------------------------------------------------------------------------------------
  Alpha Z  1149.93331  1149.93331  1149.93331
  Ewald   -6132.39790 -6132.39509 -6144.25399     0.00000     0.00000    -0.00000
  Hartree  1834.82421  1834.84023  1821.53226    -0.00000    -0.00000    -0.00000
  E(xc)    -944.96158  -944.96174  -944.89680     0.00000     0.00000     0.00000
  Local    1164.36055  1164.31090  1196.03897    -0.00000     0.00000     0.00000
  n-local  -204.68650  -217.73733  -211.47248    14.88084     0.18670     0.23727
  augment  1438.49675  1438.51542  1434.57492     0.00000    -0.00000    -0.00000
  Kinetic  1717.03066  1697.73627  1704.80260     3.57722    -0.07725    -0.49106
  Fock        0.00000     0.00000     0.00000     0.00000     0.00000     0.00000
  -------------------------------------------------------------------------------------
  Total       6.42083     6.42095     6.25878     0.00000     0.00000     0.00000
  in kB      69.50884    69.51017    67.75455     0.00000     0.00000     0.00000
  external pressure =       68.92 kB  Pullay stress =        0.00 kB


 VOLUME and BASIS-vectors are now :
 -----------------------------------------------------------------------------
  energy-cutoff  :      520.00
  volume of cell :      148.00
      direct lattice vectors                 reciprocal lattice vectors
     3.660081832  0.000000000  0.000000000     0.273217935  0.000000000  0.000000000
     0.000000000  3.660116676  0.000000000     0.000000000  0.273215334  0.000000000
     0.000000000  0.000000000 11.047804745     0.000000000  0.000000000  0.090515720

  length of vectors
     3.660081832  3.660116676 11.047804745     0.273217935  0.273215334  0.090515720


 FORCES acting on ions
    electron-ion (+dipol)            ewald-force                    non-local-force                 convergence-correction
 -----------------------------------------------------------------------------------------------
   -.234E-13 0.945E-12 -.100E+00   -.188E-13 0.218E-13 0.168E+00   -.237E-20 -.701E-20 0.216E-18   -.872E-13 -.178E-13 -.449E-02
   -.207E-13 0.110E-11 -.132E+02   -.189E-14 0.646E-15 0.135E+02   0.150E-18 0.349E-18 -.450E+00   -.841E-13 -.399E-13 0.214E-02
   -.339E-13 0.128E-11 0.132E+02   -.129E-13 0.553E-13 -.137E+02   -.422E-18 -.918E-18 0.450E+00   -.974E-13 -.199E-13 0.233E-02
   0.107E-11 0.212E-11 -.563E+02   0.362E-13 0.214E-13 0.542E+02   0.106E-18 0.694E-19 0.199E+01   -.168E-12 -.269E-14 -.161E-02
   0.106E-11 -.428E-11 0.562E+02   -.834E-13 0.915E-14 -.543E+02   -.474E-19 0.565E-19 -.199E+01   -.190E-12 -.125E-13 -.246E-02
   0.106E-11 -.338E-11 -.517E-01   0.442E-13 -.293E-15 0.373E-02   0.521E-21 0.744E-22 0.325E-18   -.219E-12 -.834E-14 0.434E-02
   0.104E-11 -.680E-13 -.999E-01   -.827E-15 -.398E-14 0.169E+00   -.425E-20 -.846E-21 -.180E-17   -.193E-12 0.277E-13 -.449E-02
   0.106E-11 -.992E-13 -.132E+02   -.256E-13 -.237E-13 0.136E+02   -.103E-17 0.449E-18 -.450E+00   -.190E-12 0.452E-13 0.213E-02
   0.106E-11 -.182E-12 0.131E+02   0.115E-13 -.707E-13 -.137E+02   0.303E-18 0.457E-18 0.450E+00   -.181E-12 0.194E-13 0.233E-02
   -.309E-13 -.189E-12 0.685E+01   -.500E-13 -.254E-13 -.680E+01   0.668E-18 0.335E-18 -.168E-01   0.121E-13 0.113E-13 -.125E-02
   -.260E-13 -.253E-12 -.688E+01   0.692E-13 0.135E-13 0.686E+01   -.173E-18 -.337E-19 0.168E-01   0.212E-13 0.520E-14 -.192E-02
   -.252E-13 -.425E-13 -.139E-01   -.110E-13 0.123E-13 -.364E-01   0.450E-20 0.194E-20 -.255E-19   0.334E-13 0.140E-13 0.302E-02
 -----------------------------------------------------------------------------------------------
   0.619E-11 -.305E-11 -.507E+00   -.435E-13 0.993E-14 0.496E-12   -.446E-18 0.758E-18 -.155E-14   -.134E-11 0.216E-13 0.704E-04
 
 
 POSITION                                       TOTAL-FORCE (eV/Angst)
 -----------------------------------------------------------------------------------
      0.00000      1.83006      1.84123         0.000000      0.000000     -0.000000
      0.00000      1.83006      5.51666         0.000000     -0.000000      0.002252
      0.00000      1.83006      9.21381         0.000000     -0.000000     -0.002252
      1.83004      1.83006     10.99199         0.000000     -0.000000     -0.005917
      1.83004      1.83006      3.73857        -0.000000      0.000000      0.005917
      1.83004      1.83006      7.36518        -0.000000     -0.000000     -0.000000
      1.83004      0.00000      1.84123         0.000000     -0.000000     -0.000000
      1.83004      0.00000      5.51656         0.000000      0.000000      0.002252
      1.83004      0.00000      9.21390         0.000000     -0.000000     -0.002252
      0.00000      0.00000      0.04709         0.000000      0.000000      0.019995
      0.00000      0.00000      3.63535         0.000000      0.000000     -0.019995
      0.00000      0.00000      7.36525         0.000000      0.000000      0.000000
 -----------------------------------------------------------------------------------
    total drift:                                0.000000     -0.000000     -0.506648


--------------------------------------------------------------------------------------------------------



  FREE ENERGIE OF THE ION-ELECTRON SYSTEM (eV)
  ---------------------------------------------------
  free  energy   TOTEN  =       -93.17199831 eV

  energy  without entropy=      -93.17199831  energy(sigma->0) =      -93.17199831
 


--------------------------------------------------------------------------------------------------------


    POTLOK:  cpu time      0.0371: real time      0.0373


--------------------------------------------------------------------------------------------------------


     LOOP+:  cpu time    214.2179: real time    216.2798
 -----------------------------------------------------------------------------
|                                                                             |
|           W    W    AA    RRRRR   N    N  II  N    N   GGGG   !!!           |
|           W    W   A  A   R    R  NN   N  II  NN   N  G    G  !!!           |
|           W    W  A    A  R    R  N N  N  II  N N  N  G       !!!           |
|           W WW W  AAAAAA  RRRRR   N  N N  II  N  N N  G  GGG   !            |
|           WW  WW  A    A  R   R   N   NN  II  N   NN  G    G                |
|           W    W  A    A  R    R  N    N  II  N    N   GGGG   !!!           |
|                                                                             |
|     Tetrahedron method does not include variations of the Fermi             |
|     occupations, so forces and stress will be inaccurate. We suggest        |
|     using a different smearing scheme ISMEAR = 1 or 2 for metals in         |
|     relaxations.                                                            |
|                                                                             |
 -----------------------------------------------------------------------------

    4ORBIT:  cpu time      0.0000: real time      0.0000



 total charge

# of ion       s       p       d       tot
------------------------------------------
    1        0.365   6.364   6.057  12.786
    2        0.361   6.353   6.069  12.783
    3        0.361   6.353   6.069  12.783
    4        0.367   6.359   6.054  12.781
    5        0.367   6.359   6.054  12.781
    6        0.360   6.357   6.050  12.767
    7        0.365   6.364   6.057  12.786
    8        0.361   6.353   6.069  12.783
    9        0.361   6.353   6.069  12.783
   10        0.797   0.759   8.044   9.599
   11        0.797   0.759   8.044   9.599
   12        0.786   0.767   8.052   9.605
--------------------------------------------------
tot          5.647  59.501  78.689 143.837



 magnetization (x)

# of ion       s       p       d       tot
------------------------------------------
    1       -0.018  -0.021  -2.186  -2.225
    2        0.001  -0.013   2.527   2.514
    3        0.001  -0.013   2.527   2.514
    4        0.013   0.023   2.374   2.410
    5        0.013   0.023   2.374   2.410
    6       -0.002  -0.013   2.640   2.626
    7       -0.018  -0.021  -2.186  -2.225
    8        0.001  -0.013   2.527   2.514
    9        0.001  -0.013   2.527   2.514
   10       -0.012  -0.021   0.084   0.052
   11       -0.012  -0.021   0.084   0.052
   12       -0.040  -0.108   0.429   0.282
--------------------------------------------------
tot         -0.073  -0.211  13.723  13.438
 
 BZINTS: Fermi energy:   10.544964;  156.000000 electrons
         Band energy:-0.152976E+04;  BLOECHL correction:   -0.033542

 total amount of memory used by VASP MPI-rank0   182150. kBytes
=======================================================================

   base      :      30000. kBytes
   nonl-proj :      98316. kBytes
   fftplans  :        888. kBytes
   grid      :       6813. kBytes
   one-center:        373. kBytes
   wavefun   :      45760. kBytes
 
  
  
 General timing and accounting informations for this job:
 ========================================================
  
                  Total CPU time used (sec):      233.149
                            User time (sec):      224.715
                          System time (sec):        8.434
                         Elapsed time (sec):      241.096
  
                   Maximum memory used (kb):      888548.
                   Average memory used (kb):          N/A
  
                          Minor page faults:       184423
                          Major page faults:          143
                 Voluntary context switches:         8259
