  16  16   1   0
  0.1950000E+02  0.7080982E-09  0.6778851E-09  0.6997421E-09  0.5000000E-15
  1.000000000000000E-004
  CAR 
 unknown system                          
      8.97614481    -52.70694244  301      3.52085355      1.00000000
    -52.707  0.0000E+00  0.0000E+00  0.0000E+00  0.0000E+00
    -52.501  0.0000E+00  0.0000E+00  0.0000E+00  0.0000E+00
    -52.296  0.0000E+00  0.0000E+00  0.0000E+00  0.0000E+00
    -52.090  0.0000E+00  0.0000E+00  0.0000E+00  0.0000E+00
    -51.885  0.0000E+00  0.0000E+00  0.0000E+00  0.0000E+00
    -51.679  0.0000E+00  0.0000E+00  0.0000E+00  0.0000E+00
    -51.473  0.0000E+00  0.0000E+00  0.0000E+00  0.0000E+00
    -51.268  0.0000E+00  0.0000E+00  0.0000E+00  0.0000E+00
    -51.062  0.0000E+00  0.0000E+00  0.0000E+00  0.0000E+00
    -50.856  0.0000E+00  0.0000E+00  0.0000E+00  0.0000E+00
    -50.651  0.0000E+00  0.0000E+00  0.0000E+00  0.0000E+00
    -50.445  0.0000E+00  0.0000E+00  0.0000E+00  0.0000E+00
    -50.240  0.0000E+00  0.0000E+00  0.0000E+00  0.0000E+00
    -50.034  0.2456E-05  0.2456E-05  0.5049E-06  0.5049E-06
    -49.828  0.1572E+00  0.1572E+00  0.3233E-01  0.3233E-01
    -49.623  0.4097E-01  0.4097E-01  0.4075E-01  0.4075E-01
    -49.417  0.3302E+00  0.3302E+00  0.1086E+00  0.1086E+00
    -49.212  0.5756E+00  0.5756E+00  0.2270E+00  0.2270E+00
    -49.006  0.7504E-01  0.7504E-01  0.2424E+00  0.2424E+00
    -48.800  0.5641E-07  0.5641E-07  0.2424E+00  0.2424E+00
    -48.595  0.0000E+00  0.0000E+00  0.2424E+00  0.2424E+00
    -48.389  0.0000E+00  0.0000E+00  0.2424E+00  0.2424E+00
    -48.184  0.0000E+00  0.0000E+00  0.2424E+00  0.2424E+00
    -47.978  0.0000E+00  0.0000E+00  0.2424E+00  0.2424E+00
    -47.772  0.0000E+00  0.0000E+00  0.2424E+00  0.2424E+00
    -47.567  0.0000E+00  0.0000E+00  0.2424E+00  0.2424E+00
    -47.361  0.0000E+00  0.0000E+00  0.2424E+00  0.2424E+00
    -47.155  0.0000E+00  0.0000E+00  0.2424E+00  0.2424E+00
    -46.950  0.0000E+00  0.0000E+00  0.2424E+00  0.2424E+00
    -46.744  0.0000E+00  0.0000E+00  0.2424E+00  0.2424E+00
    -46.539  0.0000E+00  0.0000E+00  0.2424E+00  0.2424E+00
    -46.333  0.0000E+00  0.0000E+00  0.2424E+00  0.2424E+00
    -46.127  0.0000E+00  0.0000E+00  0.2424E+00  0.2424E+00
    -45.922  0.0000E+00  0.0000E+00  0.2424E+00  0.2424E+00
    -45.716  0.0000E+00  0.0000E+00  0.2424E+00  0.2424E+00
    -45.511  0.0000E+00  0.0000E+00  0.2424E+00  0.2424E+00
    -45.305  0.0000E+00  0.0000E+00  0.2424E+00  0.2424E+00
    -45.099  0.0000E+00  0.0000E+00  0.2424E+00  0.2424E+00
    -44.894  0.0000E+00  0.0000E+00  0.2424E+00  0.2424E+00
    -44.688  0.0000E+00  0.0000E+00  0.2424E+00  0.2424E+00
    -44.483  0.0000E+00  0.0000E+00  0.2424E+00  0.2424E+00
    -44.277  0.0000E+00  0.0000E+00  0.2424E+00  0.2424E+00
    -44.071  0.0000E+00  0.0000E+00  0.2424E+00  0.2424E+00
    -43.866  0.0000E+00  0.0000E+00  0.2424E+00  0.2424E+00
    -43.660  0.0000E+00  0.0000E+00  0.2424E+00  0.2424E+00
    -43.454  0.0000E+00  0.0000E+00  0.2424E+00  0.2424E+00
    -43.249  0.0000E+00  0.0000E+00  0.2424E+00  0.2424E+00
    -43.043  0.0000E+00  0.0000E+00  0.2424E+00  0.2424E+00
    -42.838  0.0000E+00  0.0000E+00  0.2424E+00  0.2424E+00
    -42.632  0.0000E+00  0.0000E+00  0.2424E+00  0.2424E+00
    -42.426  0.0000E+00  0.0000E+00  0.2424E+00  0.2424E+00
    -42.221  0.0000E+00  0.0000E+00  0.2424E+00  0.2424E+00
    -42.015  0.0000E+00  0.0000E+00  0.2424E+00  0.2424E+00
    -41.810  0.0000E+00  0.0000E+00  0.2424E+00  0.2424E+00
    -41.604  0.0000E+00  0.0000E+00  0.2424E+00  0.2424E+00
    -41.398  0.0000E+00  0.0000E+00  0.2424E+00  0.2424E+00
    -41.193  0.0000E+00  0.0000E+00  0.2424E+00  0.2424E+00
    -40.987  0.0000E+00  0.0000E+00  0.2424E+00  0.2424E+00
    -40.782  0.0000E+00  0.0000E+00  0.2424E+00  0.2424E+00
    -40.576  0.0000E+00  0.0000E+00  0.2424E+00  0.2424E+00
    -40.370  0.0000E+00  0.0000E+00  0.2424E+00  0.2424E+00
    -40.165  0.0000E+00  0.0000E+00  0.2424E+00  0.2424E+00
    -39.959  0.0000E+00  0.0000E+00  0.2424E+00  0.2424E+00
    -39.753  0.0000E+00  0.0000E+00  0.2424E+00  0.2424E+00
    -39.548  0.0000E+00  0.0000E+00  0.2424E+00  0.2424E+00
    -39.342  0.0000E+00  0.0000E+00  0.2424E+00  0.2424E+00
    -39.137  0.0000E+00  0.0000E+00  0.2424E+00  0.2424E+00
    -38.931  0.0000E+00  0.0000E+00  0.2424E+00  0.2424E+00
    -38.725  0.0000E+00  0.0000E+00  0.2424E+00  0.2424E+00
    -38.520  0.0000E+00  0.0000E+00  0.2424E+00  0.2424E+00
    -38.314  0.0000E+00  0.0000E+00  0.2424E+00  0.2424E+00
    -38.109  0.0000E+00  0.0000E+00  0.2424E+00  0.2424E+00
    -37.903  0.0000E+00  0.0000E+00  0.2424E+00  0.2424E+00
    -37.697  0.0000E+00  0.0000E+00  0.2424E+00  0.2424E+00
    -37.492  0.0000E+00  0.0000E+00  0.2424E+00  0.2424E+00
    -37.286  0.0000E+00  0.0000E+00  0.2424E+00  0.2424E+00
    -37.081  0.0000E+00  0.0000E+00  0.2424E+00  0.2424E+00
    -36.875  0.0000E+00  0.0000E+00  0.2424E+00  0.2424E+00
    -36.669  0.0000E+00  0.0000E+00  0.2424E+00  0.2424E+00
    -36.464  0.0000E+00  0.0000E+00  0.2424E+00  0.2424E+00
    -36.258  0.0000E+00  0.0000E+00  0.2424E+00  0.2424E+00
    -36.053  0.0000E+00  0.0000E+00  0.2424E+00  0.2424E+00
    -35.847  0.0000E+00  0.0000E+00  0.2424E+00  0.2424E+00
    -35.641  0.0000E+00  0.0000E+00  0.2424E+00  0.2424E+00
    -35.436  0.0000E+00  0.0000E+00  0.2424E+00  0.2424E+00
    -35.230  0.0000E+00  0.0000E+00  0.2424E+00  0.2424E+00
    -35.024  0.0000E+00  0.0000E+00  0.2424E+00  0.2424E+00
    -34.819  0.0000E+00  0.0000E+00  0.2424E+00  0.2424E+00
    -34.613  0.0000E+00  0.0000E+00  0.2424E+00  0.2424E+00
    -34.408  0.0000E+00  0.0000E+00  0.2424E+00  0.2424E+00
    -34.202  0.0000E+00  0.0000E+00  0.2424E+00  0.2424E+00
    -33.996  0.0000E+00  0.0000E+00  0.2424E+00  0.2424E+00
    -33.791  0.0000E+00  0.0000E+00  0.2424E+00  0.2424E+00
    -33.585  0.0000E+00  0.0000E+00  0.2424E+00  0.2424E+00
    -33.380  0.0000E+00  0.0000E+00  0.2424E+00  0.2424E+00
    -33.174  0.0000E+00  0.0000E+00  0.2424E+00  0.2424E+00
    -32.968  0.0000E+00  0.0000E+00  0.2424E+00  0.2424E+00
    -32.763  0.0000E+00  0.0000E+00  0.2424E+00  0.2424E+00
    -32.557  0.0000E+00  0.0000E+00  0.2424E+00  0.2424E+00
    -32.352  0.0000E+00  0.0000E+00  0.2424E+00  0.2424E+00
    -32.146  0.0000E+00  0.0000E+00  0.2424E+00  0.2424E+00
    -31.940  0.0000E+00  0.0000E+00  0.2424E+00  0.2424E+00
    -31.735  0.0000E+00  0.0000E+00  0.2424E+00  0.2424E+00
    -31.529  0.0000E+00  0.0000E+00  0.2424E+00  0.2424E+00
    -31.323  0.0000E+00  0.0000E+00  0.2424E+00  0.2424E+00
    -31.118  0.0000E+00  0.0000E+00  0.2424E+00  0.2424E+00
    -30.912  0.0000E+00  0.0000E+00  0.2424E+00  0.2424E+00
    -30.707  0.0000E+00  0.0000E+00  0.2424E+00  0.2424E+00
    -30.501  0.0000E+00  0.0000E+00  0.2424E+00  0.2424E+00
    -30.295  0.0000E+00  0.0000E+00  0.2424E+00  0.2424E+00
    -30.090  0.0000E+00  0.0000E+00  0.2424E+00  0.2424E+00
    -29.884  0.0000E+00  0.0000E+00  0.2424E+00  0.2424E+00
    -29.679  0.0000E+00  0.0000E+00  0.2424E+00  0.2424E+00
    -29.473  0.0000E+00  0.0000E+00  0.2424E+00  0.2424E+00
    -29.267  0.0000E+00  0.0000E+00  0.2424E+00  0.2424E+00
    -29.062  0.0000E+00  0.0000E+00  0.2424E+00  0.2424E+00
    -28.856  0.0000E+00  0.0000E+00  0.2424E+00  0.2424E+00
    -28.651  0.0000E+00  0.0000E+00  0.2424E+00  0.2424E+00
    -28.445  0.0000E+00  0.0000E+00  0.2424E+00  0.2424E+00
    -28.239  0.0000E+00  0.0000E+00  0.2424E+00  0.2424E+00
    -28.034  0.0000E+00  0.0000E+00  0.2424E+00  0.2424E+00
    -27.828  0.0000E+00  0.0000E+00  0.2424E+00  0.2424E+00
    -27.622  0.0000E+00  0.0000E+00  0.2424E+00  0.2424E+00
    -27.417  0.0000E+00  0.0000E+00  0.2424E+00  0.2424E+00
    -27.211  0.0000E+00  0.0000E+00  0.2424E+00  0.2424E+00
    -27.006  0.0000E+00  0.0000E+00  0.2424E+00  0.2424E+00
    -26.800  0.0000E+00  0.0000E+00  0.2424E+00  0.2424E+00
    -26.594  0.0000E+00  0.0000E+00  0.2424E+00  0.2424E+00
    -26.389  0.0000E+00  0.0000E+00  0.2424E+00  0.2424E+00
    -26.183  0.0000E+00  0.0000E+00  0.2424E+00  0.2424E+00
    -25.978  0.0000E+00  0.0000E+00  0.2424E+00  0.2424E+00
    -25.772  0.0000E+00  0.0000E+00  0.2424E+00  0.2424E+00
    -25.566  0.0000E+00  0.0000E+00  0.2424E+00  0.2424E+00
    -25.361  0.0000E+00  0.0000E+00  0.2424E+00  0.2424E+00
    -25.155  0.0000E+00  0.0000E+00  0.2424E+00  0.2424E+00
    -24.950  0.0000E+00  0.0000E+00  0.2424E+00  0.2424E+00
    -24.744  0.0000E+00  0.0000E+00  0.2424E+00  0.2424E+00
    -24.538  0.0000E+00  0.0000E+00  0.2424E+00  0.2424E+00
    -24.333  0.0000E+00  0.0000E+00  0.2424E+00  0.2424E+00
    -24.127  0.0000E+00  0.0000E+00  0.2424E+00  0.2424E+00
    -23.922  0.0000E+00  0.0000E+00  0.2424E+00  0.2424E+00
    -23.716  0.0000E+00  0.0000E+00  0.2424E+00  0.2424E+00
    -23.510  0.0000E+00  0.0000E+00  0.2424E+00  0.2424E+00
    -23.305  0.0000E+00  0.0000E+00  0.2424E+00  0.2424E+00
    -23.099  0.0000E+00  0.0000E+00  0.2424E+00  0.2424E+00
    -22.893  0.0000E+00  0.0000E+00  0.2424E+00  0.2424E+00
    -22.688  0.0000E+00  0.0000E+00  0.2424E+00  0.2424E+00
    -22.482  0.0000E+00  0.0000E+00  0.2424E+00  0.2424E+00
    -22.277  0.0000E+00  0.0000E+00  0.2424E+00  0.2424E+00
    -22.071  0.0000E+00  0.0000E+00  0.2424E+00  0.2424E+00
    -21.865  0.0000E+00  0.0000E+00  0.2424E+00  0.2424E+00
    -21.660  0.0000E+00  0.0000E+00  0.2424E+00  0.2424E+00
    -21.454  0.0000E+00  0.0000E+00  0.2424E+00  0.2424E+00
    -21.249  0.0000E+00  0.0000E+00  0.2424E+00  0.2424E+00
    -21.043  0.0000E+00  0.0000E+00  0.2424E+00  0.2424E+00
    -20.837  0.0000E+00  0.0000E+00  0.2424E+00  0.2424E+00
    -20.632  0.0000E+00  0.0000E+00  0.2424E+00  0.2424E+00
    -20.426  0.0000E+00  0.0000E+00  0.2424E+00  0.2424E+00
    -20.221  0.0000E+00  0.0000E+00  0.2424E+00  0.2424E+00
    -20.015  0.0000E+00  0.0000E+00  0.2424E+00  0.2424E+00
    -19.809  0.0000E+00  0.0000E+00  0.2424E+00  0.2424E+00
    -19.604  0.0000E+00  0.0000E+00  0.2424E+00  0.2424E+00
    -19.398  0.0000E+00  0.0000E+00  0.2424E+00  0.2424E+00
    -19.192  0.0000E+00  0.0000E+00  0.2424E+00  0.2424E+00
    -18.987  0.0000E+00  0.0000E+00  0.2424E+00  0.2424E+00
    -18.781  0.0000E+00  0.0000E+00  0.2424E+00  0.2424E+00
    -18.576  0.0000E+00  0.0000E+00  0.2424E+00  0.2424E+00
    -18.370  0.0000E+00  0.0000E+00  0.2424E+00  0.2424E+00
    -18.164  0.0000E+00  0.0000E+00  0.2424E+00  0.2424E+00
    -17.959  0.0000E+00  0.0000E+00  0.2424E+00  0.2424E+00
    -17.753  0.0000E+00  0.0000E+00  0.2424E+00  0.2424E+00
    -17.548  0.0000E+00  0.0000E+00  0.2424E+00  0.2424E+00
    -17.342  0.0000E+00  0.0000E+00  0.2424E+00  0.2424E+00
    -17.136  0.0000E+00  0.0000E+00  0.2424E+00  0.2424E+00
    -16.931  0.0000E+00  0.0000E+00  0.2424E+00  0.2424E+00
    -16.725  0.0000E+00  0.0000E+00  0.2424E+00  0.2424E+00
    -16.520  0.0000E+00  0.0000E+00  0.2424E+00  0.2424E+00
    -16.314  0.0000E+00  0.0000E+00  0.2424E+00  0.2424E+00
    -16.108  0.0000E+00  0.0000E+00  0.2424E+00  0.2424E+00
    -15.903  0.0000E+00  0.0000E+00  0.2424E+00  0.2424E+00
    -15.697  0.0000E+00  0.0000E+00  0.2424E+00  0.2424E+00
    -15.491  0.0000E+00  0.0000E+00  0.2424E+00  0.2424E+00
    -15.286  0.0000E+00  0.0000E+00  0.2424E+00  0.2424E+00
    -15.080  0.0000E+00  0.0000E+00  0.2424E+00  0.2424E+00
    -14.875  0.0000E+00  0.0000E+00  0.2424E+00  0.2424E+00
    -14.669  0.0000E+00  0.0000E+00  0.2424E+00  0.2424E+00
    -14.463  0.0000E+00  0.0000E+00  0.2424E+00  0.2424E+00
    -14.258  0.0000E+00  0.0000E+00  0.2424E+00  0.2424E+00
    -14.052  0.0000E+00  0.0000E+00  0.2424E+00  0.2424E+00
    -13.847  0.0000E+00  0.0000E+00  0.2424E+00  0.2424E+00
    -13.641  0.0000E+00  0.0000E+00  0.2424E+00  0.2424E+00
    -13.435  0.0000E+00  0.0000E+00  0.2424E+00  0.2424E+00
    -13.230  0.0000E+00  0.0000E+00  0.2424E+00  0.2424E+00
    -13.024  0.0000E+00  0.0000E+00  0.2424E+00  0.2424E+00
    -12.819  0.0000E+00  0.0000E+00  0.2424E+00  0.2424E+00
    -12.613  0.0000E+00  0.0000E+00  0.2424E+00  0.2424E+00
    -12.407  0.0000E+00  0.0000E+00  0.2424E+00  0.2424E+00
    -12.202  0.0000E+00  0.0000E+00  0.2424E+00  0.2424E+00
    -11.996  0.0000E+00  0.0000E+00  0.2424E+00  0.2424E+00
    -11.790  0.0000E+00  0.0000E+00  0.2424E+00  0.2424E+00
    -11.585  0.0000E+00  0.0000E+00  0.2424E+00  0.2424E+00
    -11.379  0.4097E-10  0.4097E-10  0.2424E+00  0.2424E+00
    -11.174  0.8655E-03  0.8655E-03  0.2426E+00  0.2426E+00
    -10.968  0.1430E-01  0.1430E-01  0.2455E+00  0.2455E+00
    -10.762  0.2221E-01  0.2221E-01  0.2501E+00  0.2501E+00
    -10.557  0.2656E-01  0.2656E-01  0.2556E+00  0.2556E+00
    -10.351  0.3784E-01  0.3784E-01  0.2634E+00  0.2634E+00
    -10.146  0.4208E-01  0.4208E-01  0.2720E+00  0.2720E+00
     -9.940  0.3089E-01  0.3089E-01  0.2784E+00  0.2784E+00
     -9.734  0.4686E-01  0.4686E-01  0.2880E+00  0.2880E+00
     -9.529  0.7998E-01  0.7998E-01  0.3044E+00  0.3044E+00
     -9.323  0.8674E-01  0.8674E-01  0.3223E+00  0.3223E+00
     -9.118  0.4692E-02  0.4692E-02  0.3232E+00  0.3232E+00
     -8.912  0.0000E+00  0.0000E+00  0.3232E+00  0.3232E+00
     -8.706  0.0000E+00  0.0000E+00  0.3232E+00  0.3232E+00
     -8.501  0.0000E+00  0.0000E+00  0.3232E+00  0.3232E+00
     -8.295  0.0000E+00  0.0000E+00  0.3232E+00  0.3232E+00
     -8.090  0.0000E+00  0.0000E+00  0.3232E+00  0.3232E+00
     -7.884  0.0000E+00  0.0000E+00  0.3232E+00  0.3232E+00
     -7.678  0.0000E+00  0.0000E+00  0.3232E+00  0.3232E+00
     -7.473  0.0000E+00  0.0000E+00  0.3232E+00  0.3232E+00
     -7.267  0.0000E+00  0.0000E+00  0.3232E+00  0.3232E+00
     -7.061  0.0000E+00  0.0000E+00  0.3232E+00  0.3232E+00
     -6.856  0.0000E+00  0.0000E+00  0.3232E+00  0.3232E+00
     -6.650  0.0000E+00  0.0000E+00  0.3232E+00  0.3232E+00
     -6.445  0.0000E+00  0.0000E+00  0.3232E+00  0.3232E+00
     -6.239  0.0000E+00  0.0000E+00  0.3232E+00  0.3232E+00
     -6.033  0.0000E+00  0.0000E+00  0.3232E+00  0.3232E+00
     -5.828  0.0000E+00  0.0000E+00  0.3232E+00  0.3232E+00
     -5.622  0.0000E+00  0.0000E+00  0.3232E+00  0.3232E+00
     -5.417  0.0000E+00  0.0000E+00  0.3232E+00  0.3232E+00
     -5.211  0.0000E+00  0.0000E+00  0.3232E+00  0.3232E+00
     -5.005  0.0000E+00  0.0000E+00  0.3232E+00  0.3232E+00
     -4.800  0.0000E+00  0.0000E+00  0.3232E+00  0.3232E+00
     -4.594  0.0000E+00  0.0000E+00  0.3232E+00  0.3232E+00
     -4.389  0.0000E+00  0.0000E+00  0.3232E+00  0.3232E+00
     -4.183  0.0000E+00  0.0000E+00  0.3232E+00  0.3232E+00
     -3.977  0.0000E+00  0.0000E+00  0.3232E+00  0.3232E+00
     -3.772  0.0000E+00  0.0000E+00  0.3232E+00  0.3232E+00
     -3.566  0.0000E+00  0.0000E+00  0.3232E+00  0.3232E+00
     -3.360  0.3046E-16  0.3046E-16  0.3232E+00  0.3232E+00
     -3.155  0.9636E-05  0.9636E-05  0.3232E+00  0.3232E+00
     -2.949  0.2086E-02  0.2086E-02  0.3237E+00  0.3237E+00
     -2.744  0.5828E-02  0.5828E-02  0.3249E+00  0.3249E+00
     -2.538  0.9167E-02  0.9167E-02  0.3267E+00  0.3267E+00
     -2.332  0.3331E-01  0.3331E-01  0.3336E+00  0.3336E+00
     -2.127  0.5378E-01  0.5378E-01  0.3447E+00  0.3447E+00
     -1.921  0.5571E-01  0.5571E-01  0.3561E+00  0.3561E+00
     -1.716  0.4470E-01  0.4470E-01  0.3653E+00  0.3653E+00
     -1.510  0.4758E-01  0.4758E-01  0.3751E+00  0.3751E+00
     -1.304  0.4207E-01  0.4207E-01  0.3837E+00  0.3837E+00
     -1.099  0.6582E-01  0.6582E-01  0.3973E+00  0.3973E+00
     -0.893  0.7974E-01  0.7974E-01  0.4137E+00  0.4137E+00
     -0.688  0.8526E-01  0.8526E-01  0.4312E+00  0.4312E+00
     -0.482  0.7173E-01  0.7173E-01  0.4459E+00  0.4459E+00
     -0.276  0.6469E-01  0.6469E-01  0.4592E+00  0.4592E+00
     -0.071  0.1336E+00  0.1336E+00  0.4867E+00  0.4867E+00
      0.135  0.8149E-01  0.8149E-01  0.5035E+00  0.5035E+00
      0.341  0.3578E-01  0.3578E-01  0.5108E+00  0.5108E+00
      0.546  0.7418E-01  0.7418E-01  0.5261E+00  0.5261E+00
      0.752  0.5629E-01  0.5629E-01  0.5377E+00  0.5377E+00
      0.957  0.1244E+00  0.1244E+00  0.5632E+00  0.5632E+00
      1.163  0.1338E+00  0.1338E+00  0.5907E+00  0.5907E+00
      1.369  0.6487E-01  0.6487E-01  0.6041E+00  0.6041E+00
      1.574  0.7617E-01  0.7617E-01  0.6197E+00  0.6197E+00
      1.780  0.6776E-01  0.6776E-01  0.6337E+00  0.6337E+00
      1.985  0.7106E-01  0.7106E-01  0.6483E+00  0.6483E+00
      2.191  0.9672E-01  0.9672E-01  0.6682E+00  0.6682E+00
      2.397  0.8785E-01  0.8785E-01  0.6862E+00  0.6862E+00
      2.602  0.1099E+00  0.1099E+00  0.7088E+00  0.7088E+00
      2.808  0.1229E+00  0.1229E+00  0.7341E+00  0.7341E+00
      3.013  0.1387E+00  0.1387E+00  0.7626E+00  0.7626E+00
      3.219  0.1124E+00  0.1124E+00  0.7857E+00  0.7857E+00
      3.425  0.7476E-01  0.7476E-01  0.8011E+00  0.8011E+00
      3.630  0.1097E+00  0.1097E+00  0.8236E+00  0.8236E+00
      3.836  0.1127E+00  0.1127E+00  0.8468E+00  0.8468E+00
      4.041  0.6300E-01  0.6300E-01  0.8598E+00  0.8598E+00
      4.247  0.5430E-01  0.5430E-01  0.8709E+00  0.8709E+00
      4.453  0.5328E-01  0.5328E-01  0.8819E+00  0.8819E+00
      4.658  0.1073E+00  0.1073E+00  0.9039E+00  0.9039E+00
      4.864  0.9186E-01  0.9186E-01  0.9228E+00  0.9228E+00
      5.070  0.3421E-01  0.3421E-01  0.9299E+00  0.9299E+00
      5.275  0.2336E-01  0.2336E-01  0.9347E+00  0.9347E+00
      5.481  0.5703E-01  0.5703E-01  0.9464E+00  0.9464E+00
      5.686  0.7014E-01  0.7014E-01  0.9608E+00  0.9608E+00
      5.892  0.2820E-01  0.2822E-01  0.9666E+00  0.9666E+00
      6.098  0.1372E-01  0.1373E-01  0.9694E+00  0.9694E+00
      6.303  0.1253E-02  0.1239E-02  0.9697E+00  0.9697E+00
      6.509  0.2692E-07  0.2196E-07  0.9697E+00  0.9697E+00
      6.714  0.0000E+00  0.0000E+00  0.9697E+00  0.9697E+00
      6.920  0.0000E+00  0.0000E+00  0.9697E+00  0.9697E+00
      7.126  0.0000E+00  0.0000E+00  0.9697E+00  0.9697E+00
      7.331  0.0000E+00  0.0000E+00  0.9697E+00  0.9697E+00
      7.537  0.0000E+00  0.0000E+00  0.9697E+00  0.9697E+00
      7.742  0.0000E+00  0.0000E+00  0.9697E+00  0.9697E+00
      7.948  0.0000E+00  0.0000E+00  0.9697E+00  0.9697E+00
      8.154  0.0000E+00  0.0000E+00  0.9697E+00  0.9697E+00
      8.359  0.0000E+00  0.0000E+00  0.9697E+00  0.9697E+00
      8.565  0.0000E+00  0.0000E+00  0.9697E+00  0.9697E+00
      8.771  0.0000E+00  0.0000E+00  0.9697E+00  0.9697E+00
      8.976  0.0000E+00  0.0000E+00  0.9697E+00  0.9697E+00
      8.97614481    -52.70694244  301      3.52085355      1.00000000
    -52.707  0.0000E+00  0.0000E+00  0.0000E+00  0.0000E+00  0.0000E+00  0.0000E+00  0.0000E+00  0.0000E+00  0.0000E+00  0.0000E+00  0.0000E+00  0.0000E+00  0.0000E+00  0.0000E+00  0.0000E+00  0.0000E+00  0.0000E+00  0.0000E+00
    -52.501  0.0000E+00  0.0000E+00  0.0000E+00  0.0000E+00  0.0000E+00  0.0000E+00  0.0000E+00  0.0000E+00  0.0000E+00  0.0000E+00  0.0000E+00  0.0000E+00  0.0000E+00  0.0000E+00  0.0000E+00  0.0000E+00  0.0000E+00  0.0000E+00
    -52.296  0.0000E+00  0.0000E+00  0.0000E+00  0.0000E+00  0.0000E+00  0.0000E+00  0.0000E+00  0.0000E+00  0.0000E+00  0.0000E+00  0.0000E+00  0.0000E+00  0.0000E+00  0.0000E+00  0.0000E+00  0.0000E+00  0.0000E+00  0.0000E+00
    -52.090  0.0000E+00  0.0000E+00  0.0000E+00  0.0000E+00  0.0000E+00  0.0000E+00  0.0000E+00  0.0000E+00  0.0000E+00  0.0000E+00  0.0000E+00  0.0000E+00  0.0000E+00  0.0000E+00  0.0000E+00  0.0000E+00  0.0000E+00  0.0000E+00
    -51.885  0.0000E+00  0.0000E+00  0.0000E+00  0.0000E+00  0.0000E+00  0.0000E+00  0.0000E+00  0.0000E+00  0.0000E+00  0.0000E+00  0.0000E+00  0.0000E+00  0.0000E+00  0.0000E+00  0.0000E+00  0.0000E+00  0.0000E+00  0.0000E+00
    -51.679  0.0000E+00  0.0000E+00  0.0000E+00  0.0000E+00  0.0000E+00  0.0000E+00  0.0000E+00  0.0000E+00  0.0000E+00  0.0000E+00  0.0000E+00  0.0000E+00  0.0000E+00  0.0000E+00  0.0000E+00  0.0000E+00  0.0000E+00  0.0000E+00
    -51.473  0.0000E+00  0.0000E+00  0.0000E+00  0.0000E+00  0.0000E+00  0.0000E+00  0.0000E+00  0.0000E+00  0.0000E+00  0.0000E+00  0.0000E+00  0.0000E+00  0.0000E+00  0.0000E+00  0.0000E+00  0.0000E+00  0.0000E+00  0.0000E+00
    -51.268  0.0000E+00  0.0000E+00  0.0000E+00  0.0000E+00  0.0000E+00  0.0000E+00  0.0000E+00  0.0000E+00  0.0000E+00  0.0000E+00  0.0000E+00  0.0000E+00  0.0000E+00  0.0000E+00  0.0000E+00  0.0000E+00  0.0000E+00  0.0000E+00
    -51.062  0.0000E+00  0.0000E+00  0.0000E+00  0.0000E+00  0.0000E+00  0.0000E+00  0.0000E+00  0.0000E+00  0.0000E+00  0.0000E+00  0.0000E+00  0.0000E+00  0.0000E+00  0.0000E+00  0.0000E+00  0.0000E+00  0.0000E+00  0.0000E+00
    -50.856  0.0000E+00  0.0000E+00  0.0000E+00  0.0000E+00  0.0000E+00  0.0000E+00  0.0000E+00  0.0000E+00  0.0000E+00  0.0000E+00  0.0000E+00  0.0000E+00  0.0000E+00  0.0000E+00  0.0000E+00  0.0000E+00  0.0000E+00  0.0000E+00
    -50.651  0.0000E+00  0.0000E+00  0.0000E+00  0.0000E+00  0.0000E+00  0.0000E+00  0.0000E+00  0.0000E+00  0.0000E+00  0.0000E+00  0.0000E+00  0.0000E+00  0.0000E+00  0.0000E+00  0.0000E+00  0.0000E+00  0.0000E+00  0.0000E+00
    -50.445  0.0000E+00  0.0000E+00  0.0000E+00  0.0000E+00  0.0000E+00  0.0000E+00  0.0000E+00  0.0000E+00  0.0000E+00  0.0000E+00  0.0000E+00  0.0000E+00  0.0000E+00  0.0000E+00  0.0000E+00  0.0000E+00  0.0000E+00  0.0000E+00
    -50.240  0.0000E+00  0.0000E+00  0.0000E+00  0.0000E+00  0.0000E+00  0.0000E+00  0.0000E+00  0.0000E+00  0.0000E+00  0.0000E+00  0.0000E+00  0.0000E+00  0.0000E+00  0.0000E+00  0.0000E+00  0.0000E+00  0.0000E+00  0.0000E+00
    -50.034  0.4964E-08  0.8912E-08  0.8179E-05  0.4052E-05  0.1772E-06  0.7661E-06  0.3135E-05  0.1463E-04  0.1138E-09  0.1790E-09  0.2658E-11  0.6489E-11  0.2634E-08  0.4053E-08  0.1759E-09  0.1669E-08  0.2190E-08  0.4564E-08
    -49.828  0.3301E-03  0.3327E-03  0.4804E+00  0.4266E+00  0.2232E-01  0.2399E-01  0.4275E+00  0.4606E+00  0.5443E-05  0.5733E-05  0.1803E-06  0.2068E-06  0.1666E-03  0.1601E-03  0.4105E-04  0.5710E-04  0.4575E-03  0.4592E-03
    -49.623  0.5129E-04  0.5121E-04  0.6614E-01  0.2041E+00  0.9536E-02  0.2551E-02  0.1879E+00  0.4758E-01  0.1050E-05  0.7303E-06  0.6218E-07  0.2113E-07  0.2288E-04  0.2936E-04  0.1837E-04  0.4713E-05  0.1698E-03  0.1698E-03
    -49.417  0.8574E-04  0.8381E-04  0.1871E+01  0.1887E+01  0.2179E+01  0.2007E+01  0.1946E+01  0.1927E+01  0.4317E-05  0.4950E-05  0.3373E-05  0.6655E-05  0.1957E-04  0.1906E-04  0.1172E-04  0.8315E-05  0.5769E-04  0.5676E-04
    -49.212  0.8749E-04  0.8659E-04  0.1890E+01  0.1754E+01  0.2608E+01  0.2783E+01  0.1772E+01  0.1891E+01  0.3880E-04  0.3858E-04  0.2019E-04  0.1697E-04  0.3180E-04  0.3186E-04  0.2095E-04  0.2287E-04  0.6436E-04  0.6326E-04
    -49.006  0.1479E-04  0.1480E-04  0.5365E+00  0.5722E+00  0.2467E-01  0.2705E-01  0.5100E+00  0.5180E+00  0.3985E-05  0.3626E-05  0.1908E-06  0.1532E-06  0.5197E-05  0.5794E-05  0.3039E-05  0.1843E-05  0.3438E-04  0.3471E-04
    -48.800  0.2966E-11  0.3098E-11  0.3791E-06  0.4366E-06  0.1813E-07  0.1951E-07  0.3770E-06  0.3794E-06  0.8733E-12  0.7673E-12  0.5780E-13  0.2708E-13  0.1050E-11  0.1328E-11  0.1399E-11  0.1007E-11  0.2173E-10  0.2275E-10
    -48.595  0.0000E+00  0.0000E+00  0.0000E+00  0.0000E+00  0.0000E+00  0.0000E+00  0.0000E+00  0.0000E+00  0.0000E+00  0.0000E+00  0.0000E+00  0.0000E+00  0.0000E+00  0.0000E+00  0.0000E+00  0.0000E+00  0.0000E+00  0.0000E+00
    -48.389  0.0000E+00  0.0000E+00  0.0000E+00  0.0000E+00  0.0000E+00  0.0000E+00  0.0000E+00  0.0000E+00  0.0000E+00  0.0000E+00  0.0000E+00  0.0000E+00  0.0000E+00  0.0000E+00  0.0000E+00  0.0000E+00  0.0000E+00  0.0000E+00
    -48.184  0.0000E+00  0.0000E+00  0.0000E+00  0.0000E+00  0.0000E+00  0.0000E+00  0.0000E+00  0.0000E+00  0.0000E+00  0.0000E+00  0.0000E+00  0.0000E+00  0.0000E+00  0.0000E+00  0.0000E+00  0.0000E+00  0.0000E+00  0.0000E+00
    -47.978  0.0000E+00  0.0000E+00  0.0000E+00  0.0000E+00  0.0000E+00  0.0000E+00  0.0000E+00  0.0000E+00  0.0000E+00  0.0000E+00  0.0000E+00  0.0000E+00  0.0000E+00  0.0000E+00  0.0000E+00  0.0000E+00  0.0000E+00  0.0000E+00
    -47.772  0.0000E+00  0.0000E+00  0.0000E+00  0.0000E+00  0.0000E+00  0.0000E+00  0.0000E+00  0.0000E+00  0.0000E+00  0.0000E+00  0.0000E+00  0.0000E+00  0.0000E+00  0.0000E+00  0.0000E+00  0.0000E+00  0.0000E+00  0.0000E+00
    -47.567  0.0000E+00  0.0000E+00  0.0000E+00  0.0000E+00  0.0000E+00  0.0000E+00  0.0000E+00  0.0000E+00  0.0000E+00  0.0000E+00  0.0000E+00  0.0000E+00  0.0000E+00  0.0000E+00  0.0000E+00  0.0000E+00  0.0000E+00  0.0000E+00
    -47.361  0.0000E+00  0.0000E+00  0.0000E+00  0.0000E+00  0.0000E+00  0.0000E+00  0.0000E+00  0.0000E+00  0.0000E+00  0.0000E+00  0.0000E+00  0.0000E+00  0.0000E+00  0.0000E+00  0.0000E+00  0.0000E+00  0.0000E+00  0.0000E+00
    -47.155  0.0000E+00  0.0000E+00  0.0000E+00  0.0000E+00  0.0000E+00  0.0000E+00  0.0000E+00  0.0000E+00  0.0000E+00  0.0000E+00  0.0000E+00  0.0000E+00  0.0000E+00  0.0000E+00  0.0000E+00  0.0000E+00  0.0000E+00  0.0000E+00
    -46.950  0.0000E+00  0.0000E+00  0.0000E+00  0.0000E+00  0.0000E+00  0.0000E+00  0.0000E+00  0.0000E+00  0.0000E+00  0.0000E+00  0.0000E+00  0.0000E+00  0.0000E+00  0.0000E+00  0.0000E+00  0.0000E+00  0.0000E+00  0.0000E+00
    -46.744  0.0000E+00  0.0000E+00  0.0000E+00  0.0000E+00  0.0000E+00  0.0000E+00  0.0000E+00  0.0000E+00  0.0000E+00  0.0000E+00  0.0000E+00  0.0000E+00  0.0000E+00  0.0000E+00  0.0000E+00  0.0000E+00  0.0000E+00  0.0000E+00
    -46.539  0.0000E+00  0.0000E+00  0.0000E+00  0.0000E+00  0.0000E+00  0.0000E+00  0.0000E+00  0.0000E+00  0.0000E+00  0.0000E+00  0.0000E+00  0.0000E+00  0.0000E+00  0.0000E+00  0.0000E+00  0.0000E+00  0.0000E+00  0.0000E+00
    -46.333  0.0000E+00  0.0000E+00  0.0000E+00  0.0000E+00  0.0000E+00  0.0000E+00  0.0000E+00  0.0000E+00  0.0000E+00  0.0000E+00  0.0000E+00  0.0000E+00  0.0000E+00  0.0000E+00  0.0000E+00  0.0000E+00  0.0000E+00  0.0000E+00
    -46.127  0.0000E+00  0.0000E+00  0.0000E+00  0.0000E+00  0.0000E+00  0.0000E+00  0.0000E+00  0.0000E+00  0.0000E+00  0.0000E+00  0.0000E+00  0.0000E+00  0.0000E+00  0.0000E+00  0.0000E+00  0.0000E+00  0.0000E+00  0.0000E+00
    -45.922  0.0000E+00  0.0000E+00  0.0000E+00  0.0000E+00  0.0000E+00  0.0000E+00  0.0000E+00  0.0000E+00  0.0000E+00  0.0000E+00  0.0000E+00  0.0000E+00  0.0000E+00  0.0000E+00  0.0000E+00  0.0000E+00  0.0000E+00  0.0000E+00
    -45.716  0.0000E+00  0.0000E+00  0.0000E+00  0.0000E+00  0.0000E+00  0.0000E+00  0.0000E+00  0.0000E+00  0.0000E+00  0.0000E+00  0.0000E+00  0.0000E+00  0.0000E+00  0.0000E+00  0.0000E+00  0.0000E+00  0.0000E+00  0.0000E+00
    -45.511  0.0000E+00  0.0000E+00  0.0000E+00  0.0000E+00  0.0000E+00  0.0000E+00  0.0000E+00  0.0000E+00  0.0000E+00  0.0000E+00  0.0000E+00  0.0000E+00  0.0000E+00  0.0000E+00  0.0000E+00  0.0000E+00  0.0000E+00  0.0000E+00
    -45.305  0.0000E+00  0.0000E+00  0.0000E+00  0.0000E+00  0.0000E+00  0.0000E+00  0.0000E+00  0.0000E+00  0.0000E+00  0.0000E+00  0.0000E+00  0.0000E+00  0.0000E+00  0.0000E+00  0.0000E+00  0.0000E+00  0.0000E+00  0.0000E+00
    -45.099  0.0000E+00  0.0000E+00  0.0000E+00  0.0000E+00  0.0000E+00  0.0000E+00  0.0000E+00  0.0000E+00  0.0000E+00  0.0000E+00  0.0000E+00  0.0000E+00  0.0000E+00  0.0000E+00  0.0000E+00  0.0000E+00  0.0000E+00  0.0000E+00
    -44.894  0.0000E+00  0.0000E+00  0.0000E+00  0.0000E+00  0.0000E+00  0.0000E+00  0.0000E+00  0.0000E+00  0.0000E+00  0.0000E+00  0.0000E+00  0.0000E+00  0.0000E+00  0.0000E+00  0.0000E+00  0.0000E+00  0.0000E+00  0.0000E+00
    -44.688  0.0000E+00  0.0000E+00  0.0000E+00  0.0000E+00  0.0000E+00  0.0000E+00  0.0000E+00  0.0000E+00  0.0000E+00  0.0000E+00  0.0000E+00  0.0000E+00  0.0000E+00  0.0000E+00  0.0000E+00  0.0000E+00  0.0000E+00  0.0000E+00
    -44.483  0.0000E+00  0.0000E+00  0.0000E+00  0.0000E+00  0.0000E+00  0.0000E+00  0.0000E+00  0.0000E+00  0.0000E+00  0.0000E+00  0.0000E+00  0.0000E+00  0.0000E+00  0.0000E+00  0.0000E+00  0.0000E+00  0.0000E+00  0.0000E+00
    -44.277  0.0000E+00  0.0000E+00  0.0000E+00  0.0000E+00  0.0000E+00  0.0000E+00  0.0000E+00  0.0000E+00  0.0000E+00  0.0000E+00  0.0000E+00  0.0000E+00  0.0000E+00  0.0000E+00  0.0000E+00  0.0000E+00  0.0000E+00  0.0000E+00
    -44.071  0.0000E+00  0.0000E+00  0.0000E+00  0.0000E+00  0.0000E+00  0.0000E+00  0.0000E+00  0.0000E+00  0.0000E+00  0.0000E+00  0.0000E+00  0.0000E+00  0.0000E+00  0.0000E+00  0.0000E+00  0.0000E+00  0.0000E+00  0.0000E+00
    -43.866  0.0000E+00  0.0000E+00  0.0000E+00  0.0000E+00  0.0000E+00  0.0000E+00  0.0000E+00  0.0000E+00  0.0000E+00  0.0000E+00  0.0000E+00  0.0000E+00  0.0000E+00  0.0000E+00  0.0000E+00  0.0000E+00  0.0000E+00  0.0000E+00
    -43.660  0.0000E+00  0.0000E+00  0.0000E+00  0.0000E+00  0.0000E+00  0.0000E+00  0.0000E+00  0.0000E+00  0.0000E+00  0.0000E+00  0.0000E+00  0.0000E+00  0.0000E+00  0.0000E+00  0.0000E+00  0.0000E+00  0.0000E+00  0.0000E+00
    -43.454  0.0000E+00  0.0000E+00  0.0000E+00  0.0000E+00  0.0000E+00  0.0000E+00  0.0000E+00  0.0000E+00  0.0000E+00  0.0000E+00  0.0000E+00  0.0000E+00  0.0000E+00  0.0000E+00  0.0000E+00  0.0000E+00  0.0000E+00  0.0000E+00
    -43.249  0.0000E+00  0.0000E+00  0.0000E+00  0.0000E+00  0.0000E+00  0.0000E+00  0.0000E+00  0.0000E+00  0.0000E+00  0.0000E+00  0.0000E+00  0.0000E+00  0.0000E+00  0.0000E+00  0.0000E+00  0.0000E+00  0.0000E+00  0.0000E+00
    -43.043  0.0000E+00  0.0000E+00  0.0000E+00  0.0000E+00  0.0000E+00  0.0000E+00  0.0000E+00  0.0000E+00  0.0000E+00  0.0000E+00  0.0000E+00  0.0000E+00  0.0000E+00  0.0000E+00  0.0000E+00  0.0000E+00  0.0000E+00  0.0000E+00
    -42.838  0.0000E+00  0.0000E+00  0.0000E+00  0.0000E+00  0.0000E+00  0.0000E+00  0.0000E+00  0.0000E+00  0.0000E+00  0.0000E+00  0.0000E+00  0.0000E+00  0.0000E+00  0.0000E+00  0.0000E+00  0.0000E+00  0.0000E+00  0.0000E+00
    -42.632  0.0000E+00  0.0000E+00  0.0000E+00  0.0000E+00  0.0000E+00  0.0000E+00  0.0000E+00  0.0000E+00  0.0000E+00  0.0000E+00  0.0000E+00  0.0000E+00  0.0000E+00  0.0000E+00  0.0000E+00  0.0000E+00  0.0000E+00  0.0000E+00
    -42.426  0.0000E+00  0.0000E+00  0.0000E+00  0.0000E+00  0.0000E+00  0.0000E+00  0.0000E+00  0.0000E+00  0.0000E+00  0.0000E+00  0.0000E+00  0.0000E+00  0.0000E+00  0.0000E+00  0.0000E+00  0.0000E+00  0.0000E+00  0.0000E+00