  16  16   1   0
  0.1950000E+02  0.7142432E-09  0.6830231E-09  0.6873948E-09  0.5000000E-15
  1.000000000000000E-004
  CAR 
 unknown system                          
      9.31827756    -52.75914836  301      3.52090535      1.00000000
    -52.759  0.0000E+00  0.0000E+00  0.0000E+00  0.0000E+00
    -52.552  0.0000E+00  0.0000E+00  0.0000E+00  0.0000E+00
    -52.345  0.0000E+00  0.0000E+00  0.0000E+00  0.0000E+00
    -52.138  0.0000E+00  0.0000E+00  0.0000E+00  0.0000E+00
    -51.931  0.0000E+00  0.0000E+00  0.0000E+00  0.0000E+00
    -51.725  0.0000E+00  0.0000E+00  0.0000E+00  0.0000E+00
    -51.518  0.0000E+00  0.0000E+00  0.0000E+00  0.0000E+00
    -51.311  0.0000E+00  0.0000E+00  0.0000E+00  0.0000E+00
    -51.104  0.0000E+00  0.0000E+00  0.0000E+00  0.0000E+00
    -50.897  0.0000E+00  0.0000E+00  0.0000E+00  0.0000E+00
    -50.690  0.0000E+00  0.0000E+00  0.0000E+00  0.0000E+00
    -50.483  0.0000E+00  0.0000E+00  0.0000E+00  0.0000E+00
    -50.276  0.0000E+00  0.0000E+00  0.0000E+00  0.0000E+00
    -50.069  0.0000E+00  0.0000E+00  0.0000E+00  0.0000E+00
    -49.862  0.9665E+01  0.9665E+01  0.2000E+01  0.2000E+01
    -49.655  0.9665E+01  0.9665E+01  0.4000E+01  0.4000E+01
    -49.448  0.7597E+02  0.7597E+02  0.9275E+01  0.9275E+01
    -49.241  0.9440E+02  0.9440E+02  0.2156E+02  0.2156E+02
    -49.035  0.1085E+02  0.1085E+02  0.2400E+02  0.2400E+02
    -48.828  0.0000E+00  0.0000E+00  0.2400E+02  0.2400E+02
    -48.621  0.0000E+00  0.0000E+00  0.2400E+02  0.2400E+02
    -48.414  0.0000E+00  0.0000E+00  0.2400E+02  0.2400E+02
    -48.207  0.0000E+00  0.0000E+00  0.2400E+02  0.2400E+02
    -48.000  0.0000E+00  0.0000E+00  0.2400E+02  0.2400E+02
    -47.793  0.0000E+00  0.0000E+00  0.2400E+02  0.2400E+02
    -47.586  0.0000E+00  0.0000E+00  0.2400E+02  0.2400E+02
    -47.379  0.0000E+00  0.0000E+00  0.2400E+02  0.2400E+02
    -47.172  0.0000E+00  0.0000E+00  0.2400E+02  0.2400E+02
    -46.965  0.0000E+00  0.0000E+00  0.2400E+02  0.2400E+02
    -46.758  0.0000E+00  0.0000E+00  0.2400E+02  0.2400E+02
    -46.551  0.0000E+00  0.0000E+00  0.2400E+02  0.2400E+02
    -46.344  0.0000E+00  0.0000E+00  0.2400E+02  0.2400E+02
    -46.138  0.0000E+00  0.0000E+00  0.2400E+02  0.2400E+02
    -45.931  0.0000E+00  0.0000E+00  0.2400E+02  0.2400E+02
    -45.724  0.0000E+00  0.0000E+00  0.2400E+02  0.2400E+02
    -45.517  0.0000E+00  0.0000E+00  0.2400E+02  0.2400E+02
    -45.310  0.0000E+00  0.0000E+00  0.2400E+02  0.2400E+02
    -45.103  0.0000E+00  0.0000E+00  0.2400E+02  0.2400E+02
    -44.896  0.0000E+00  0.0000E+00  0.2400E+02  0.2400E+02
    -44.689  0.0000E+00  0.0000E+00  0.2400E+02  0.2400E+02
    -44.482  0.0000E+00  0.0000E+00  0.2400E+02  0.2400E+02
    -44.275  0.0000E+00  0.0000E+00  0.2400E+02  0.2400E+02
    -44.068  0.0000E+00  0.0000E+00  0.2400E+02  0.2400E+02
    -43.861  0.0000E+00  0.0000E+00  0.2400E+02  0.2400E+02
    -43.654  0.0000E+00  0.0000E+00  0.2400E+02  0.2400E+02
    -43.448  0.0000E+00  0.0000E+00  0.2400E+02  0.2400E+02
    -43.241  0.0000E+00  0.0000E+00  0.2400E+02  0.2400E+02
    -43.034  0.0000E+00  0.0000E+00  0.2400E+02  0.2400E+02
    -42.827  0.0000E+00  0.0000E+00  0.2400E+02  0.2400E+02
    -42.620  0.0000E+00  0.0000E+00  0.2400E+02  0.2400E+02
    -42.413  0.0000E+00  0.0000E+00  0.2400E+02  0.2400E+02
    -42.206  0.0000E+00  0.0000E+00  0.2400E+02  0.2400E+02
    -41.999  0.0000E+00  0.0000E+00  0.2400E+02  0.2400E+02
    -41.792  0.0000E+00  0.0000E+00  0.2400E+02  0.2400E+02
    -41.585  0.0000E+00  0.0000E+00  0.2400E+02  0.2400E+02
    -41.378  0.0000E+00  0.0000E+00  0.2400E+02  0.2400E+02
    -41.171  0.0000E+00  0.0000E+00  0.2400E+02  0.2400E+02
    -40.964  0.0000E+00  0.0000E+00  0.2400E+02  0.2400E+02
    -40.758  0.0000E+00  0.0000E+00  0.2400E+02  0.2400E+02
    -40.551  0.0000E+00  0.0000E+00  0.2400E+02  0.2400E+02
    -40.344  0.0000E+00  0.0000E+00  0.2400E+02  0.2400E+02
    -40.137  0.0000E+00  0.0000E+00  0.2400E+02  0.2400E+02
    -39.930  0.0000E+00  0.0000E+00  0.2400E+02  0.2400E+02
    -39.723  0.0000E+00  0.0000E+00  0.2400E+02  0.2400E+02
    -39.516  0.0000E+00  0.0000E+00  0.2400E+02  0.2400E+02
    -39.309  0.0000E+00  0.0000E+00  0.2400E+02  0.2400E+02
    -39.102  0.0000E+00  0.0000E+00  0.2400E+02  0.2400E+02
    -38.895  0.0000E+00  0.0000E+00  0.2400E+02  0.2400E+02
    -38.688  0.0000E+00  0.0000E+00  0.2400E+02  0.2400E+02
    -38.481  0.0000E+00  0.0000E+00  0.2400E+02  0.2400E+02
    -38.274  0.0000E+00  0.0000E+00  0.2400E+02  0.2400E+02
    -38.067  0.0000E+00  0.0000E+00  0.2400E+02  0.2400E+02
    -37.861  0.0000E+00  0.0000E+00  0.2400E+02  0.2400E+02
    -37.654  0.0000E+00  0.0000E+00  0.2400E+02  0.2400E+02
    -37.447  0.0000E+00  0.0000E+00  0.2400E+02  0.2400E+02
    -37.240  0.0000E+00  0.0000E+00  0.2400E+02  0.2400E+02
    -37.033  0.0000E+00  0.0000E+00  0.2400E+02  0.2400E+02
    -36.826  0.0000E+00  0.0000E+00  0.2400E+02  0.2400E+02
    -36.619  0.0000E+00  0.0000E+00  0.2400E+02  0.2400E+02
    -36.412  0.0000E+00  0.0000E+00  0.2400E+02  0.2400E+02
    -36.205  0.0000E+00  0.0000E+00  0.2400E+02  0.2400E+02
    -35.998  0.0000E+00  0.0000E+00  0.2400E+02  0.2400E+02
    -35.791  0.0000E+00  0.0000E+00  0.2400E+02  0.2400E+02
    -35.584  0.0000E+00  0.0000E+00  0.2400E+02  0.2400E+02
    -35.377  0.0000E+00  0.0000E+00  0.2400E+02  0.2400E+02
    -35.171  0.0000E+00  0.0000E+00  0.2400E+02  0.2400E+02
    -34.964  0.0000E+00  0.0000E+00  0.2400E+02  0.2400E+02
    -34.757  0.0000E+00  0.0000E+00  0.2400E+02  0.2400E+02
    -34.550  0.0000E+00  0.0000E+00  0.2400E+02  0.2400E+02
    -34.343  0.0000E+00  0.0000E+00  0.2400E+02  0.2400E+02
    -34.136  0.0000E+00  0.0000E+00  0.2400E+02  0.2400E+02
    -33.929  0.0000E+00  0.0000E+00  0.2400E+02  0.2400E+02
    -33.722  0.0000E+00  0.0000E+00  0.2400E+02  0.2400E+02
    -33.515  0.0000E+00  0.0000E+00  0.2400E+02  0.2400E+02
    -33.308  0.0000E+00  0.0000E+00  0.2400E+02  0.2400E+02
    -33.101  0.0000E+00  0.0000E+00  0.2400E+02  0.2400E+02
    -32.894  0.0000E+00  0.0000E+00  0.2400E+02  0.2400E+02
    -32.687  0.0000E+00  0.0000E+00  0.2400E+02  0.2400E+02
    -32.481  0.0000E+00  0.0000E+00  0.2400E+02  0.2400E+02
    -32.274  0.0000E+00  0.0000E+00  0.2400E+02  0.2400E+02
    -32.067  0.0000E+00  0.0000E+00  0.2400E+02  0.2400E+02
    -31.860  0.0000E+00  0.0000E+00  0.2400E+02  0.2400E+02
    -31.653  0.0000E+00  0.0000E+00  0.2400E+02  0.2400E+02
    -31.446  0.0000E+00  0.0000E+00  0.2400E+02  0.2400E+02
    -31.239  0.0000E+00  0.0000E+00  0.2400E+02  0.2400E+02
    -31.032  0.0000E+00  0.0000E+00  0.2400E+02  0.2400E+02
    -30.825  0.0000E+00  0.0000E+00  0.2400E+02  0.2400E+02
    -30.618  0.0000E+00  0.0000E+00  0.2400E+02  0.2400E+02
    -30.411  0.0000E+00  0.0000E+00  0.2400E+02  0.2400E+02
    -30.204  0.0000E+00  0.0000E+00  0.2400E+02  0.2400E+02
    -29.997  0.0000E+00  0.0000E+00  0.2400E+02  0.2400E+02
    -29.791  0.0000E+00  0.0000E+00  0.2400E+02  0.2400E+02
    -29.584  0.0000E+00  0.0000E+00  0.2400E+02  0.2400E+02
    -29.377  0.0000E+00  0.0000E+00  0.2400E+02  0.2400E+02
    -29.170  0.0000E+00  0.0000E+00  0.2400E+02  0.2400E+02
    -28.963  0.0000E+00  0.0000E+00  0.2400E+02  0.2400E+02
    -28.756  0.0000E+00  0.0000E+00  0.2400E+02  0.2400E+02
    -28.549  0.0000E+00  0.0000E+00  0.2400E+02  0.2400E+02
    -28.342  0.0000E+00  0.0000E+00  0.2400E+02  0.2400E+02
    -28.135  0.0000E+00  0.0000E+00  0.2400E+02  0.2400E+02
    -27.928  0.0000E+00  0.0000E+00  0.2400E+02  0.2400E+02
    -27.721  0.0000E+00  0.0000E+00  0.2400E+02  0.2400E+02
    -27.514  0.0000E+00  0.0000E+00  0.2400E+02  0.2400E+02
    -27.307  0.0000E+00  0.0000E+00  0.2400E+02  0.2400E+02
    -27.100  0.0000E+00  0.0000E+00  0.2400E+02  0.2400E+02
    -26.894  0.0000E+00  0.0000E+00  0.2400E+02  0.2400E+02
    -26.687  0.0000E+00  0.0000E+00  0.2400E+02  0.2400E+02
    -26.480  0.0000E+00  0.0000E+00  0.2400E+02  0.2400E+02
    -26.273  0.0000E+00  0.0000E+00  0.2400E+02  0.2400E+02
    -26.066  0.0000E+00  0.0000E+00  0.2400E+02  0.2400E+02
    -25.859  0.0000E+00  0.0000E+00  0.2400E+02  0.2400E+02
    -25.652  0.0000E+00  0.0000E+00  0.2400E+02  0.2400E+02
    -25.445  0.0000E+00  0.0000E+00  0.2400E+02  0.2400E+02
    -25.238  0.0000E+00  0.0000E+00  0.2400E+02  0.2400E+02
    -25.031  0.0000E+00  0.0000E+00  0.2400E+02  0.2400E+02
    -24.824  0.0000E+00  0.0000E+00  0.2400E+02  0.2400E+02
    -24.617  0.0000E+00  0.0000E+00  0.2400E+02  0.2400E+02
    -24.410  0.0000E+00  0.0000E+00  0.2400E+02  0.2400E+02
    -24.204  0.0000E+00  0.0000E+00  0.2400E+02  0.2400E+02
    -23.997  0.0000E+00  0.0000E+00  0.2400E+02  0.2400E+02
    -23.790  0.0000E+00  0.0000E+00  0.2400E+02  0.2400E+02
    -23.583  0.0000E+00  0.0000E+00  0.2400E+02  0.2400E+02
    -23.376  0.0000E+00  0.0000E+00  0.2400E+02  0.2400E+02
    -23.169  0.0000E+00  0.0000E+00  0.2400E+02  0.2400E+02
    -22.962  0.0000E+00  0.0000E+00  0.2400E+02  0.2400E+02
    -22.755  0.0000E+00  0.0000E+00  0.2400E+02  0.2400E+02
    -22.548  0.0000E+00  0.0000E+00  0.2400E+02  0.2400E+02
    -22.341  0.0000E+00  0.0000E+00  0.2400E+02  0.2400E+02
    -22.134  0.0000E+00  0.0000E+00  0.2400E+02  0.2400E+02
    -21.927  0.0000E+00  0.0000E+00  0.2400E+02  0.2400E+02
    -21.720  0.0000E+00  0.0000E+00  0.2400E+02  0.2400E+02
    -21.514  0.0000E+00  0.0000E+00  0.2400E+02  0.2400E+02
    -21.307  0.0000E+00  0.0000E+00  0.2400E+02  0.2400E+02
    -21.100  0.0000E+00  0.0000E+00  0.2400E+02  0.2400E+02
    -20.893  0.0000E+00  0.0000E+00  0.2400E+02  0.2400E+02
    -20.686  0.0000E+00  0.0000E+00  0.2400E+02  0.2400E+02
    -20.479  0.0000E+00  0.0000E+00  0.2400E+02  0.2400E+02
    -20.272  0.0000E+00  0.0000E+00  0.2400E+02  0.2400E+02
    -20.065  0.0000E+00  0.0000E+00  0.2400E+02  0.2400E+02
    -19.858  0.0000E+00  0.0000E+00  0.2400E+02  0.2400E+02
    -19.651  0.0000E+00  0.0000E+00  0.2400E+02  0.2400E+02
    -19.444  0.0000E+00  0.0000E+00  0.2400E+02  0.2400E+02
    -19.237  0.0000E+00  0.0000E+00  0.2400E+02  0.2400E+02
    -19.030  0.0000E+00  0.0000E+00  0.2400E+02  0.2400E+02
    -18.823  0.0000E+00  0.0000E+00  0.2400E+02  0.2400E+02
    -18.617  0.0000E+00  0.0000E+00  0.2400E+02  0.2400E+02
    -18.410  0.0000E+00  0.0000E+00  0.2400E+02  0.2400E+02
    -18.203  0.0000E+00  0.0000E+00  0.2400E+02  0.2400E+02
    -17.996  0.0000E+00  0.0000E+00  0.2400E+02  0.2400E+02
    -17.789  0.0000E+00  0.0000E+00  0.2400E+02  0.2400E+02
    -17.582  0.0000E+00  0.0000E+00  0.2400E+02  0.2400E+02
    -17.375  0.0000E+00  0.0000E+00  0.2400E+02  0.2400E+02
    -17.168  0.0000E+00  0.0000E+00  0.2400E+02  0.2400E+02
    -16.961  0.0000E+00  0.0000E+00  0.2400E+02  0.2400E+02
    -16.754  0.0000E+00  0.0000E+00  0.2400E+02  0.2400E+02
    -16.547  0.0000E+00  0.0000E+00  0.2400E+02  0.2400E+02
    -16.340  0.0000E+00  0.0000E+00  0.2400E+02  0.2400E+02
    -16.133  0.0000E+00  0.0000E+00  0.2400E+02  0.2400E+02
    -15.927  0.0000E+00  0.0000E+00  0.2400E+02  0.2400E+02
    -15.720  0.0000E+00  0.0000E+00  0.2400E+02  0.2400E+02
    -15.513  0.0000E+00  0.0000E+00  0.2400E+02  0.2400E+02
    -15.306  0.0000E+00  0.0000E+00  0.2400E+02  0.2400E+02
    -15.099  0.0000E+00  0.0000E+00  0.2400E+02  0.2400E+02
    -14.892  0.0000E+00  0.0000E+00  0.2400E+02  0.2400E+02
    -14.685  0.0000E+00  0.0000E+00  0.2400E+02  0.2400E+02
    -14.478  0.0000E+00  0.0000E+00  0.2400E+02  0.2400E+02
    -14.271  0.0000E+00  0.0000E+00  0.2400E+02  0.2400E+02
    -14.064  0.0000E+00  0.0000E+00  0.2400E+02  0.2400E+02
    -13.857  0.0000E+00  0.0000E+00  0.2400E+02  0.2400E+02
    -13.650  0.0000E+00  0.0000E+00  0.2400E+02  0.2400E+02
    -13.443  0.0000E+00  0.0000E+00  0.2400E+02  0.2400E+02
    -13.237  0.0000E+00  0.0000E+00  0.2400E+02  0.2400E+02
    -13.030  0.0000E+00  0.0000E+00  0.2400E+02  0.2400E+02
    -12.823  0.0000E+00  0.0000E+00  0.2400E+02  0.2400E+02
    -12.616  0.0000E+00  0.0000E+00  0.2400E+02  0.2400E+02
    -12.409  0.0000E+00  0.0000E+00  0.2400E+02  0.2400E+02
    -12.202  0.0000E+00  0.0000E+00  0.2400E+02  0.2400E+02
    -11.995  0.0000E+00  0.0000E+00  0.2400E+02  0.2400E+02
    -11.788  0.0000E+00  0.0000E+00  0.2400E+02  0.2400E+02
    -11.581  0.0000E+00  0.0000E+00  0.2400E+02  0.2400E+02
    -11.374  0.0000E+00  0.0000E+00  0.2400E+02  0.2400E+02
    -11.167  0.5738E+00  0.5738E+00  0.2401E+02  0.2401E+02
    -10.960  0.2715E+01  0.2715E+01  0.2431E+02  0.2431E+02
    -10.753  0.2488E+01  0.2488E+01  0.2480E+02  0.2480E+02
    -10.546  0.3952E+01  0.3952E+01  0.2533E+02  0.2533E+02
    -10.340  0.3974E+01  0.3974E+01  0.2609E+02  0.2609E+02
    -10.133  0.5261E+01  0.5261E+01  0.2700E+02  0.2700E+02
     -9.926  0.5503E+01  0.5503E+01  0.2765E+02  0.2765E+02
     -9.719  0.1044E+02  0.1044E+02  0.2863E+02  0.2863E+02
     -9.512  0.2043E+02  0.2043E+02  0.3038E+02  0.3038E+02
     -9.305  0.6053E+01  0.6053E+01  0.3200E+02  0.3200E+02
     -9.098  0.0000E+00  0.0000E+00  0.3200E+02  0.3200E+02
     -8.891  0.0000E+00  0.0000E+00  0.3200E+02  0.3200E+02
     -8.684  0.0000E+00  0.0000E+00  0.3200E+02  0.3200E+02
     -8.477  0.0000E+00  0.0000E+00  0.3200E+02  0.3200E+02
     -8.270  0.0000E+00  0.0000E+00  0.3200E+02  0.3200E+02
     -8.063  0.0000E+00  0.0000E+00  0.3200E+02  0.3200E+02
     -7.856  0.0000E+00  0.0000E+00  0.3200E+02  0.3200E+02
     -7.650  0.0000E+00  0.0000E+00  0.3200E+02  0.3200E+02
     -7.443  0.0000E+00  0.0000E+00  0.3200E+02  0.3200E+02
     -7.236  0.0000E+00  0.0000E+00  0.3200E+02  0.3200E+02
     -7.029  0.0000E+00  0.0000E+00  0.3200E+02  0.3200E+02
     -6.822  0.0000E+00  0.0000E+00  0.3200E+02  0.3200E+02
     -6.615  0.0000E+00  0.0000E+00  0.3200E+02  0.3200E+02
     -6.408  0.0000E+00  0.0000E+00  0.3200E+02  0.3200E+02
     -6.201  0.0000E+00  0.0000E+00  0.3200E+02  0.3200E+02
     -5.994  0.0000E+00  0.0000E+00  0.3200E+02  0.3200E+02
     -5.787  0.0000E+00  0.0000E+00  0.3200E+02  0.3200E+02
     -5.580  0.0000E+00  0.0000E+00  0.3200E+02  0.3200E+02
     -5.373  0.0000E+00  0.0000E+00  0.3200E+02  0.3200E+02
     -5.166  0.0000E+00  0.0000E+00  0.3200E+02  0.3200E+02
     -4.960  0.0000E+00  0.0000E+00  0.3200E+02  0.3200E+02
     -4.753  0.0000E+00  0.0000E+00  0.3200E+02  0.3200E+02
     -4.546  0.0000E+00  0.0000E+00  0.3200E+02  0.3200E+02
     -4.339  0.0000E+00  0.0000E+00  0.3200E+02  0.3200E+02
     -4.132  0.0000E+00  0.0000E+00  0.3200E+02  0.3200E+02
     -3.925  0.0000E+00  0.0000E+00  0.3200E+02  0.3200E+02
     -3.718  0.0000E+00  0.0000E+00  0.3200E+02  0.3200E+02
     -3.511  0.0000E+00  0.0000E+00  0.3200E+02  0.3200E+02
     -3.304  0.0000E+00  0.0000E+00  0.3200E+02  0.3200E+02
     -3.097  0.6012E-02  0.6012E-02  0.3200E+02  0.3200E+02
     -2.890  0.5650E+00  0.5650E+00  0.3206E+02  0.3206E+02
     -2.683  0.8194E+00  0.8194E+00  0.3220E+02  0.3220E+02
     -2.476  0.1945E+01  0.1945E+01  0.3243E+02  0.3243E+02
     -2.270  0.7167E+01  0.7167E+01  0.3332E+02  0.3332E+02
     -2.063  0.7451E+01  0.7451E+01  0.3452E+02  0.3452E+02
     -1.856  0.5054E+01  0.5054E+01  0.3563E+02  0.3563E+02
     -1.649  0.5043E+01  0.5043E+01  0.3644E+02  0.3644E+02
     -1.442  0.5454E+01  0.5454E+01  0.3742E+02  0.3742E+02
     -1.235  0.7599E+01  0.7599E+01  0.3852E+02  0.3852E+02
     -1.028  0.1103E+02  0.1103E+02  0.3992E+02  0.3992E+02
     -0.821  0.1198E+02  0.1198E+02  0.4163E+02  0.4163E+02
     -0.614  0.1109E+02  0.1109E+02  0.4336E+02  0.4336E+02
     -0.407  0.6180E+01  0.6180E+01  0.4459E+02  0.4459E+02
     -0.200  0.1974E+02  0.1974E+02  0.4648E+02  0.4648E+02
      0.007  0.1672E+02  0.1672E+02  0.4909E+02  0.4909E+02
      0.214  0.4187E+01  0.4187E+01  0.5014E+02  0.5014E+02
      0.421  0.9956E+01  0.9956E+01  0.5144E+02  0.5144E+02
      0.627  0.5908E+01  0.5908E+01  0.5234E+02  0.5234E+02
      0.834  0.1498E+02  0.1498E+02  0.5410E+02  0.5410E+02
      1.041  0.2811E+02  0.2811E+02  0.5743E+02  0.5743E+02
      1.248  0.6971E+01  0.6971E+01  0.5899E+02  0.5899E+02
      1.455  0.1091E+02  0.1091E+02  0.6063E+02  0.6063E+02
      1.662  0.9997E+01  0.9997E+01  0.6197E+02  0.6197E+02
      1.869  0.7619E+01  0.7619E+01  0.6331E+02  0.6331E+02
      2.076  0.1203E+02  0.1203E+02  0.6505E+02  0.6505E+02
      2.283  0.1295E+02  0.1295E+02  0.6710E+02  0.6710E+02
      2.490  0.1990E+02  0.1990E+02  0.6902E+02  0.6902E+02
      2.697  0.1960E+02  0.1960E+02  0.7143E+02  0.7143E+02
      2.904  0.1834E+02  0.1834E+02  0.7413E+02  0.7413E+02
      3.111  0.1634E+02  0.1634E+02  0.7673E+02  0.7673E+02
      3.317  0.1249E+02  0.1249E+02  0.7868E+02  0.7868E+02
      3.524  0.1210E+02  0.1210E+02  0.8003E+02  0.8003E+02
      3.731  0.2171E+02  0.2171E+02  0.8265E+02  0.8265E+02
      3.938  0.1090E+02  0.1090E+02  0.8456E+02  0.8456E+02
      4.145  0.7799E+01  0.7799E+01  0.8563E+02  0.8563E+02
      4.352  0.7558E+01  0.7558E+01  0.8672E+02  0.8672E+02
      4.559  0.1255E+02  0.1255E+02  0.8818E+02  0.8818E+02
      4.766  0.1454E+02  0.1454E+02  0.9071E+02  0.9071E+02
      4.973  0.3843E+01  0.3843E+01  0.9179E+02  0.9179E+02
      5.180  0.2586E+01  0.2584E+01  0.9227E+02  0.9227E+02
      5.387  0.6345E+01  0.6342E+01  0.9306E+02  0.9306E+02
      5.594  0.8887E+01  0.9029E+01  0.9467E+02  0.9468E+02
      5.801  0.2819E+01  0.2721E+01  0.9547E+02  0.9546E+02
      6.007  0.1355E+01  0.1438E+01  0.9587E+02  0.9587E+02
      6.214  0.1508E+00  0.1743E+00  0.9599E+02  0.9599E+02
      6.421  0.2501E-02  0.2622E-02  0.9600E+02  0.9600E+02
      6.628  0.0000E+00  0.0000E+00  0.9600E+02  0.9600E+02
      6.835  0.0000E+00  0.0000E+00  0.9600E+02  0.9600E+02
      7.042  0.0000E+00  0.0000E+00  0.9600E+02  0.9600E+02
      7.249  0.0000E+00  0.0000E+00  0.9600E+02  0.9600E+02
      7.456  0.0000E+00  0.0000E+00  0.9600E+02  0.9600E+02
      7.663  0.0000E+00  0.0000E+00  0.9600E+02  0.9600E+02
      7.870  0.0000E+00  0.0000E+00  0.9600E+02  0.9600E+02
      8.077  0.0000E+00  0.0000E+00  0.9600E+02  0.9600E+02
      8.284  0.0000E+00  0.0000E+00  0.9600E+02  0.9600E+02
      8.491  0.0000E+00  0.0000E+00  0.9600E+02  0.9600E+02
      8.698  0.0000E+00  0.0000E+00  0.9600E+02  0.9600E+02
      8.904  0.0000E+00  0.0000E+00  0.9600E+02  0.9600E+02
      9.111  0.0000E+00  0.0000E+00  0.9600E+02  0.9600E+02
      9.318  0.0000E+00  0.0000E+00  0.9600E+02  0.9600E+02
      9.31827756    -52.75914836  301      3.52090535      1.00000000
    -52.759  0.0000E+00  0.0000E+00  0.0000E+00  0.0000E+00  0.0000E+00  0.0000E+00  0.0000E+00  0.0000E+00  0.0000E+00  0.0000E+00  0.0000E+00  0.0000E+00  0.0000E+00  0.0000E+00  0.0000E+00  0.0000E+00  0.0000E+00  0.0000E+00
    -52.552  0.0000E+00  0.0000E+00  0.0000E+00  0.0000E+00  0.0000E+00  0.0000E+00  0.0000E+00  0.0000E+00  0.0000E+00  0.0000E+00  0.0000E+00  0.0000E+00  0.0000E+00  0.0000E+00  0.0000E+00  0.0000E+00  0.0000E+00  0.0000E+00
    -52.345  0.0000E+00  0.0000E+00  0.0000E+00  0.0000E+00  0.0000E+00  0.0000E+00  0.0000E+00  0.0000E+00  0.0000E+00  0.0000E+00  0.0000E+00  0.0000E+00  0.0000E+00  0.0000E+00  0.0000E+00  0.0000E+00  0.0000E+00  0.0000E+00
    -52.138  0.0000E+00  0.0000E+00  0.0000E+00  0.0000E+00  0.0000E+00  0.0000E+00  0.0000E+00  0.0000E+00  0.0000E+00  0.0000E+00  0.0000E+00  0.0000E+00  0.0000E+00  0.0000E+00  0.0000E+00  0.0000E+00  0.0000E+00  0.0000E+00
    -51.931  0.0000E+00  0.0000E+00  0.0000E+00  0.0000E+00  0.0000E+00  0.0000E+00  0.0000E+00  0.0000E+00  0.0000E+00  0.0000E+00  0.0000E+00  0.0000E+00  0.0000E+00  0.0000E+00  0.0000E+00  0.0000E+00  0.0000E+00  0.0000E+00
    -51.725  0.0000E+00  0.0000E+00  0.0000E+00  0.0000E+00  0.0000E+00  0.0000E+00  0.0000E+00  0.0000E+00  0.0000E+00  0.0000E+00  0.0000E+00  0.0000E+00  0.0000E+00  0.0000E+00  0.0000E+00  0.0000E+00  0.0000E+00  0.0000E+00
    -51.518  0.0000E+00  0.0000E+00  0.0000E+00  0.0000E+00  0.0000E+00  0.0000E+00  0.0000E+00  0.0000E+00  0.0000E+00  0.0000E+00  0.0000E+00  0.0000E+00  0.0000E+00  0.0000E+00  0.0000E+00  0.0000E+00  0.0000E+00  0.0000E+00
    -51.311  0.0000E+00  0.0000E+00  0.0000E+00  0.0000E+00  0.0000E+00  0.0000E+00  0.0000E+00  0.0000E+00  0.0000E+00  0.0000E+00  0.0000E+00  0.0000E+00  0.0000E+00  0.0000E+00  0.0000E+00  0.0000E+00  0.0000E+00  0.0000E+00
    -51.104  0.0000E+00  0.0000E+00  0.0000E+00  0.0000E+00  0.0000E+00  0.0000E+00  0.0000E+00  0.0000E+00  0.0000E+00  0.0000E+00  0.0000E+00  0.0000E+00  0.0000E+00  0.0000E+00  0.0000E+00  0.0000E+00  0.0000E+00  0.0000E+00
    -50.897  0.0000E+00  0.0000E+00  0.0000E+00  0.0000E+00  0.0000E+00  0.0000E+00  0.0000E+00  0.0000E+00  0.0000E+00  0.0000E+00  0.0000E+00  0.0000E+00  0.0000E+00  0.0000E+00  0.0000E+00  0.0000E+00  0.0000E+00  0.0000E+00
    -50.690  0.0000E+00  0.0000E+00  0.0000E+00  0.0000E+00  0.0000E+00  0.0000E+00  0.0000E+00  0.0000E+00  0.0000E+00  0.0000E+00  0.0000E+00  0.0000E+00  0.0000E+00  0.0000E+00  0.0000E+00  0.0000E+00  0.0000E+00  0.0000E+00
    -50.483  0.0000E+00  0.0000E+00  0.0000E+00  0.0000E+00  0.0000E+00  0.0000E+00  0.0000E+00  0.0000E+00  0.0000E+00  0.0000E+00  0.0000E+00  0.0000E+00  0.0000E+00  0.0000E+00  0.0000E+00  0.0000E+00  0.0000E+00  0.0000E+00
    -50.276  0.0000E+00  0.0000E+00  0.0000E+00  0.0000E+00  0.0000E+00  0.0000E+00  0.0000E+00  0.0000E+00  0.0000E+00  0.0000E+00  0.0000E+00  0.0000E+00  0.0000E+00  0.0000E+00  0.0000E+00  0.0000E+00  0.0000E+00  0.0000E+00
    -50.069  0.0000E+00  0.0000E+00  0.0000E+00  0.0000E+00  0.0000E+00  0.0000E+00  0.0000E+00  0.0000E+00  0.0000E+00  0.0000E+00  0.0000E+00  0.0000E+00  0.0000E+00  0.0000E+00  0.0000E+00  0.0000E+00  0.0000E+00  0.0000E+00
    -49.862  0.2522E-03  0.2439E-03  0.3947E+00  0.5076E-01  0.2329E-02  0.2204E-01  0.3682E-01  0.4501E+00  0.3443E-05  0.4579E-05  0.5123E-07  0.1826E-06  0.1367E-03  0.1068E-03  0.1092E-05  0.5723E-04  0.2914E-03  0.2345E-03
    -49.655  0.1531E-03  0.1333E-03  0.1619E-01  0.6838E+00  0.2646E-01  0.1827E-02  0.5490E+00  0.2457E-01  0.3747E-05  0.2041E-05  0.2138E-06  0.3825E-07  0.6510E-04  0.8299E-04  0.5653E-04  0.2672E-05  0.3712E-03  0.3975E-03
    -49.448  0.3063E-03  0.2018E-03  0.4999E+01  0.2561E+01  0.1579E+01  0.1033E+02  0.3869E+01  0.3384E+01  0.1680E-04  0.1225E-04  0.4079E-05  0.8510E-05  0.6258E-04  0.4894E-04  0.4241E-04  0.1260E-04  0.1606E-03  0.8290E-04
    -49.241  0.2705E-03  0.1822E-03  0.6899E+01  0.3367E+01  0.4219E+01  0.2539E+01  0.4061E+01  0.3535E+01  0.8984E-04  0.4773E-04  0.2486E-04  0.2293E-04  0.9481E-04  0.6447E-04  0.2264E-04  0.3455E-04  0.8568E-04  0.9982E-04
    -49.035  0.2813E-04  0.2268E-04  0.9436E+00  0.4313E+00  0.3389E-01  0.1428E-01  0.7852E+00  0.2894E+00  0.8313E-05  0.1245E-04  0.3950E-06  0.4933E-06  0.9703E-05  0.1044E-04  0.5824E-05  0.7922E-06  0.5120E-04  0.4923E-04
    -48.828  0.0000E+00  0.0000E+00  0.0000E+00  0.0000E+00  0.0000E+00  0.0000E+00  0.0000E+00  0.0000E+00  0.0000E+00  0.0000E+00  0.0000E+00  0.0000E+00  0.0000E+00  0.0000E+00  0.0000E+00  0.0000E+00  0.0000E+00  0.0000E+00
    -48.621  0.0000E+00  0.0000E+00  0.0000E+00  0.0000E+00  0.0000E+00  0.0000E+00  0.0000E+00  0.0000E+00  0.0000E+00  0.0000E+00  0.0000E+00  0.0000E+00  0.0000E+00  0.0000E+00  0.0000E+00  0.0000E+00  0.0000E+00  0.0000E+00
    -48.414  0.0000E+00  0.0000E+00  0.0000E+00  0.0000E+00  0.0000E+00  0.0000E+00  0.0000E+00  0.0000E+00  0.0000E+00  0.0000E+00  0.0000E+00  0.0000E+00  0.0000E+00  0.0000E+00  0.0000E+00  0.0000E+00  0.0000E+00  0.0000E+00
    -48.207  0.0000E+00  0.0000E+00  0.0000E+00  0.0000E+00  0.0000E+00  0.0000E+00  0.0000E+00  0.0000E+00  0.0000E+00  0.0000E+00  0.0000E+00  0.0000E+00  0.0000E+00  0.0000E+00  0.0000E+00  0.0000E+00  0.0000E+00  0.0000E+00
    -48.000  0.0000E+00  0.0000E+00  0.0000E+00  0.0000E+00  0.0000E+00  0.0000E+00  0.0000E+00  0.0000E+00  0.0000E+00  0.0000E+00  0.0000E+00  0.0000E+00  0.0000E+00  0.0000E+00  0.0000E+00  0.0000E+00  0.0000E+00  0.0000E+00
    -47.793  0.0000E+00  0.0000E+00  0.0000E+00  0.0000E+00  0.0000E+00  0.0000E+00  0.0000E+00  0.0000E+00  0.0000E+00  0.0000E+00  0.0000E+00  0.0000E+00  0.0000E+00  0.0000E+00  0.0000E+00  0.0000E+00  0.0000E+00  0.0000E+00
    -47.586  0.0000E+00  0.0000E+00  0.0000E+00  0.0000E+00  0.0000E+00  0.0000E+00  0.0000E+00  0.0000E+00  0.0000E+00  0.0000E+00  0.0000E+00  0.0000E+00  0.0000E+00  0.0000E+00  0.0000E+00  0.0000E+00  0.0000E+00  0.0000E+00
    -47.379  0.0000E+00  0.0000E+00  0.0000E+00  0.0000E+00  0.0000E+00  0.0000E+00  0.0000E+00  0.0000E+00  0.0000E+00  0.0000E+00  0.0000E+00  0.0000E+00  0.0000E+00  0.0000E+00  0.0000E+00  0.0000E+00  0.0000E+00  0.0000E+00
    -47.172  0.0000E+00  0.0000E+00  0.0000E+00  0.0000E+00  0.0000E+00  0.0000E+00  0.0000E+00  0.0000E+00  0.0000E+00  0.0000E+00  0.0000E+00  0.0000E+00  0.0000E+00  0.0000E+00  0.0000E+00  0.0000E+00  0.0000E+00  0.0000E+00
    -46.965  0.0000E+00  0.0000E+00  0.0000E+00  0.0000E+00  0.0000E+00  0.0000E+00  0.0000E+00  0.0000E+00  0.0000E+00  0.0000E+00  0.0000E+00  0.0000E+00  0.0000E+00  0.0000E+00  0.0000E+00  0.0000E+00  0.0000E+00  0.0000E+00
    -46.758  0.0000E+00  0.0000E+00  0.0000E+00  0.0000E+00  0.0000E+00  0.0000E+00  0.0000E+00  0.0000E+00  0.0000E+00  0.0000E+00  0.0000E+00  0.0000E+00  0.0000E+00  0.0000E+00  0.0000E+00  0.0000E+00  0.0000E+00  0.0000E+00
    -46.551  0.0000E+00  0.0000E+00  0.0000E+00  0.0000E+00  0.0000E+00  0.0000E+00  0.0000E+00  0.0000E+00  0.0000E+00  0.0000E+00  0.0000E+00  0.0000E+00  0.0000E+00  0.0000E+00  0.0000E+00  0.0000E+00  0.0000E+00  0.0000E+00
    -46.344  0.0000E+00  0.0000E+00  0.0000E+00  0.0000E+00  0.0000E+00  0.0000E+00  0.0000E+00  0.0000E+00  0.0000E+00  0.0000E+00  0.0000E+00  0.0000E+00  0.0000E+00  0.0000E+00  0.0000E+00  0.0000E+00  0.0000E+00  0.0000E+00
    -46.138  0.0000E+00  0.0000E+00  0.0000E+00  0.0000E+00  0.0000E+00  0.0000E+00  0.0000E+00  0.0000E+00  0.0000E+00  0.0000E+00  0.0000E+00  0.0000E+00  0.0000E+00  0.0000E+00  0.0000E+00  0.0000E+00  0.0000E+00  0.0000E+00
    -45.931  0.0000E+00  0.0000E+00  0.0000E+00  0.0000E+00  0.0000E+00  0.0000E+00  0.0000E+00  0.0000E+00  0.0000E+00  0.0000E+00  0.0000E+00  0.0000E+00  0.0000E+00  0.0000E+00  0.0000E+00  0.0000E+00  0.0000E+00  0.0000E+00
    -45.724  0.0000E+00  0.0000E+00  0.0000E+00  0.0000E+00  0.0000E+00  0.0000E+00  0.0000E+00  0.0000E+00  0.0000E+00  0.0000E+00  0.0000E+00  0.0000E+00  0.0000E+00  0.0000E+00  0.0000E+00  0.0000E+00  0.0000E+00  0.0000E+00
    -45.517  0.0000E+00  0.0000E+00  0.0000E+00  0.0000E+00  0.0000E+00  0.0000E+00  0.0000E+00  0.0000E+00  0.0000E+00  0.0000E+00  0.0000E+00  0.0000E+00  0.0000E+00  0.0000E+00  0.0000E+00  0.0000E+00  0.0000E+00  0.0000E+00
    -45.310  0.0000E+00  0.0000E+00  0.0000E+00  0.0000E+00  0.0000E+00  0.0000E+00  0.0000E+00  0.0000E+00  0.0000E+00  0.0000E+00  0.0000E+00  0.0000E+00  0.0000E+00  0.0000E+00  0.0000E+00  0.0000E+00  0.0000E+00  0.0000E+00
    -45.103  0.0000E+00  0.0000E+00  0.0000E+00  0.0000E+00  0.0000E+00  0.0000E+00  0.0000E+00  0.0000E+00  0.0000E+00  0.0000E+00  0.0000E+00  0.0000E+00  0.0000E+00  0.0000E+00  0.0000E+00  0.0000E+00  0.0000E+00  0.0000E+00
    -44.896  0.0000E+00  0.0000E+00  0.0000E+00  0.0000E+00  0.0000E+00  0.0000E+00  0.0000E+00  0.0000E+00  0.0000E+00  0.0000E+00  0.0000E+00  0.0000E+00  0.0000E+00  0.0000E+00  0.0000E+00  0.0000E+00  0.0000E+00  0.0000E+00
    -44.689  0.0000E+00  0.0000E+00  0.0000E+00  0.0000E+00  0.0000E+00  0.0000E+00  0.0000E+00  0.0000E+00  0.0000E+00  0.0000E+00  0.0000E+00  0.0000E+00  0.0000E+00  0.0000E+00  0.0000E+00  0.0000E+00  0.0000E+00  0.0000E+00
    -44.482  0.0000E+00  0.0000E+00  0.0000E+00  0.0000E+00  0.0000E+00  0.0000E+00  0.0000E+00  0.0000E+00  0.0000E+00  0.0000E+00  0.0000E+00  0.0000E+00  0.0000E+00  0.0000E+00  0.0000E+00  0.0000E+00  0.0000E+00  0.0000E+00
    -44.275  0.0000E+00  0.0000E+00  0.0000E+00  0.0000E+00  0.0000E+00  0.0000E+00  0.0000E+00  0.0000E+00  0.0000E+00  0.0000E+00  0.0000E+00  0.0000E+00  0.0000E+00  0.0000E+00  0.0000E+00  0.0000E+00  0.0000E+00  0.0000E+00
    -44.068  0.0000E+00  0.0000E+00  0.0000E+00  0.0000E+00  0.0000E+00  0.0000E+00  0.0000E+00  0.0000E+00  0.0000E+00  0.0000E+00  0.0000E+00  0.0000E+00  0.0000E+00  0.0000E+00  0.0000E+00  0.0000E+00  0.0000E+00  0.0000E+00
    -43.861  0.0000E+00  0.0000E+00  0.0000E+00  0.0000E+00  0.0000E+00  0.0000E+00  0.0000E+00  0.0000E+00  0.0000E+00  0.0000E+00  0.0000E+00  0.0000E+00  0.0000E+00  0.0000E+00  0.0000E+00  0.0000E+00  0.0000E+00  0.0000E+00
    -43.654  0.0000E+00  0.0000E+00  0.0000E+00  0.0000E+00  0.0000E+00  0.0000E+00  0.0000E+00  0.0000E+00  0.0000E+00  0.0000E+00  0.0000E+00  0.0000E+00  0.0000E+00  0.0000E+00  0.0000E+00  0.0000E+00  0.0000E+00  0.0000E+00
    -43.448  0.0000E+00  0.0000E+00  0.0000E+00  0.0000E+00  0.0000E+00  0.0000E+00  0.0000E+00  0.0000E+00  0.0000E+00  0.0000E+00  0.0000E+00  0.0000E+00  0.0000E+00  0.0000E+00  0.0000E+00  0.0000E+00  0.0000E+00  0.0000E+00
    -43.241  0.0000E+00  0.0000E+00  0.0000E+00  0.0000E+00  0.0000E+00  0.0000E+00  0.0000E+00  0.0000E+00  0.0000E+00  0.0000E+00  0.0000E+00  0.0000E+00  0.0000E+00  0.0000E+00  0.0000E+00  0.0000E+00  0.0000E+00  0.0000E+00
    -43.034  0.0000E+00  0.0000E+00  0.0000E+00  0.0000E+00  0.0000E+00  0.0000E+00  0.0000E+00  0.0000E+00  0.0000E+00  0.0000E+00  0.0000E+00  0.0000E+00  0.0000E+00  0.0000E+00  0.0000E+00  0.0000E+00  0.0000E+00  0.0000E+00
    -42.827  0.0000E+00  0.0000E+00  0.0000E+00  0.0000E+00  0.0000E+00  0.0000E+00  0.0000E+00  0.0000E+00  0.0000E+00  0.0000E+00  0.0000E+00  0.0000E+00  0.0000E+00  0.0000E+00  0.0000E+00  0.0000E+00  0.0000E+00  0.0000E+00
    -42.620  0.0000E+00  0.0000E+00  0.0000E+00  0.0000E+00  0.0000E+00  0.0000E+00  0.0000E+00  0.0000E+00  0.0000E+00  0.0000E+00  0.0000E+00  0.0000E+00  0.0000E+00  0.0000E+00  0.0000E+00  0.0000E+00  0.0000E+00  0.0000E+00
    -42.413  0.0000E+00  0.0000E+00  0.0000E+00  0.0000E+00  0.0000E+00  0.0000E+00  0.0000E+00  0.0000E+00  0.0000E+00  0.0000E+00  0.0000E+00  0.0000E+00  0.0000E+00  0.0000E+00  0.0000E+00  0.0000E+00  0.0000E+00  0.0000E+00