  16  16   1   0
  0.2081250E+02  0.7597520E-09  0.7597520E-09  0.5865829E-09  0.5000000E-15
  1.000000000000000E-004
  CAR 
 unknown system                          
     10.63745950    -54.65159779  301      3.21809872      1.00000000
    -54.652  0.0000E+00  0.0000E+00  0.0000E+00  0.0000E+00
    -54.434  0.0000E+00  0.0000E+00  0.0000E+00  0.0000E+00
    -54.216  0.0000E+00  0.0000E+00  0.0000E+00  0.0000E+00
    -53.999  0.0000E+00  0.0000E+00  0.0000E+00  0.0000E+00
    -53.781  0.0000E+00  0.0000E+00  0.0000E+00  0.0000E+00
    -53.563  0.0000E+00  0.0000E+00  0.0000E+00  0.0000E+00
    -53.346  0.0000E+00  0.0000E+00  0.0000E+00  0.0000E+00
    -53.128  0.0000E+00  0.0000E+00  0.0000E+00  0.0000E+00
    -52.911  0.0000E+00  0.0000E+00  0.0000E+00  0.0000E+00
    -52.693  0.0000E+00  0.0000E+00  0.0000E+00  0.0000E+00
    -52.475  0.0000E+00  0.0000E+00  0.0000E+00  0.0000E+00
    -52.258  0.0000E+00  0.0000E+00  0.0000E+00  0.0000E+00
    -52.040  0.0000E+00  0.0000E+00  0.0000E+00  0.0000E+00
    -51.822  0.4922E-05  0.4922E-05  0.1071E-05  0.1071E-05
    -51.605  0.1825E+00  0.1825E+00  0.3971E-01  0.3971E-01
    -51.387  0.2752E+00  0.2752E+00  0.9961E-01  0.9961E-01
    -51.170  0.9824E-01  0.9824E-01  0.1210E+00  0.1210E+00
    -50.952  0.1024E-02  0.1024E-02  0.1212E+00  0.1212E+00
    -50.734  0.0000E+00  0.0000E+00  0.1212E+00  0.1212E+00
    -50.517  0.0000E+00  0.0000E+00  0.1212E+00  0.1212E+00
    -50.299  0.0000E+00  0.0000E+00  0.1212E+00  0.1212E+00
    -50.081  0.0000E+00  0.0000E+00  0.1212E+00  0.1212E+00
    -49.864  0.0000E+00  0.0000E+00  0.1212E+00  0.1212E+00
    -49.646  0.0000E+00  0.0000E+00  0.1212E+00  0.1212E+00
    -49.428  0.0000E+00  0.0000E+00  0.1212E+00  0.1212E+00
    -49.211  0.0000E+00  0.0000E+00  0.1212E+00  0.1212E+00
    -48.993  0.6061E-11  0.6061E-11  0.1212E+00  0.1212E+00
    -48.776  0.6764E-01  0.6764E-01  0.1359E+00  0.1359E+00
    -48.558  0.2134E+00  0.2134E+00  0.1824E+00  0.1824E+00
    -48.340  0.2706E+00  0.2706E+00  0.2413E+00  0.2413E+00
    -48.123  0.5341E-02  0.5341E-02  0.2424E+00  0.2424E+00
    -47.905  0.0000E+00  0.0000E+00  0.2424E+00  0.2424E+00
    -47.687  0.0000E+00  0.0000E+00  0.2424E+00  0.2424E+00
    -47.470  0.0000E+00  0.0000E+00  0.2424E+00  0.2424E+00
    -47.252  0.0000E+00  0.0000E+00  0.2424E+00  0.2424E+00
    -47.035  0.0000E+00  0.0000E+00  0.2424E+00  0.2424E+00
    -46.817  0.0000E+00  0.0000E+00  0.2424E+00  0.2424E+00
    -46.599  0.0000E+00  0.0000E+00  0.2424E+00  0.2424E+00
    -46.382  0.0000E+00  0.0000E+00  0.2424E+00  0.2424E+00
    -46.164  0.0000E+00  0.0000E+00  0.2424E+00  0.2424E+00
    -45.946  0.0000E+00  0.0000E+00  0.2424E+00  0.2424E+00
    -45.729  0.0000E+00  0.0000E+00  0.2424E+00  0.2424E+00
    -45.511  0.0000E+00  0.0000E+00  0.2424E+00  0.2424E+00
    -45.293  0.0000E+00  0.0000E+00  0.2424E+00  0.2424E+00
    -45.076  0.0000E+00  0.0000E+00  0.2424E+00  0.2424E+00
    -44.858  0.0000E+00  0.0000E+00  0.2424E+00  0.2424E+00
    -44.641  0.0000E+00  0.0000E+00  0.2424E+00  0.2424E+00
    -44.423  0.0000E+00  0.0000E+00  0.2424E+00  0.2424E+00
    -44.205  0.0000E+00  0.0000E+00  0.2424E+00  0.2424E+00
    -43.988  0.0000E+00  0.0000E+00  0.2424E+00  0.2424E+00
    -43.770  0.0000E+00  0.0000E+00  0.2424E+00  0.2424E+00
    -43.552  0.0000E+00  0.0000E+00  0.2424E+00  0.2424E+00
    -43.335  0.0000E+00  0.0000E+00  0.2424E+00  0.2424E+00
    -43.117  0.0000E+00  0.0000E+00  0.2424E+00  0.2424E+00
    -42.900  0.0000E+00  0.0000E+00  0.2424E+00  0.2424E+00
    -42.682  0.0000E+00  0.0000E+00  0.2424E+00  0.2424E+00
    -42.464  0.0000E+00  0.0000E+00  0.2424E+00  0.2424E+00
    -42.247  0.0000E+00  0.0000E+00  0.2424E+00  0.2424E+00
    -42.029  0.0000E+00  0.0000E+00  0.2424E+00  0.2424E+00
    -41.811  0.0000E+00  0.0000E+00  0.2424E+00  0.2424E+00
    -41.594  0.0000E+00  0.0000E+00  0.2424E+00  0.2424E+00
    -41.376  0.0000E+00  0.0000E+00  0.2424E+00  0.2424E+00
    -41.159  0.0000E+00  0.0000E+00  0.2424E+00  0.2424E+00
    -40.941  0.0000E+00  0.0000E+00  0.2424E+00  0.2424E+00
    -40.723  0.0000E+00  0.0000E+00  0.2424E+00  0.2424E+00
    -40.506  0.0000E+00  0.0000E+00  0.2424E+00  0.2424E+00
    -40.288  0.0000E+00  0.0000E+00  0.2424E+00  0.2424E+00
    -40.070  0.0000E+00  0.0000E+00  0.2424E+00  0.2424E+00
    -39.853  0.0000E+00  0.0000E+00  0.2424E+00  0.2424E+00
    -39.635  0.0000E+00  0.0000E+00  0.2424E+00  0.2424E+00
    -39.417  0.0000E+00  0.0000E+00  0.2424E+00  0.2424E+00
    -39.200  0.0000E+00  0.0000E+00  0.2424E+00  0.2424E+00
    -38.982  0.0000E+00  0.0000E+00  0.2424E+00  0.2424E+00
    -38.765  0.0000E+00  0.0000E+00  0.2424E+00  0.2424E+00
    -38.547  0.0000E+00  0.0000E+00  0.2424E+00  0.2424E+00
    -38.329  0.0000E+00  0.0000E+00  0.2424E+00  0.2424E+00
    -38.112  0.0000E+00  0.0000E+00  0.2424E+00  0.2424E+00
    -37.894  0.0000E+00  0.0000E+00  0.2424E+00  0.2424E+00
    -37.676  0.0000E+00  0.0000E+00  0.2424E+00  0.2424E+00
    -37.459  0.0000E+00  0.0000E+00  0.2424E+00  0.2424E+00
    -37.241  0.0000E+00  0.0000E+00  0.2424E+00  0.2424E+00
    -37.024  0.0000E+00  0.0000E+00  0.2424E+00  0.2424E+00
    -36.806  0.0000E+00  0.0000E+00  0.2424E+00  0.2424E+00
    -36.588  0.0000E+00  0.0000E+00  0.2424E+00  0.2424E+00
    -36.371  0.0000E+00  0.0000E+00  0.2424E+00  0.2424E+00
    -36.153  0.0000E+00  0.0000E+00  0.2424E+00  0.2424E+00
    -35.935  0.0000E+00  0.0000E+00  0.2424E+00  0.2424E+00
    -35.718  0.0000E+00  0.0000E+00  0.2424E+00  0.2424E+00
    -35.500  0.0000E+00  0.0000E+00  0.2424E+00  0.2424E+00
    -35.283  0.0000E+00  0.0000E+00  0.2424E+00  0.2424E+00
    -35.065  0.0000E+00  0.0000E+00  0.2424E+00  0.2424E+00
    -34.847  0.0000E+00  0.0000E+00  0.2424E+00  0.2424E+00
    -34.630  0.0000E+00  0.0000E+00  0.2424E+00  0.2424E+00
    -34.412  0.0000E+00  0.0000E+00  0.2424E+00  0.2424E+00
    -34.194  0.0000E+00  0.0000E+00  0.2424E+00  0.2424E+00
    -33.977  0.0000E+00  0.0000E+00  0.2424E+00  0.2424E+00
    -33.759  0.0000E+00  0.0000E+00  0.2424E+00  0.2424E+00
    -33.541  0.0000E+00  0.0000E+00  0.2424E+00  0.2424E+00
    -33.324  0.0000E+00  0.0000E+00  0.2424E+00  0.2424E+00
    -33.106  0.0000E+00  0.0000E+00  0.2424E+00  0.2424E+00
    -32.889  0.0000E+00  0.0000E+00  0.2424E+00  0.2424E+00
    -32.671  0.0000E+00  0.0000E+00  0.2424E+00  0.2424E+00
    -32.453  0.0000E+00  0.0000E+00  0.2424E+00  0.2424E+00
    -32.236  0.0000E+00  0.0000E+00  0.2424E+00  0.2424E+00
    -32.018  0.0000E+00  0.0000E+00  0.2424E+00  0.2424E+00
    -31.800  0.0000E+00  0.0000E+00  0.2424E+00  0.2424E+00
    -31.583  0.0000E+00  0.0000E+00  0.2424E+00  0.2424E+00
    -31.365  0.0000E+00  0.0000E+00  0.2424E+00  0.2424E+00
    -31.148  0.0000E+00  0.0000E+00  0.2424E+00  0.2424E+00
    -30.930  0.0000E+00  0.0000E+00  0.2424E+00  0.2424E+00
    -30.712  0.0000E+00  0.0000E+00  0.2424E+00  0.2424E+00
    -30.495  0.0000E+00  0.0000E+00  0.2424E+00  0.2424E+00
    -30.277  0.0000E+00  0.0000E+00  0.2424E+00  0.2424E+00
    -30.059  0.0000E+00  0.0000E+00  0.2424E+00  0.2424E+00
    -29.842  0.0000E+00  0.0000E+00  0.2424E+00  0.2424E+00
    -29.624  0.0000E+00  0.0000E+00  0.2424E+00  0.2424E+00
    -29.406  0.0000E+00  0.0000E+00  0.2424E+00  0.2424E+00
    -29.189  0.0000E+00  0.0000E+00  0.2424E+00  0.2424E+00
    -28.971  0.0000E+00  0.0000E+00  0.2424E+00  0.2424E+00
    -28.754  0.0000E+00  0.0000E+00  0.2424E+00  0.2424E+00
    -28.536  0.0000E+00  0.0000E+00  0.2424E+00  0.2424E+00
    -28.318  0.0000E+00  0.0000E+00  0.2424E+00  0.2424E+00
    -28.101  0.0000E+00  0.0000E+00  0.2424E+00  0.2424E+00
    -27.883  0.0000E+00  0.0000E+00  0.2424E+00  0.2424E+00
    -27.665  0.0000E+00  0.0000E+00  0.2424E+00  0.2424E+00
    -27.448  0.0000E+00  0.0000E+00  0.2424E+00  0.2424E+00
    -27.230  0.0000E+00  0.0000E+00  0.2424E+00  0.2424E+00
    -27.013  0.0000E+00  0.0000E+00  0.2424E+00  0.2424E+00
    -26.795  0.0000E+00  0.0000E+00  0.2424E+00  0.2424E+00
    -26.577  0.0000E+00  0.0000E+00  0.2424E+00  0.2424E+00
    -26.360  0.0000E+00  0.0000E+00  0.2424E+00  0.2424E+00
    -26.142  0.0000E+00  0.0000E+00  0.2424E+00  0.2424E+00
    -25.924  0.0000E+00  0.0000E+00  0.2424E+00  0.2424E+00
    -25.707  0.0000E+00  0.0000E+00  0.2424E+00  0.2424E+00
    -25.489  0.0000E+00  0.0000E+00  0.2424E+00  0.2424E+00
    -25.272  0.0000E+00  0.0000E+00  0.2424E+00  0.2424E+00
    -25.054  0.0000E+00  0.0000E+00  0.2424E+00  0.2424E+00
    -24.836  0.0000E+00  0.0000E+00  0.2424E+00  0.2424E+00
    -24.619  0.0000E+00  0.0000E+00  0.2424E+00  0.2424E+00
    -24.401  0.0000E+00  0.0000E+00  0.2424E+00  0.2424E+00
    -24.183  0.0000E+00  0.0000E+00  0.2424E+00  0.2424E+00
    -23.966  0.0000E+00  0.0000E+00  0.2424E+00  0.2424E+00
    -23.748  0.0000E+00  0.0000E+00  0.2424E+00  0.2424E+00
    -23.530  0.0000E+00  0.0000E+00  0.2424E+00  0.2424E+00
    -23.313  0.0000E+00  0.0000E+00  0.2424E+00  0.2424E+00
    -23.095  0.0000E+00  0.0000E+00  0.2424E+00  0.2424E+00
    -22.878  0.0000E+00  0.0000E+00  0.2424E+00  0.2424E+00
    -22.660  0.0000E+00  0.0000E+00  0.2424E+00  0.2424E+00
    -22.442  0.0000E+00  0.0000E+00  0.2424E+00  0.2424E+00
    -22.225  0.0000E+00  0.0000E+00  0.2424E+00  0.2424E+00
    -22.007  0.0000E+00  0.0000E+00  0.2424E+00  0.2424E+00
    -21.789  0.0000E+00  0.0000E+00  0.2424E+00  0.2424E+00
    -21.572  0.0000E+00  0.0000E+00  0.2424E+00  0.2424E+00
    -21.354  0.0000E+00  0.0000E+00  0.2424E+00  0.2424E+00
    -21.137  0.0000E+00  0.0000E+00  0.2424E+00  0.2424E+00
    -20.919  0.0000E+00  0.0000E+00  0.2424E+00  0.2424E+00
    -20.701  0.0000E+00  0.0000E+00  0.2424E+00  0.2424E+00
    -20.484  0.0000E+00  0.0000E+00  0.2424E+00  0.2424E+00
    -20.266  0.0000E+00  0.0000E+00  0.2424E+00  0.2424E+00
    -20.048  0.0000E+00  0.0000E+00  0.2424E+00  0.2424E+00
    -19.831  0.0000E+00  0.0000E+00  0.2424E+00  0.2424E+00
    -19.613  0.0000E+00  0.0000E+00  0.2424E+00  0.2424E+00
    -19.396  0.0000E+00  0.0000E+00  0.2424E+00  0.2424E+00
    -19.178  0.0000E+00  0.0000E+00  0.2424E+00  0.2424E+00
    -18.960  0.0000E+00  0.0000E+00  0.2424E+00  0.2424E+00
    -18.743  0.0000E+00  0.0000E+00  0.2424E+00  0.2424E+00
    -18.525  0.0000E+00  0.0000E+00  0.2424E+00  0.2424E+00
    -18.307  0.0000E+00  0.0000E+00  0.2424E+00  0.2424E+00
    -18.090  0.0000E+00  0.0000E+00  0.2424E+00  0.2424E+00
    -17.872  0.0000E+00  0.0000E+00  0.2424E+00  0.2424E+00
    -17.654  0.0000E+00  0.0000E+00  0.2424E+00  0.2424E+00
    -17.437  0.0000E+00  0.0000E+00  0.2424E+00  0.2424E+00
    -17.219  0.0000E+00  0.0000E+00  0.2424E+00  0.2424E+00
    -17.002  0.0000E+00  0.0000E+00  0.2424E+00  0.2424E+00
    -16.784  0.0000E+00  0.0000E+00  0.2424E+00  0.2424E+00
    -16.566  0.0000E+00  0.0000E+00  0.2424E+00  0.2424E+00
    -16.349  0.0000E+00  0.0000E+00  0.2424E+00  0.2424E+00
    -16.131  0.0000E+00  0.0000E+00  0.2424E+00  0.2424E+00
    -15.913  0.0000E+00  0.0000E+00  0.2424E+00  0.2424E+00
    -15.696  0.0000E+00  0.0000E+00  0.2424E+00  0.2424E+00
    -15.478  0.0000E+00  0.0000E+00  0.2424E+00  0.2424E+00
    -15.261  0.0000E+00  0.0000E+00  0.2424E+00  0.2424E+00
    -15.043  0.0000E+00  0.0000E+00  0.2424E+00  0.2424E+00
    -14.825  0.0000E+00  0.0000E+00  0.2424E+00  0.2424E+00
    -14.608  0.0000E+00  0.0000E+00  0.2424E+00  0.2424E+00
    -14.390  0.0000E+00  0.0000E+00  0.2424E+00  0.2424E+00
    -14.172  0.0000E+00  0.0000E+00  0.2424E+00  0.2424E+00
    -13.955  0.0000E+00  0.0000E+00  0.2424E+00  0.2424E+00
    -13.737  0.0000E+00  0.0000E+00  0.2424E+00  0.2424E+00
    -13.519  0.0000E+00  0.0000E+00  0.2424E+00  0.2424E+00
    -13.302  0.0000E+00  0.0000E+00  0.2424E+00  0.2424E+00
    -13.084  0.0000E+00  0.0000E+00  0.2424E+00  0.2424E+00
    -12.867  0.0000E+00  0.0000E+00  0.2424E+00  0.2424E+00
    -12.649  0.0000E+00  0.0000E+00  0.2424E+00  0.2424E+00
    -12.431  0.0000E+00  0.0000E+00  0.2424E+00  0.2424E+00
    -12.214  0.0000E+00  0.0000E+00  0.2424E+00  0.2424E+00
    -11.996  0.0000E+00  0.0000E+00  0.2424E+00  0.2424E+00
    -11.778  0.0000E+00  0.0000E+00  0.2424E+00  0.2424E+00
    -11.561  0.0000E+00  0.0000E+00  0.2424E+00  0.2424E+00
    -11.343  0.0000E+00  0.0000E+00  0.2424E+00  0.2424E+00
    -11.126  0.0000E+00  0.0000E+00  0.2424E+00  0.2424E+00
    -10.908  0.3414E-09  0.3414E-09  0.2424E+00  0.2424E+00
    -10.690  0.1465E-02  0.1465E-02  0.2427E+00  0.2427E+00
    -10.473  0.1272E-01  0.1272E-01  0.2455E+00  0.2455E+00
    -10.255  0.2334E-01  0.2334E-01  0.2506E+00  0.2506E+00
    -10.037  0.3618E-01  0.3618E-01  0.2585E+00  0.2585E+00
     -9.820  0.6557E-01  0.6557E-01  0.2727E+00  0.2727E+00
     -9.602  0.1068E+00  0.1068E+00  0.2960E+00  0.2960E+00
     -9.385  0.1052E+00  0.1052E+00  0.3189E+00  0.3189E+00
     -9.167  0.1994E-01  0.1994E-01  0.3232E+00  0.3232E+00
     -8.949  0.1612E-03  0.1612E-03  0.3232E+00  0.3232E+00
     -8.732  0.0000E+00  0.0000E+00  0.3232E+00  0.3232E+00
     -8.514  0.0000E+00  0.0000E+00  0.3232E+00  0.3232E+00
     -8.296  0.0000E+00  0.0000E+00  0.3232E+00  0.3232E+00
     -8.079  0.0000E+00  0.0000E+00  0.3232E+00  0.3232E+00
     -7.861  0.0000E+00  0.0000E+00  0.3232E+00  0.3232E+00
     -7.643  0.0000E+00  0.0000E+00  0.3232E+00  0.3232E+00
     -7.426  0.0000E+00  0.0000E+00  0.3232E+00  0.3232E+00
     -7.208  0.0000E+00  0.0000E+00  0.3232E+00  0.3232E+00
     -6.991  0.0000E+00  0.0000E+00  0.3232E+00  0.3232E+00
     -6.773  0.0000E+00  0.0000E+00  0.3232E+00  0.3232E+00
     -6.555  0.0000E+00  0.0000E+00  0.3232E+00  0.3232E+00
     -6.338  0.0000E+00  0.0000E+00  0.3232E+00  0.3232E+00
     -6.120  0.0000E+00  0.0000E+00  0.3232E+00  0.3232E+00
     -5.902  0.0000E+00  0.0000E+00  0.3232E+00  0.3232E+00
     -5.685  0.0000E+00  0.0000E+00  0.3232E+00  0.3232E+00
     -5.467  0.0000E+00  0.0000E+00  0.3232E+00  0.3232E+00
     -5.250  0.0000E+00  0.0000E+00  0.3232E+00  0.3232E+00
     -5.032  0.0000E+00  0.0000E+00  0.3232E+00  0.3232E+00
     -4.814  0.0000E+00  0.0000E+00  0.3232E+00  0.3232E+00
     -4.597  0.0000E+00  0.0000E+00  0.3232E+00  0.3232E+00
     -4.379  0.0000E+00  0.0000E+00  0.3232E+00  0.3232E+00
     -4.161  0.0000E+00  0.0000E+00  0.3232E+00  0.3232E+00
     -3.944  0.0000E+00  0.0000E+00  0.3232E+00  0.3232E+00
     -3.726  0.0000E+00  0.0000E+00  0.3232E+00  0.3232E+00
     -3.509  0.0000E+00  0.0000E+00  0.3232E+00  0.3232E+00
     -3.291  0.0000E+00  0.0000E+00  0.3232E+00  0.3232E+00
     -3.073  0.0000E+00  0.0000E+00  0.3232E+00  0.3232E+00
     -2.856  0.1164E-10  0.1164E-10  0.3232E+00  0.3232E+00
     -2.638  0.2833E-03  0.2833E-03  0.3233E+00  0.3233E+00
     -2.420  0.4255E-02  0.4255E-02  0.3242E+00  0.3242E+00
     -2.203  0.1365E-01  0.1365E-01  0.3272E+00  0.3272E+00
     -1.985  0.5281E-01  0.5281E-01  0.3387E+00  0.3387E+00
     -1.767  0.8616E-01  0.8616E-01  0.3574E+00  0.3574E+00
     -1.550  0.6485E-01  0.6485E-01  0.3715E+00  0.3715E+00
     -1.332  0.5576E-01  0.5576E-01  0.3837E+00  0.3837E+00
     -1.115  0.8348E-01  0.8348E-01  0.4019E+00  0.4019E+00
     -0.897  0.8194E-01  0.8194E-01  0.4197E+00  0.4197E+00
     -0.679  0.8911E-01  0.8911E-01  0.4391E+00  0.4391E+00
     -0.462  0.1246E+00  0.1246E+00  0.4662E+00  0.4662E+00
     -0.244  0.9815E-01  0.9815E-01  0.4876E+00  0.4876E+00
     -0.026  0.1098E+00  0.1098E+00  0.5114E+00  0.5114E+00
      0.191  0.1062E+00  0.1062E+00  0.5346E+00  0.5346E+00
      0.409  0.7289E-01  0.7289E-01  0.5504E+00  0.5504E+00
      0.626  0.7988E-01  0.7988E-01  0.5678E+00  0.5678E+00
      0.844  0.1120E+00  0.1120E+00  0.5922E+00  0.5922E+00
      1.062  0.1146E+00  0.1146E+00  0.6171E+00  0.6171E+00
      1.279  0.2022E+00  0.2022E+00  0.6611E+00  0.6611E+00
      1.497  0.1651E+00  0.1651E+00  0.6971E+00  0.6971E+00
      1.715  0.8964E-01  0.8964E-01  0.7166E+00  0.7166E+00
      1.932  0.8351E-01  0.8351E-01  0.7347E+00  0.7347E+00
      2.150  0.6033E-01  0.6033E-01  0.7479E+00  0.7479E+00
      2.368  0.6092E-01  0.6092E-01  0.7611E+00  0.7611E+00
      2.585  0.4210E-01  0.4210E-01  0.7703E+00  0.7703E+00
      2.803  0.4036E-01  0.4036E-01  0.7791E+00  0.7791E+00
      3.020  0.5572E-01  0.5572E-01  0.7912E+00  0.7912E+00
      3.238  0.8408E-01  0.8408E-01  0.8095E+00  0.8095E+00
      3.456  0.6786E-01  0.6786E-01  0.8243E+00  0.8243E+00
      3.673  0.1486E+00  0.1486E+00  0.8566E+00  0.8566E+00
      3.891  0.1064E+00  0.1064E+00  0.8798E+00  0.8798E+00
      4.109  0.1137E+00  0.1137E+00  0.9045E+00  0.9045E+00
      4.326  0.9082E-01  0.9082E-01  0.9243E+00  0.9243E+00
      4.544  0.9656E-01  0.9656E-01  0.9453E+00  0.9453E+00
      4.761  0.6595E-01  0.6595E-01  0.9596E+00  0.9596E+00
      4.979  0.1056E-01  0.1056E-01  0.9619E+00  0.9619E+00
      5.197  0.1233E-01  0.1233E-01  0.9646E+00  0.9646E+00
      5.414  0.1368E-01  0.1368E-01  0.9676E+00  0.9676E+00
      5.632  0.9454E-02  0.9454E-02  0.9697E+00  0.9697E+00
      5.850  0.4039E-02  0.4039E-02  0.9705E+00  0.9705E+00
      6.067  0.6276E-02  0.6276E-02  0.9719E+00  0.9719E+00
      6.285  0.6655E-02  0.6655E-02  0.9733E+00  0.9733E+00
      6.502  0.1221E-01  0.1221E-01  0.9760E+00  0.9760E+00
      6.720  0.2299E-01  0.2299E-01  0.9810E+00  0.9810E+00
      6.938  0.3018E-01  0.3018E-01  0.9876E+00  0.9876E+00
      7.155  0.4635E-01  0.4632E-01  0.9977E+00  0.9977E+00
      7.373  0.3831E-01  0.3833E-01  0.1006E+01  0.1006E+01
      7.591  0.1550E-01  0.1557E-01  0.1009E+01  0.1009E+01
      7.808  0.3364E-02  0.3309E-02  0.1010E+01  0.1010E+01
      8.026  0.3849E-07  0.5456E-08  0.1010E+01  0.1010E+01
      8.244  0.0000E+00  0.0000E+00  0.1010E+01  0.1010E+01
      8.461  0.0000E+00  0.0000E+00  0.1010E+01  0.1010E+01
      8.679  0.0000E+00  0.0000E+00  0.1010E+01  0.1010E+01
      8.896  0.0000E+00  0.0000E+00  0.1010E+01  0.1010E+01
      9.114  0.0000E+00  0.0000E+00  0.1010E+01  0.1010E+01
      9.332  0.0000E+00  0.0000E+00  0.1010E+01  0.1010E+01
      9.549  0.0000E+00  0.0000E+00  0.1010E+01  0.1010E+01
      9.767  0.0000E+00  0.0000E+00  0.1010E+01  0.1010E+01
      9.985  0.0000E+00  0.0000E+00  0.1010E+01  0.1010E+01
     10.202  0.0000E+00  0.0000E+00  0.1010E+01  0.1010E+01
     10.420  0.0000E+00  0.0000E+00  0.1010E+01  0.1010E+01
     10.637  0.0000E+00  0.0000E+00  0.1010E+01  0.1010E+01
     10.63745950    -54.65159779  301      3.21809872      1.00000000
    -54.652  0.0000E+00  0.0000E+00  0.0000E+00  0.0000E+00  0.0000E+00  0.0000E+00  0.0000E+00  0.0000E+00  0.0000E+00  0.0000E+00  0.0000E+00  0.0000E+00  0.0000E+00  0.0000E+00  0.0000E+00  0.0000E+00  0.0000E+00  0.0000E+00
    -54.434  0.0000E+00  0.0000E+00  0.0000E+00  0.0000E+00  0.0000E+00  0.0000E+00  0.0000E+00  0.0000E+00  0.0000E+00  0.0000E+00  0.0000E+00  0.0000E+00  0.0000E+00  0.0000E+00  0.0000E+00  0.0000E+00  0.0000E+00  0.0000E+00
    -54.216  0.0000E+00  0.0000E+00  0.0000E+00  0.0000E+00  0.0000E+00  0.0000E+00  0.0000E+00  0.0000E+00  0.0000E+00  0.0000E+00  0.0000E+00  0.0000E+00  0.0000E+00  0.0000E+00  0.0000E+00  0.0000E+00  0.0000E+00  0.0000E+00
    -53.999  0.0000E+00  0.0000E+00  0.0000E+00  0.0000E+00  0.0000E+00  0.0000E+00  0.0000E+00  0.0000E+00  0.0000E+00  0.0000E+00  0.0000E+00  0.0000E+00  0.0000E+00  0.0000E+00  0.0000E+00  0.0000E+00  0.0000E+00  0.0000E+00
    -53.781  0.0000E+00  0.0000E+00  0.0000E+00  0.0000E+00  0.0000E+00  0.0000E+00  0.0000E+00  0.0000E+00  0.0000E+00  0.0000E+00  0.0000E+00  0.0000E+00  0.0000E+00  0.0000E+00  0.0000E+00  0.0000E+00  0.0000E+00  0.0000E+00
    -53.563  0.0000E+00  0.0000E+00  0.0000E+00  0.0000E+00  0.0000E+00  0.0000E+00  0.0000E+00  0.0000E+00  0.0000E+00  0.0000E+00  0.0000E+00  0.0000E+00  0.0000E+00  0.0000E+00  0.0000E+00  0.0000E+00  0.0000E+00  0.0000E+00
    -53.346  0.0000E+00  0.0000E+00  0.0000E+00  0.0000E+00  0.0000E+00  0.0000E+00  0.0000E+00  0.0000E+00  0.0000E+00  0.0000E+00  0.0000E+00  0.0000E+00  0.0000E+00  0.0000E+00  0.0000E+00  0.0000E+00  0.0000E+00  0.0000E+00
    -53.128  0.0000E+00  0.0000E+00  0.0000E+00  0.0000E+00  0.0000E+00  0.0000E+00  0.0000E+00  0.0000E+00  0.0000E+00  0.0000E+00  0.0000E+00  0.0000E+00  0.0000E+00  0.0000E+00  0.0000E+00  0.0000E+00  0.0000E+00  0.0000E+00
    -52.911  0.0000E+00  0.0000E+00  0.0000E+00  0.0000E+00  0.0000E+00  0.0000E+00  0.0000E+00  0.0000E+00  0.0000E+00  0.0000E+00  0.0000E+00  0.0000E+00  0.0000E+00  0.0000E+00  0.0000E+00  0.0000E+00  0.0000E+00  0.0000E+00
    -52.693  0.0000E+00  0.0000E+00  0.0000E+00  0.0000E+00  0.0000E+00  0.0000E+00  0.0000E+00  0.0000E+00  0.0000E+00  0.0000E+00  0.0000E+00  0.0000E+00  0.0000E+00  0.0000E+00  0.0000E+00  0.0000E+00  0.0000E+00  0.0000E+00
    -52.475  0.0000E+00  0.0000E+00  0.0000E+00  0.0000E+00  0.0000E+00  0.0000E+00  0.0000E+00  0.0000E+00  0.0000E+00  0.0000E+00  0.0000E+00  0.0000E+00  0.0000E+00  0.0000E+00  0.0000E+00  0.0000E+00  0.0000E+00  0.0000E+00
    -52.258  0.0000E+00  0.0000E+00  0.0000E+00  0.0000E+00  0.0000E+00  0.0000E+00  0.0000E+00  0.0000E+00  0.0000E+00  0.0000E+00  0.0000E+00  0.0000E+00  0.0000E+00  0.0000E+00  0.0000E+00  0.0000E+00  0.0000E+00  0.0000E+00
    -52.040  0.0000E+00  0.0000E+00  0.0000E+00  0.0000E+00  0.0000E+00  0.0000E+00  0.0000E+00  0.0000E+00  0.0000E+00  0.0000E+00  0.0000E+00  0.0000E+00  0.0000E+00  0.0000E+00  0.0000E+00  0.0000E+00  0.0000E+00  0.0000E+00
    -51.822  0.4032E-15  0.2965E-10  0.4028E-04  0.1435E-08  0.8102E-04  0.9238E-10  0.1701E-14  0.6260E-12  0.5303E-10  0.5297E-13  0.3045E-15  0.4938E-11  0.4343E-15  0.8573E-11  0.1030E-09  0.2113E-14  0.9035E-15  0.3339E-10
    -51.605  0.2177E-07  0.1177E-05  0.1567E+01  0.5657E-04  0.2924E+01  0.3391E-05  0.5716E-02  0.2739E-07  0.2146E-05  0.2320E-08  0.1253E-10  0.1793E-06  0.9914E-08  0.3436E-06  0.4013E-05  0.8218E-10  0.2972E-07  0.1299E-05
    -51.387  0.5265E-04  0.1755E-05  0.2969E+01  0.9814E-04  0.1632E+01  0.1453E-06  0.2183E+01  0.8361E-06  0.4122E-05  0.6435E-07  0.2629E-09  0.1125E-07  0.2396E-04  0.6617E-06  0.2252E-05  0.9501E-10  0.7188E-04  0.2097E-05
    -51.170  0.6261E-04  0.2537E-07  0.4093E-01  0.1383E-05  0.2096E-01  0.1735E-08  0.2363E+01  0.4506E-06  0.5473E-07  0.3936E-07  0.3365E-09  0.1133E-09  0.2848E-04  0.9553E-08  0.2850E-07  0.9806E-10  0.8542E-04  0.2898E-07
    -50.952  0.1138E-06  0.2839E-11  0.1639E-12  0.9659E-10  0.1272E-13  0.1036E-11  0.2529E-01  0.3716E-08  0.2800E-13  0.3392E-09  0.7585E-12  0.1182E-12  0.5182E-07  0.1055E-11  0.2063E-13  0.1293E-11  0.1553E-06  0.1865E-12
    -50.734  0.0000E+00  0.0000E+00  0.0000E+00  0.0000E+00  0.0000E+00  0.0000E+00  0.0000E+00  0.0000E+00  0.0000E+00  0.0000E+00  0.0000E+00  0.0000E+00  0.0000E+00  0.0000E+00  0.0000E+00  0.0000E+00  0.0000E+00  0.0000E+00
    -50.517  0.0000E+00  0.0000E+00  0.0000E+00  0.0000E+00  0.0000E+00  0.0000E+00  0.0000E+00  0.0000E+00  0.0000E+00  0.0000E+00  0.0000E+00  0.0000E+00  0.0000E+00  0.0000E+00  0.0000E+00  0.0000E+00  0.0000E+00  0.0000E+00
    -50.299  0.0000E+00  0.0000E+00  0.0000E+00  0.0000E+00  0.0000E+00  0.0000E+00  0.0000E+00  0.0000E+00  0.0000E+00  0.0000E+00  0.0000E+00  0.0000E+00  0.0000E+00  0.0000E+00  0.0000E+00  0.0000E+00  0.0000E+00  0.0000E+00
    -50.081  0.0000E+00  0.0000E+00  0.0000E+00  0.0000E+00  0.0000E+00  0.0000E+00  0.0000E+00  0.0000E+00  0.0000E+00  0.0000E+00  0.0000E+00  0.0000E+00  0.0000E+00  0.0000E+00  0.0000E+00  0.0000E+00  0.0000E+00  0.0000E+00
    -49.864  0.0000E+00  0.0000E+00  0.0000E+00  0.0000E+00  0.0000E+00  0.0000E+00  0.0000E+00  0.0000E+00  0.0000E+00  0.0000E+00  0.0000E+00  0.0000E+00  0.0000E+00  0.0000E+00  0.0000E+00  0.0000E+00  0.0000E+00  0.0000E+00
    -49.646  0.0000E+00  0.0000E+00  0.0000E+00  0.0000E+00  0.0000E+00  0.0000E+00  0.0000E+00  0.0000E+00  0.0000E+00  0.0000E+00  0.0000E+00  0.0000E+00  0.0000E+00  0.0000E+00  0.0000E+00  0.0000E+00  0.0000E+00  0.0000E+00
    -49.428  0.0000E+00  0.0000E+00  0.0000E+00  0.0000E+00  0.0000E+00  0.0000E+00  0.0000E+00  0.0000E+00  0.0000E+00  0.0000E+00  0.0000E+00  0.0000E+00  0.0000E+00  0.0000E+00  0.0000E+00  0.0000E+00  0.0000E+00  0.0000E+00
    -49.211  0.0000E+00  0.0000E+00  0.0000E+00  0.0000E+00  0.0000E+00  0.0000E+00  0.0000E+00  0.0000E+00  0.0000E+00  0.0000E+00  0.0000E+00  0.0000E+00  0.0000E+00  0.0000E+00  0.0000E+00  0.0000E+00  0.0000E+00  0.0000E+00
    -48.993  0.7643E-16  0.1496E-19  0.3644E-14  0.7149E-10  0.6168E-16  0.7789E-10  0.2362E-17  0.7705E-14  0.5188E-19  0.1150E-15  0.8596E-17  0.9013E-21  0.2257E-16  0.7234E-20  0.1509E-20  0.1257E-15  0.8413E-16  0.2039E-19
    -48.776  0.8302E-06  0.2733E-06  0.3999E-04  0.7779E+00  0.6658E-06  0.8390E+00  0.5325E-07  0.5025E-01  0.2863E-08  0.1290E-05  0.9208E-07  0.1607E-10  0.2455E-06  0.1249E-06  0.1855E-10  0.1403E-05  0.9098E-06  0.3751E-06
    -48.558  0.1522E-05  0.7330E-04  0.7354E-04  0.1426E+01  0.1218E-05  0.1533E+01  0.1104E-05  0.2297E+01  0.9318E-07  0.2385E-05  0.1680E-06  0.1631E-08  0.4502E-06  0.3354E-04  0.9843E-10  0.2589E-05  0.1665E-05  0.1007E-03
    -48.340  0.1947E-05  0.6750E-04  0.7861E-04  0.2319E+01  0.6611E-06  0.2154E+01  0.5631E-06  0.2205E+01  0.5385E-07  0.3937E-05  0.3390E-07  0.1568E-08  0.7573E-06  0.3087E-04  0.1058E-09  0.3685E-05  0.2312E-05  0.9273E-04
    -48.123  0.4615E-07  0.1274E-06  0.1873E-05  0.5523E-01  0.1573E-07  0.5111E-01  0.5852E-08  0.2546E-01  0.5394E-09  0.9235E-07  0.8020E-09  0.3432E-11  0.1796E-07  0.5829E-07  0.1741E-11  0.8628E-07  0.5495E-07  0.1750E-06
    -47.905  0.0000E+00  0.0000E+00  0.0000E+00  0.0000E+00  0.0000E+00  0.0000E+00  0.0000E+00  0.0000E+00  0.0000E+00  0.0000E+00  0.0000E+00  0.0000E+00  0.0000E+00  0.0000E+00  0.0000E+00  0.0000E+00  0.0000E+00  0.0000E+00
    -47.687  0.0000E+00  0.0000E+00  0.0000E+00  0.0000E+00  0.0000E+00  0.0000E+00  0.0000E+00  0.0000E+00  0.0000E+00  0.0000E+00  0.0000E+00  0.0000E+00  0.0000E+00  0.0000E+00  0.0000E+00  0.0000E+00  0.0000E+00  0.0000E+00
    -47.470  0.0000E+00  0.0000E+00  0.0000E+00  0.0000E+00  0.0000E+00  0.0000E+00  0.0000E+00  0.0000E+00  0.0000E+00  0.0000E+00  0.0000E+00  0.0000E+00  0.0000E+00  0.0000E+00  0.0000E+00  0.0000E+00  0.0000E+00  0.0000E+00
    -47.252  0.0000E+00  0.0000E+00  0.0000E+00  0.0000E+00  0.0000E+00  0.0000E+00  0.0000E+00  0.0000E+00  0.0000E+00  0.0000E+00  0.0000E+00  0.0000E+00  0.0000E+00  0.0000E+00  0.0000E+00  0.0000E+00  0.0000E+00  0.0000E+00
    -47.035  0.0000E+00  0.0000E+00  0.0000E+00  0.0000E+00  0.0000E+00  0.0000E+00  0.0000E+00  0.0000E+00  0.0000E+00  0.0000E+00  0.0000E+00  0.0000E+00  0.0000E+00  0.0000E+00  0.0000E+00  0.0000E+00  0.0000E+00  0.0000E+00
    -46.817  0.0000E+00  0.0000E+00  0.0000E+00  0.0000E+00  0.0000E+00  0.0000E+00  0.0000E+00  0.0000E+00  0.0000E+00  0.0000E+00  0.0000E+00  0.0000E+00  0.0000E+00  0.0000E+00  0.0000E+00  0.0000E+00  0.0000E+00  0.0000E+00
    -46.599  0.0000E+00  0.0000E+00  0.0000E+00  0.0000E+00  0.0000E+00  0.0000E+00  0.0000E+00  0.0000E+00  0.0000E+00  0.0000E+00  0.0000E+00  0.0000E+00  0.0000E+00  0.0000E+00  0.0000E+00  0.0000E+00  0.0000E+00  0.0000E+00
    -46.382  0.0000E+00  0.0000E+00  0.0000E+00  0.0000E+00  0.0000E+00  0.0000E+00  0.0000E+00  0.0000E+00  0.0000E+00  0.0000E+00  0.0000E+00  0.0000E+00  0.0000E+00  0.0000E+00  0.0000E+00  0.0000E+00  0.0000E+00  0.0000E+00
    -46.164  0.0000E+00  0.0000E+00  0.0000E+00  0.0000E+00  0.0000E+00  0.0000E+00  0.0000E+00  0.0000E+00  0.0000E+00  0.0000E+00  0.0000E+00  0.0000E+00  0.0000E+00  0.0000E+00  0.0000E+00  0.0000E+00  0.0000E+00  0.0000E+00
    -45.946  0.0000E+00  0.0000E+00  0.0000E+00  0.0000E+00  0.0000E+00  0.0000E+00  0.0000E+00  0.0000E+00  0.0000E+00  0.0000E+00  0.0000E+00  0.0000E+00  0.0000E+00  0.0000E+00  0.0000E+00  0.0000E+00  0.0000E+00  0.0000E+00
    -45.729  0.0000E+00  0.0000E+00  0.0000E+00  0.0000E+00  0.0000E+00  0.0000E+00  0.0000E+00  0.0000E+00  0.0000E+00  0.0000E+00  0.0000E+00  0.0000E+00  0.0000E+00  0.0000E+00  0.0000E+00  0.0000E+00  0.0000E+00  0.0000E+00
    -45.511  0.0000E+00  0.0000E+00  0.0000E+00  0.0000E+00  0.0000E+00  0.0000E+00  0.0000E+00  0.0000E+00  0.0000E+00  0.0000E+00  0.0000E+00  0.0000E+00  0.0000E+00  0.0000E+00  0.0000E+00  0.0000E+00  0.0000E+00  0.0000E+00
    -45.293  0.0000E+00  0.0000E+00  0.0000E+00  0.0000E+00  0.0000E+00  0.0000E+00  0.0000E+00  0.0000E+00  0.0000E+00  0.0000E+00  0.0000E+00  0.0000E+00  0.0000E+00  0.0000E+00  0.0000E+00  0.0000E+00  0.0000E+00  0.0000E+00
    -45.076  0.0000E+00  0.0000E+00  0.0000E+00  0.0000E+00  0.0000E+00  0.0000E+00  0.0000E+00  0.0000E+00  0.0000E+00  0.0000E+00  0.0000E+00  0.0000E+00  0.0000E+00  0.0000E+00  0.0000E+00  0.0000E+00  0.0000E+00  0.0000E+00
    -44.858  0.0000E+00  0.0000E+00  0.0000E+00  0.0000E+00  0.0000E+00  0.0000E+00  0.0000E+00  0.0000E+00  0.0000E+00  0.0000E+00  0.0000E+00  0.0000E+00  0.0000E+00  0.0000E+00  0.0000E+00  0.0000E+00  0.0000E+00  0.0000E+00
    -44.641  0.0000E+00  0.0000E+00  0.0000E+00  0.0000E+00  0.0000E+00  0.0000E+00  0.0000E+00  0.0000E+00  0.0000E+00  0.0000E+00  0.0000E+00  0.0000E+00  0.0000E+00  0.0000E+00  0.0000E+00  0.0000E+00  0.0000E+00  0.0000E+00
    -44.423  0.0000E+00  0.0000E+00  0.0000E+00  0.0000E+00  0.0000E+00  0.0000E+00  0.0000E+00  0.0000E+00  0.0000E+00  0.0000E+00  0.0000E+00  0.0000E+00  0.0000E+00  0.0000E+00  0.0000E+00  0.0000E+00  0.0000E+00  0.0000E+00
    -44.205  0.0000E+00  0.0000E+00  0.0000E+00  0.0000E+00  0.0000E+00  0.0000E+00  0.0000E+00  0.0000E+00  0.0000E+00  0.0000E+00  0.0000E+00  0.0000E+00  0.0000E+00  0.0000E+00  0.0000E+00  0.0000E+00  0.0000E+00  0.0000E+00
    -43.988  0.0000E+00  0.0000E+00  0.0000E+00  0.0000E+00  0.0000E+00  0.0000E+00  0.0000E+00  0.0000E+00  0.0000E+00  0.0000E+00  0.0000E+00  0.0000E+00  0.0000E+00  0.0000E+00  0.0000E+00  0.0000E+00  0.0000E+00  0.0000E+00
    -43.770  0.0000E+00  0.0000E+00  0.0000E+00  0.0000E+00  0.0000E+00  0.0000E+00  0.0000E+00  0.0000E+00  0.0000E+00  0.0000E+00  0.0000E+00  0.0000E+00  0.0000E+00  0.0000E+00  0.0000E+00  0.0000E+00  0.0000E+00  0.0000E+00