       N       E                     dE             d eps       ncg     rms          rms(c)
DAV:   1     0.199224100622E+04    0.19922E+04   -0.88865E+04 35780   0.192E+03
DAV:   2     0.121198318787E+03   -0.18710E+04   -0.18183E+04 32000   0.560E+02
DAV:   3    -0.857328564538E+02   -0.20693E+03   -0.18458E+03 46140   0.184E+02
DAV:   4    -0.100359263671E+03   -0.14626E+02   -0.14309E+02 47460   0.510E+01
DAV:   5    -0.100693444765E+03   -0.33418E+00   -0.33341E+00 44420   0.813E+00    0.281E+01
RMM:   6    -0.113946608887E+03   -0.13253E+02   -0.18156E+02 32087   0.868E+01    0.554E+01
RMM:   7    -0.910201287604E+02    0.22926E+02   -0.46677E+01 32024   0.525E+01    0.122E+01
RMM:   8    -0.916315742411E+02   -0.61145E+00   -0.31269E+00 41277   0.507E+00    0.590E+00
RMM:   9    -0.917343551384E+02   -0.10278E+00   -0.96641E-01 44155   0.300E+00    0.313E+00
RMM:  10    -0.917657099663E+02   -0.31355E-01   -0.32092E-01 46061   0.166E+00    0.192E+00
RMM:  11    -0.917626225783E+02    0.30874E-02   -0.83800E-02 40545   0.127E+00    0.797E-01
RMM:  12    -0.917751489360E+02   -0.12526E-01   -0.30306E-02 42848   0.638E-01    0.464E-01
RMM:  13    -0.917748618596E+02    0.28708E-03   -0.78942E-03 40123   0.290E-01    0.172E-01
RMM:  14    -0.917748025590E+02    0.59301E-04   -0.23564E-03 32154   0.163E-01    0.985E-02
RMM:  15    -0.917748492976E+02   -0.46739E-04   -0.44675E-04 20854   0.988E-02
   1 F= -.98131667E+02 E0= -.98122902E+02  d E =-.981317E+02  mag=    -0.0000
       N       E                     dE             d eps       ncg     rms          rms(c)
DAV:   1    -0.917755380467E+02   -0.73549E-03   -0.28183E-02 36480   0.584E-01    0.185E-01
RMM:   2    -0.917751677724E+02    0.37027E-03   -0.15798E-03 27593   0.240E-01    0.905E-02
RMM:   3    -0.917751339095E+02    0.33863E-04   -0.78259E-04 25455   0.153E-01
   2 F= -.98131984E+02 E0= -.98123138E+02  d E =-.316922E-03  mag=     0.0000
       N       E                     dE             d eps       ncg     rms          rms(c)
DAV:   1    -0.917758669199E+02   -0.69915E-03   -0.63665E-02 37320   0.896E-01    0.263E-01
RMM:   2    -0.917751388823E+02    0.72804E-03   -0.35351E-03 31687   0.351E-01    0.129E-01
RMM:   3    -0.917749635379E+02    0.17534E-03   -0.13759E-03 27825   0.172E-01
   3 F= -.98131863E+02 E0= -.98122893E+02  d E =-.196277E-03  mag=     0.0000
