       N       E                     dE             d eps       ncg     rms          rms(c)
DAV:   1    -0.109974537758E+02   -0.10997E+02   -0.48270E+03  7168   0.146E+02
DAV:   2    -0.149953116776E+02   -0.39979E+01   -0.39758E+01 10880   0.939E+00
DAV:   3    -0.149970376455E+02   -0.17260E-02   -0.17139E-02  7168   0.273E-01
DAV:   4    -0.149970384925E+02   -0.84694E-06   -0.83624E-06 14272   0.491E-03
DAV:   5    -0.149970384917E+02    0.75602E-09   -0.31989E-12  7168   0.374E-06    0.283E+00
DAV:   6    -0.149422049206E+02    0.54834E-01   -0.55187E-03 11136   0.887E-02    0.164E+00
DAV:   7    -0.149028829885E+02    0.39322E-01   -0.15870E-02 11392   0.141E-01    0.286E-01
DAV:   8    -0.149027837867E+02    0.99202E-04   -0.43495E-05 10048   0.870E-03    0.728E-02
DAV:   9    -0.149027861498E+02   -0.23631E-05   -0.36571E-06 12864   0.239E-03    0.146E-03
DAV:  10    -0.149027855696E+02    0.58022E-06   -0.53282E-09  7936   0.145E-04
   1 F= -.14902786E+02 E0= -.14902786E+02  d E =0.000000E+00
