 vasp.6.4.3 19Mar24 (build Mar 26 2024 14:05:37) complex                        
  
 executed on             LinuxIFC date 2025.01.03  05:10:12
 running   64 mpi-ranks, on    1 nodes
 distrk:  each k-point on   64 cores,    1 groups
 distr:  one band on NCORE=   1 cores,   64 groups


--------------------------------------------------------------------------------------------------------


 INCAR:
   ALGO = Normal
   EDIFF = 1e-06
   EDIFFG = -0.01
   ENCUT = 520
   GGA = Pe
   IBRION = -1
   ISIF = 4
   ISMEAR = -5
   LCHARG = False
   LREAL = False
   LWAVE = False
   NELM = 200
   NSW = 0
   PREC = Accurate
   SIGMA = 0.2

 POTCAR:    PAW_PBE Al 04Jan2001                  
 -----------------------------------------------------------------------------
|                                                                             |
|           W    W    AA    RRRRR   N    N  II  N    N   GGGG   !!!           |
|           W    W   A  A   R    R  NN   N  II  NN   N  G    G  !!!           |
|           W    W  A    A  R    R  N N  N  II  N N  N  G       !!!           |
|           W WW W  AAAAAA  RRRRR   N  N N  II  N  N N  G  GGG   !            |
|           WW  WW  A    A  R   R   N   NN  II  N   NN  G    G                |
|           W    W  A    A  R    R  N    N  II  N    N   GGGG   !!!           |
|                                                                             |
|     For optimal performance we recommend to set                             |
|       NCORE = 2 up to number-of-cores-per-socket                            |
|     NCORE specifies how many cores store one orbital (NPAR=cpu/NCORE).      |
|     This setting can greatly improve the performance of VASP for DFT.       |
|     The default, NCORE=1 might be grossly inefficient on modern             |
|     multi-core architectures or massively parallel machines. Do your        |
|     own testing! More info at https://www.vasp.at/wiki/index.php/NCORE      |
|     Unfortunately you need to use the default for GW and RPA                |
|     calculations (for HF NCORE is supported but not extensively tested      |
|     yet).                                                                   |
|                                                                             |
 -----------------------------------------------------------------------------

 POTCAR:    PAW_PBE Al 04Jan2001                  
   SHA256 =  17880443556af62b473fe41b62a467bd001ad55d2cabe504a3f22e34d4e9db96 Al/POTCAR             
   COPYR  = (c) Copyright 04Jan2001 Georg Kresse                                                    
   COPYR  = This file is part of the software VASP. Any use, copying, and all other rights are regul
   COPYR  = If you do not have a valid VASP license, you may not use, copy or distribute this file. 
   VRHFIN =Al: s2p1                                                                                 
   LEXCH  = PE                                                                                      
   EATOM  =    53.5387 eV,    3.9350 Ry                                                             
                                                                                                    
   TITEL  = PAW_PBE Al 04Jan2001                                                                    
   LULTRA =        F    use ultrasoft PP ?                                                          
   IUNSCR =        1    unscreen: 0-lin 1-nonlin 2-no                                               
   RPACOR =    1.500    partial core radius                                                         
   POMASS =   26.981; ZVAL   =    3.000    mass and valenz                                          
   RCORE  =    1.900    outmost cutoff radius                                                       
   RWIGS  =    2.650; RWIGS  =    1.402    wigner-seitz radius (au A)                               
   ENMAX  =  240.300; ENMIN  =  180.225 eV                                                          
   ICORE  =        2    local potential                                                             
   LCOR   =        T    correct aug charges                                                         
   LPAW   =        T    paw PP                                                                      
   EAUG   =  291.052                                                                                
   DEXC   =    0.000                                                                                
   RMAX   =    1.939    core radius for proj-oper                                                   
   RAUG   =    1.300    factor for augmentation sphere                                              
   RDEP   =    1.966    radius for radial grids                                                     
   RDEPT  =    1.856    core radius for aug-charge                                                  
                                                                                                    
   Atomic configuration                                                                             
    6 entries                                                                                       
     n  l   j            E        occ.                                                              
     1  0  0.50     -1511.1048   2.0000                                                             
     2  0  0.50      -108.1629   2.0000                                                             
     2  1  1.50       -69.6402   6.0000                                                             
     3  0  0.50        -7.7528   2.0000                                                             
     3  1  1.50        -2.7121   1.0000                                                             
     3  2  2.50        -2.7212   0.0000                                                             
   Description                                                                                      
     l       E           TYP  RCUT    TYP  RCUT                                                     
     0     -7.7528455     23  1.900                                                                 
     0     -3.3096929     23  1.900                                                                 
     1     -2.7120682     23  1.900                                                                 
     1     13.6058260     23  1.900                                                                 
     2     -2.7211652      7  1.900                                                                 
  local pseudopotential read in
  partial core-charges read in
  partial kinetic energy density read in
  atomic valenz-charges read in
  non local Contribution for L=           0  read in
    real space projection operators read in
  non local Contribution for L=           0  read in
    real space projection operators read in
  non local Contribution for L=           1  read in
    real space projection operators read in
  non local Contribution for L=           1  read in
    real space projection operators read in
    PAW grid and wavefunctions read in
 
   number of l-projection  operators is LMAX  =           4
   number of lm-projection operators is LMMAX =           8
 
  PAW_PBE Al 04Jan2001                  :
 energy of atom  1       EATOM=  -53.5387
 kinetic energy error for atom=    0.0002 (will be added to EATOM!!)
 
 
 POSCAR: Al4
  positions in direct lattice
  velocities in cartesian coordinates


 exchange-correlation table for PE
   RHO(1)=    0.500       N(1)  =     2000
   RHO(2)=  100.500       N(2)  =     4000
 


--------------------------------------------------------------------------------------------------------


 ion  position               nearest neighbor table
   1  0.000  0.000  0.000-   2 2.80   3 2.80   4 2.80   2 2.80   3 2.80   2 2.80   4 2.80   2 2.80
                             3 2.80   4 2.80   3 2.80   4 2.80
   2  0.000  0.500  0.500-   1 2.80   3 2.80   4 2.80   1 2.80   4 2.80   1 2.80   3 2.80   1 2.80
                             3 2.80   4 2.80   4 2.80   3 2.80
   3  0.500  0.000  0.500-   1 2.80   2 2.80   4 2.80   1 2.80   4 2.80   2 2.80   4 2.80   4 2.80
                             1 2.80   2 2.80   1 2.80   2 2.80
   4  0.500  0.500  0.000-   1 2.80   2 2.80   3 2.80   2 2.80   3 2.80   1 2.80   3 2.80   3 2.80
                             1 2.80   2 2.80   2 2.80   1 2.80
 
  LATTYP: Found a simple cubic cell.
 ALAT       =     3.9578916097
  
  Lattice vectors:
  
 A1 = (   3.9578916097,   0.0000000000,   0.0000000000)
 A2 = (   0.0000000000,   3.9578916097,   0.0000000000)
 A3 = (   0.0000000000,   0.0000000000,   3.9578916097)


Analysis of symmetry for initial positions (statically):
=====================================================================
 Subroutine PRICEL returns following result:
 
  LATTYP: Found a face centered cubic cell.
 ALAT       =     3.9578916097
  
  Lattice vectors:
  
 A1 = (   1.9789458048,  -1.9789458048,   0.0000000000)
 A2 = (   1.9789458048,   0.0000000000,   1.9789458048)
 A3 = (  -0.0000000000,  -1.9789458048,   1.9789458048)
 
   4 primitive cells build up your supercell.
 

 Routine SETGRP: Setting up the symmetry group for a 
 simple cubic supercell.


 Subroutine GETGRP returns: Found 48 space group operations
 (whereof 48 operations were pure point group operations)
 out of a pool of 48 trial point group operations.


The static configuration has the point symmetry O_h .


Analysis of symmetry for dynamics (positions and initial velocities):
=====================================================================
 Subroutine PRICEL returns following result:
 
  LATTYP: Found a face centered cubic cell.
 ALAT       =     3.9578916097
  
  Lattice vectors:
  
 A1 = (   1.9789458048,  -1.9789458048,   0.0000000000)
 A2 = (   1.9789458048,   0.0000000000,   1.9789458048)
 A3 = (  -0.0000000000,  -1.9789458048,   1.9789458048)
 
   4 primitive cells build up your supercell.
 

 Routine SETGRP: Setting up the symmetry group for a 
 simple cubic supercell.


 Subroutine GETGRP returns: Found 48 space group operations
 (whereof 48 operations were pure point group operations)
 out of a pool of 48 trial point group operations.


The dynamic configuration has the point symmetry O_h .


 Subroutine INISYM returns: Found 48 space group operations
 (whereof 48 operations are pure point group operations),
 and found     4 'primitive' translations


----------------------------------------------------------------------------------------

                                     Primitive cell                                     

  volume of cell :      15.5000

  direct lattice vectors                    reciprocal lattice vectors
     1.978945805 -1.978945805  0.000000000     0.252659774 -0.252659774 -0.252659774
     1.978945805  0.000000000  1.978945805     0.252659774  0.252659774  0.252659774
    -0.000000000 -1.978945805  1.978945805    -0.252659774 -0.252659774  0.252659774

  length of vectors
     2.798651996  2.798651996  2.798651996     0.437619566  0.437619566  0.437619566

  position of ions in fractional coordinates (direct lattice)
     0.000000000  0.000000000  0.000000000

  ion indices of the primitive-cell ions
   primitive index   ion index
                 1           1

----------------------------------------------------------------------------------------

 
 
 KPOINTS: pymatgen with grid density = 4001 / numb

Automatic generation of k-mesh.
 Grid dimensions read from file:
 generate k-points for:   10   10   10

 Generating k-lattice:

  Cartesian coordinates                     Fractional coordinates (reciprocal lattice)
     0.025265977 -0.000000000  0.000000000     0.100000000  0.000000000  0.000000000
     0.000000000  0.025265977  0.000000000     0.000000000  0.100000000  0.000000000
    -0.000000000 -0.000000000  0.025265977     0.000000000 -0.000000000  0.100000000

  Length of vectors
     0.025265977  0.025265977  0.025265977

  Shift w.r.t. Gamma in fractional coordinates (k-lattice)
     0.000000000  0.000000000  0.000000000

 TETIRR: Found    492 inequivalent tetrahedra from     6000
 
 Subroutine IBZKPT returns following result:
 ===========================================
 
 Found     56 irreducible k-points:
 
 Following reciprocal coordinates:
            Coordinates               Weight
  0.000000  0.000000  0.000000      1.000000
  0.100000  0.000000  0.000000      6.000000
  0.200000  0.000000  0.000000      6.000000
  0.300000  0.000000  0.000000      6.000000
  0.400000  0.000000  0.000000      6.000000
  0.500000  0.000000  0.000000      3.000000
  0.100000  0.100000  0.000000     12.000000
  0.200000  0.100000  0.000000     24.000000
  0.300000  0.100000  0.000000     24.000000
  0.400000  0.100000  0.000000     24.000000
  0.500000  0.100000  0.000000     12.000000
  0.200000  0.200000  0.000000     12.000000
  0.300000  0.200000  0.000000     24.000000
  0.400000  0.200000  0.000000     24.000000
  0.500000  0.200000  0.000000     12.000000
  0.300000  0.300000  0.000000     12.000000
  0.400000  0.300000  0.000000     24.000000
  0.500000  0.300000  0.000000     12.000000
  0.400000  0.400000  0.000000     12.000000
  0.500000  0.400000  0.000000     12.000000
  0.500000  0.500000  0.000000      3.000000
  0.100000  0.100000  0.100000      8.000000
  0.200000  0.100000  0.100000     24.000000
  0.300000  0.100000  0.100000     24.000000
  0.400000  0.100000  0.100000     24.000000
  0.500000  0.100000  0.100000     12.000000
  0.200000  0.200000  0.100000     24.000000
  0.300000  0.200000  0.100000     48.000000
  0.400000  0.200000  0.100000     48.000000
  0.500000  0.200000  0.100000     24.000000
  0.300000  0.300000  0.100000     24.000000
  0.400000  0.300000  0.100000     48.000000
  0.500000  0.300000  0.100000     24.000000
  0.400000  0.400000  0.100000     24.000000
  0.500000  0.400000  0.100000     24.000000
  0.500000  0.500000  0.100000      6.000000
  0.200000  0.200000  0.200000      8.000000
  0.300000  0.200000  0.200000     24.000000
  0.400000  0.200000  0.200000     24.000000
  0.500000  0.200000  0.200000     12.000000
  0.300000  0.300000  0.200000     24.000000
  0.400000  0.300000  0.200000     48.000000
  0.500000  0.300000  0.200000     24.000000
  0.400000  0.400000  0.200000     24.000000
  0.500000  0.400000  0.200000     24.000000
  0.500000  0.500000  0.200000      6.000000
  0.300000  0.300000  0.300000      8.000000
  0.400000  0.300000  0.300000     24.000000
  0.500000  0.300000  0.300000     12.000000
  0.400000  0.400000  0.300000     24.000000
  0.500000  0.400000  0.300000     24.000000
  0.500000  0.500000  0.300000      6.000000
  0.400000  0.400000  0.400000      8.000000
  0.500000  0.400000  0.400000     12.000000
  0.500000  0.500000  0.400000      6.000000
  0.500000  0.500000  0.500000      1.000000
 
 Following cartesian coordinates:
            Coordinates               Weight
  0.000000  0.000000  0.000000      1.000000
  0.025266  0.000000  0.000000      6.000000
  0.050532  0.000000  0.000000      6.000000
  0.075798  0.000000  0.000000      6.000000
  0.101064  0.000000  0.000000      6.000000
  0.126330  0.000000  0.000000      3.000000
  0.025266  0.025266  0.000000     12.000000
  0.050532  0.025266  0.000000     24.000000
  0.075798  0.025266  0.000000     24.000000
  0.101064  0.025266  0.000000     24.000000
  0.126330  0.025266  0.000000     12.000000
  0.050532  0.050532  0.000000     12.000000
  0.075798  0.050532  0.000000     24.000000
  0.101064  0.050532  0.000000     24.000000
  0.126330  0.050532  0.000000     12.000000
  0.075798  0.075798  0.000000     12.000000
  0.101064  0.075798  0.000000     24.000000
  0.126330  0.075798  0.000000     12.000000
  0.101064  0.101064  0.000000     12.000000
  0.126330  0.101064  0.000000     12.000000
  0.126330  0.126330  0.000000      3.000000
  0.025266  0.025266  0.025266      8.000000
  0.050532  0.025266  0.025266     24.000000
  0.075798  0.025266  0.025266     24.000000
  0.101064  0.025266  0.025266     24.000000
  0.126330  0.025266  0.025266     12.000000
  0.050532  0.050532  0.025266     24.000000
  0.075798  0.050532  0.025266     48.000000
  0.101064  0.050532  0.025266     48.000000
  0.126330  0.050532  0.025266     24.000000
  0.075798  0.075798  0.025266     24.000000
  0.101064  0.075798  0.025266     48.000000
  0.126330  0.075798  0.025266     24.000000
  0.101064  0.101064  0.025266     24.000000
  0.126330  0.101064  0.025266     24.000000
  0.126330  0.126330  0.025266      6.000000
  0.050532  0.050532  0.050532      8.000000
  0.075798  0.050532  0.050532     24.000000
  0.101064  0.050532  0.050532     24.000000
  0.126330  0.050532  0.050532     12.000000
  0.075798  0.075798  0.050532     24.000000
  0.101064  0.075798  0.050532     48.000000
  0.126330  0.075798  0.050532     24.000000
  0.101064  0.101064  0.050532     24.000000
  0.126330  0.101064  0.050532     24.000000
  0.126330  0.126330  0.050532      6.000000
  0.075798  0.075798  0.075798      8.000000
  0.101064  0.075798  0.075798     24.000000
  0.126330  0.075798  0.075798     12.000000
  0.101064  0.101064  0.075798     24.000000
  0.126330  0.101064  0.075798     24.000000
  0.126330  0.126330  0.075798      6.000000
  0.101064  0.101064  0.101064      8.000000
  0.126330  0.101064  0.101064     12.000000
  0.126330  0.126330  0.101064      6.000000
  0.126330  0.126330  0.126330      1.000000
 


--------------------------------------------------------------------------------------------------------




 Dimension of arrays:
   k-points           NKPTS =     56   k-points in BZ     NKDIM =     56   number of bands    NBANDS=     64
   number of dos      NEDOS =    301   number of ions     NIONS =      4
   non local maximal  LDIM  =      4   non local SUM 2l+1 LMDIM =      8
   total plane-waves  NPLWV =  27000
   max r-space proj   IRMAX =      1   max aug-charges    IRDMAX=  17146
   dimension x,y,z NGX =    30 NGY =   30 NGZ =   30
   dimension x,y,z NGXF=    60 NGYF=   60 NGZF=   60
   support grid    NGXF=    60 NGYF=   60 NGZF=   60
   ions per type =               4
   NGX,Y,Z   is equivalent  to a cutoff of  12.60, 12.60, 12.60 a.u.
   NGXF,Y,Z  is equivalent  to a cutoff of  25.20, 25.20, 25.20 a.u.

 SYSTEM =  unknown system                          
 POSCAR =  Al4                                     

 Startparameter for this run:
   NWRITE =      2    write-flag & timer
   PREC   = accura    normal or accurate (medium, high low for compatibility)
   ISTART =      0    job   : 0-new  1-cont  2-samecut
   ICHARG =      2    charge: 1-file 2-atom 10-const
   ISPIN  =      1    spin polarized calculation?
   LNONCOLLINEAR =      F non collinear calculations
   LSORBIT =      F    spin-orbit coupling
   INIWAV =      1    electr: 0-lowe 1-rand  2-diag
   LASPH  =      F    aspherical Exc in radial PAW
 Electronic Relaxation 1
   ENCUT  =  520.0 eV  38.22 Ry    6.18 a.u.   7.36  7.36  7.36*2*pi/ulx,y,z
   ENINI  =  520.0     initial cutoff
   ENAUG  =  291.1 eV  augmentation charge cutoff
   NELM   =    200;   NELMIN=  2; NELMDL=  0     # of ELM steps 
   EDIFF  = 0.1E-05   stopping-criterion for ELM
   LREAL  =      F    real-space projection
   NLSPLINE    = F    spline interpolate recip. space projectors
   LCOMPAT=      F    compatible to vasp.4.4
   GGA_COMPAT  = T    GGA compatible to vasp.4.4-vasp.4.6
   LMAXPAW     = -100 max onsite density
   LMAXMIX     =    2 max onsite mixed and CHGCAR
   VOSKOWN=      0    Vosko Wilk Nusair interpolation
   ROPT   =    0.00000
 Ionic relaxation
   EDIFFG = -.1E-01   stopping-criterion for IOM
   NSW    =      0    number of steps for IOM
   NBLOCK =      1;   KBLOCK =      1    inner block; outer block 
   IBRION =     -1    ionic relax: 0-MD 1-quasi-New 2-CG
   NFREE  =      0    steps in history (QN), initial steepest desc. (CG)
   ISIF   =      4    stress and relaxation
   IWAVPR =     10    prediction:  0-non 1-charg 2-wave 3-comb
   ISYM   =      2    0-nonsym 1-usesym 2-fastsym
   LCORR  =      T    Harris-Foulkes like correction to forces

   POTIM  = 0.5000    time-step for ionic-motion
   TEIN   =    0.0    initial temperature
   TEBEG  =    0.0;   TEEND  =   0.0 temperature during run
   SMASS  =  -3.00    Nose mass-parameter (am)
   estimated Nose-frequenzy (Omega)   =  0.10E-29 period in steps = 0.13E+47 mass=  -0.358E-27a.u.
   SCALEE = 1.0000    scale energy and forces
   NPACO  =    256;   APACO  = 10.0  distance and # of slots for P.C.
   PSTRESS=    0.0 pullay stress

  Mass of Ions in am
   POMASS =  26.98
  Ionic Valenz
   ZVAL   =   3.00
  Atomic Wigner-Seitz radii
   RWIGS  =  -1.00
  virtual crystal weights 
   VCA    =   1.00
   NELECT =      12.0000    total number of electrons
   NUPDOWN=      -1.0000    fix difference up-down

 DOS related values:
   EMIN   =  10.00;   EMAX   =-10.00  energy-range for DOS
   EFERMI =   0.00;   METHOD = LEGACY      
   ISMEAR =    -5;   SIGMA  =   0.20  broadening in eV -4-tet -1-fermi 0-gaus

 Electronic relaxation 2 (details)
   IALGO  =     38    algorithm
   LDIAG  =      T    sub-space diagonalisation (order eigenvalues)
   LSUBROT=      F    optimize rotation matrix (better conditioning)
   TURBO    =      0    0=normal 1=particle mesh
   IRESTART =      0    0=no restart 2=restart with 2 vectors
   NREBOOT  =      0    no. of reboots
   NMIN     =      0    reboot dimension
   EREF     =   0.00    reference energy to select bands
   IMIX   =      4    mixing-type and parameters
     AMIX     =   0.40;   BMIX     =  1.00
     AMIX_MAG =   1.60;   BMIX_MAG =  1.00
     AMIN     =   0.10
     WC   =   100.;   INIMIX=   1;  MIXPRE=   1;  MAXMIX= -45

 Intra band minimization:
   WEIMIN = 0.0000     energy-eigenvalue tresh-hold
   EBREAK =  0.39E-08  absolut break condition
   DEPER  =   0.30     relativ break condition  

   TIME   =   0.40     timestep for ELM

  volume/ion in A,a.u.               =      15.50       104.60
  Fermi-wavevector in a.u.,A,eV,Ry     =   0.946974  1.789521 12.201155  0.896760
  Thomas-Fermi vector in A             =   2.075023
 
 Write flags
   LWAVE        =      F    write WAVECAR
   LDOWNSAMPLE  =      F    k-point downsampling of WAVECAR
   LCHARG       =      F    write CHGCAR
   LVTOT        =      F    write LOCPOT, total local potential
   LVHAR        =      F    write LOCPOT, Hartree potential only
   WRT_POTENTIAL= false  ! write potential to hdf5 file
   LELF         =      F    write electronic localiz. function (ELF)
   LORBIT       =      0    0 simple, 1 ext, 2 COOP (PROOUT), +10 PAW based schemes


 Dipole corrections
   LMONO      =      F    monopole corrections only (constant potential shift)
   LDIPOL     =      F    correct potential (dipole corrections)
   IDIPOL     =      0    1-x, 2-y, 3-z, 4-all directions 
   EPSILON    =  1.0000000 bulk dielectric constant
   LVACPOTAV  =      F  vacuum potentials using an averaging scheme for the charge density
   VACPOTFLAT =  0.1000000 required flatness to determine vacuum potential
 Exchange correlation treatment:
   GGA     = PE    functional components
   XC_C    = 1    coefficients multiplying the functional components
   LIBXC   =     F    Libxc                    
   VOSKOWN =     0    Vosko Wilk Nusair interpolation
   LHFCALC =     F    Hartree Fock is set to
   LHFONE  =     F    Hartree Fock one center treatment
   AEXX    =    0.0000 exact exchange contribution

 Parameters of functionals:
   PE:
     No parameter
 
 Van der Waals corrections
   IVDW    =     0    specifies the selected vdW correction

 Linear response parameters
   LEPSILON=     F    determine dielectric tensor
   LRPA    =     F    only Hartree local field effects (RPA)
   LNABLA  =     F    use nabla operator in PAW spheres
   LVEL    =     F    velocity operator in full k-point grid
   CSHIFT  =0.1000    complex shift for real part using Kramers Kronig
   OMEGAMAX=  -1.0    maximum frequency
   DEG_THRESHOLD= 0.2000000E-02 threshold for treating states as degnerate
   RTIME   =   -0.100 relaxation time in fs
  (WPLASMAI=    0.000 imaginary part of plasma frequency in eV, 0.658/RTIME)
   DFIELD  = 0.0000000 0.0000000 0.0000000 field for delta impulse in time
 
  Optional k-point grid parameters
   LKPOINTS_OPT  =     F    use optional k-point grid
   KPOINTS_OPT_MODE=     1    mode for optional k-point grid
 
 Orbital magnetization related:
   ORBITALMAG=     F  switch on orbital magnetization
   LCHIMAG   =     F  perturbation theory with respect to B field
   DQ        =  0.001000  dq finite difference perturbation B field
   LLRAUG    =     F  two centre corrections for induced B field
   LBONE     =     F  B-component reconstruction in AE one-centre
   LVGVCALC  =     T  calculate vGv susceptibility
   LVGVAPPL  =     F  apply vGv susceptibility instead of pGv for G=0

 Random number generation:
   RANDOM_GENERATOR = DEFAULT
   PCG_SEED         = not used


--------------------------------------------------------------------------------------------------------


 Static calculation
 charge density and potential will be updated during run
 non-spin polarized calculation
 Variant of blocked Davidson
 Davidson routine will perform the subspace rotation
 perform sub-space diagonalisation
    after iterative eigenvector-optimisation
 modified Broyden-mixing scheme, WC =      100.0
 initial mixing is a Kerker type mixing with AMIX =  0.4000 and BMIX =      1.0000
 Hartree-type preconditioning will be used
 using additional bands           58
 reciprocal scheme for non local part
 use partial core corrections
 calculate Harris-corrections to forces 
   (improved forces if not selfconsistent)
 use gradient corrections 
 use of overlap-Matrix (Vanderbilt PP)
 Fermi weights with tetrahedron method with Bloechl corrections


--------------------------------------------------------------------------------------------------------


  energy-cutoff  :      520.00
  volume of cell :       62.00
      direct lattice vectors                 reciprocal lattice vectors
     3.957891610  0.000000000  0.000000000     0.252659774 -0.000000000  0.000000000
     0.000000000  3.957891610  0.000000000     0.000000000  0.252659774  0.000000000
     0.000000000  0.000000000  3.957891610    -0.000000000 -0.000000000  0.252659774

  length of vectors
     3.957891610  3.957891610  3.957891610     0.252659774  0.252659774  0.252659774


 
 k-points in units of 2pi/SCALE and weight: pymatgen with grid density = 4001 / numb
   0.00000000  0.00000000  0.00000000       0.001
   0.02526598  0.00000000  0.00000000       0.006
   0.05053195  0.00000000  0.00000000       0.006
   0.07579793  0.00000000  0.00000000       0.006
   0.10106391  0.00000000  0.00000000       0.006
   0.12632989  0.00000000  0.00000000       0.003
   0.02526598  0.02526598  0.00000000       0.012
   0.05053195  0.02526598  0.00000000       0.024
   0.07579793  0.02526598  0.00000000       0.024
   0.10106391  0.02526598  0.00000000       0.024
   0.12632989  0.02526598  0.00000000       0.012
   0.05053195  0.05053195  0.00000000       0.012
   0.07579793  0.05053195  0.00000000       0.024
   0.10106391  0.05053195  0.00000000       0.024
   0.12632989  0.05053195  0.00000000       0.012
   0.07579793  0.07579793  0.00000000       0.012
   0.10106391  0.07579793  0.00000000       0.024
   0.12632989  0.07579793  0.00000000       0.012
   0.10106391  0.10106391  0.00000000       0.012
   0.12632989  0.10106391  0.00000000       0.012
   0.12632989  0.12632989  0.00000000       0.003
   0.02526598  0.02526598  0.02526598       0.008
   0.05053195  0.02526598  0.02526598       0.024
   0.07579793  0.02526598  0.02526598       0.024
   0.10106391  0.02526598  0.02526598       0.024
   0.12632989  0.02526598  0.02526598       0.012
   0.05053195  0.05053195  0.02526598       0.024
   0.07579793  0.05053195  0.02526598       0.048
   0.10106391  0.05053195  0.02526598       0.048
   0.12632989  0.05053195  0.02526598       0.024
   0.07579793  0.07579793  0.02526598       0.024
   0.10106391  0.07579793  0.02526598       0.048
   0.12632989  0.07579793  0.02526598       0.024
   0.10106391  0.10106391  0.02526598       0.024
   0.12632989  0.10106391  0.02526598       0.024
   0.12632989  0.12632989  0.02526598       0.006
   0.05053195  0.05053195  0.05053195       0.008
   0.07579793  0.05053195  0.05053195       0.024
   0.10106391  0.05053195  0.05053195       0.024
   0.12632989  0.05053195  0.05053195       0.012
   0.07579793  0.07579793  0.05053195       0.024
   0.10106391  0.07579793  0.05053195       0.048
   0.12632989  0.07579793  0.05053195       0.024
   0.10106391  0.10106391  0.05053195       0.024
   0.12632989  0.10106391  0.05053195       0.024
   0.12632989  0.12632989  0.05053195       0.006
   0.07579793  0.07579793  0.07579793       0.008
   0.10106391  0.07579793  0.07579793       0.024
   0.12632989  0.07579793  0.07579793       0.012
   0.10106391  0.10106391  0.07579793       0.024
   0.12632989  0.10106391  0.07579793       0.024
   0.12632989  0.12632989  0.07579793       0.006
   0.10106391  0.10106391  0.10106391       0.008
   0.12632989  0.10106391  0.10106391       0.012
   0.12632989  0.12632989  0.10106391       0.006
   0.12632989  0.12632989  0.12632989       0.001
 
 k-points in reciprocal lattice and weights: pymatgen with grid density = 4001 / numb
   0.00000000  0.00000000  0.00000000       0.001
   0.10000000  0.00000000  0.00000000       0.006
   0.20000000  0.00000000  0.00000000       0.006
   0.30000000  0.00000000  0.00000000       0.006
   0.40000000  0.00000000  0.00000000       0.006
   0.50000000  0.00000000  0.00000000       0.003
   0.10000000  0.10000000  0.00000000       0.012
   0.20000000  0.10000000  0.00000000       0.024
   0.30000000  0.10000000  0.00000000       0.024
   0.40000000  0.10000000  0.00000000       0.024
   0.50000000  0.10000000  0.00000000       0.012
   0.20000000  0.20000000  0.00000000       0.012
   0.30000000  0.20000000  0.00000000       0.024
   0.40000000  0.20000000  0.00000000       0.024
   0.50000000  0.20000000  0.00000000       0.012
   0.30000000  0.30000000  0.00000000       0.012
   0.40000000  0.30000000  0.00000000       0.024
   0.50000000  0.30000000  0.00000000       0.012
   0.40000000  0.40000000  0.00000000       0.012
   0.50000000  0.40000000  0.00000000       0.012
   0.50000000  0.50000000  0.00000000       0.003
   0.10000000  0.10000000  0.10000000       0.008
   0.20000000  0.10000000  0.10000000       0.024
   0.30000000  0.10000000  0.10000000       0.024
   0.40000000  0.10000000  0.10000000       0.024
   0.50000000  0.10000000  0.10000000       0.012
   0.20000000  0.20000000  0.10000000       0.024
   0.30000000  0.20000000  0.10000000       0.048
   0.40000000  0.20000000  0.10000000       0.048
   0.50000000  0.20000000  0.10000000       0.024
   0.30000000  0.30000000  0.10000000       0.024
   0.40000000  0.30000000  0.10000000       0.048
   0.50000000  0.30000000  0.10000000       0.024
   0.40000000  0.40000000  0.10000000       0.024
   0.50000000  0.40000000  0.10000000       0.024
   0.50000000  0.50000000  0.10000000       0.006
   0.20000000  0.20000000  0.20000000       0.008
   0.30000000  0.20000000  0.20000000       0.024
   0.40000000  0.20000000  0.20000000       0.024
   0.50000000  0.20000000  0.20000000       0.012
   0.30000000  0.30000000  0.20000000       0.024
   0.40000000  0.30000000  0.20000000       0.048
   0.50000000  0.30000000  0.20000000       0.024
   0.40000000  0.40000000  0.20000000       0.024
   0.50000000  0.40000000  0.20000000       0.024
   0.50000000  0.50000000  0.20000000       0.006
   0.30000000  0.30000000  0.30000000       0.008
   0.40000000  0.30000000  0.30000000       0.024
   0.50000000  0.30000000  0.30000000       0.012
   0.40000000  0.40000000  0.30000000       0.024
   0.50000000  0.40000000  0.30000000       0.024
   0.50000000  0.50000000  0.30000000       0.006
   0.40000000  0.40000000  0.40000000       0.008
   0.50000000  0.40000000  0.40000000       0.012
   0.50000000  0.50000000  0.40000000       0.006
   0.50000000  0.50000000  0.50000000       0.001
 
 position of ions in fractional coordinates (direct lattice) 
   0.00000000  0.00000000  0.00000000
   0.00000000  0.50000000  0.50000000
   0.50000000  0.00000000  0.50000000
   0.50000000  0.50000000  0.00000000
 
 position of ions in cartesian coordinates  (Angst):
   0.00000000  0.00000000  0.00000000
   0.00000000  1.97894580  1.97894580
   1.97894580  0.00000000  1.97894580
   1.97894580  1.97894580  0.00000000
 


--------------------------------------------------------------------------------------------------------


 k-point     1 :   0.0000 0.0000 0.0000  plane waves:    1743
 k-point     2 :   0.1000 0.0000 0.0000  plane waves:    1683
 k-point     3 :   0.2000 0.0000 0.0000  plane waves:    1679
 k-point     4 :   0.3000 0.0000 0.0000  plane waves:    1683
 k-point     5 :   0.4000 0.0000 0.0000  plane waves:    1678
 k-point     6 :   0.5000 0.0000 0.0000  plane waves:    1654
 k-point     7 :   0.1000 0.1000 0.0000  plane waves:    1689
 k-point     8 :   0.2000 0.1000 0.0000  plane waves:    1684
 k-point     9 :   0.3000 0.1000 0.0000  plane waves:    1679
 k-point    10 :   0.4000 0.1000 0.0000  plane waves:    1668
 k-point    11 :   0.5000 0.1000 0.0000  plane waves:    1668
 k-point    12 :   0.2000 0.2000 0.0000  plane waves:    1683
 k-point    13 :   0.3000 0.2000 0.0000  plane waves:    1673
 k-point    14 :   0.4000 0.2000 0.0000  plane waves:    1663
 k-point    15 :   0.5000 0.2000 0.0000  plane waves:    1668
 k-point    16 :   0.3000 0.3000 0.0000  plane waves:    1646
 k-point    17 :   0.4000 0.3000 0.0000  plane waves:    1653
 k-point    18 :   0.5000 0.3000 0.0000  plane waves:    1674
 k-point    19 :   0.4000 0.4000 0.0000  plane waves:    1656
 k-point    20 :   0.5000 0.4000 0.0000  plane waves:    1668
 k-point    21 :   0.5000 0.5000 0.0000  plane waves:    1652
 k-point    22 :   0.1000 0.1000 0.1000  plane waves:    1686
 k-point    23 :   0.2000 0.1000 0.1000  plane waves:    1680
 k-point    24 :   0.3000 0.1000 0.1000  plane waves:    1684
 k-point    25 :   0.4000 0.1000 0.1000  plane waves:    1663
 k-point    26 :   0.5000 0.1000 0.1000  plane waves:    1664
 k-point    27 :   0.2000 0.2000 0.1000  plane waves:    1679
 k-point    28 :   0.3000 0.2000 0.1000  plane waves:    1678
 k-point    29 :   0.4000 0.2000 0.1000  plane waves:    1666
 k-point    30 :   0.5000 0.2000 0.1000  plane waves:    1668
 k-point    31 :   0.3000 0.3000 0.1000  plane waves:    1659
 k-point    32 :   0.4000 0.3000 0.1000  plane waves:    1661
 k-point    33 :   0.5000 0.3000 0.1000  plane waves:    1662
 k-point    34 :   0.4000 0.4000 0.1000  plane waves:    1667
 k-point    35 :   0.5000 0.4000 0.1000  plane waves:    1666
 k-point    36 :   0.5000 0.5000 0.1000  plane waves:    1672
 k-point    37 :   0.2000 0.2000 0.2000  plane waves:    1674
 k-point    38 :   0.3000 0.2000 0.2000  plane waves:    1661
 k-point    39 :   0.4000 0.2000 0.2000  plane waves:    1664
 k-point    40 :   0.5000 0.2000 0.2000  plane waves:    1678
 k-point    41 :   0.3000 0.3000 0.2000  plane waves:    1665
 k-point    42 :   0.4000 0.3000 0.2000  plane waves:    1671
 k-point    43 :   0.5000 0.3000 0.2000  plane waves:    1666
 k-point    44 :   0.4000 0.4000 0.2000  plane waves:    1669
 k-point    45 :   0.5000 0.4000 0.2000  plane waves:    1666
 k-point    46 :   0.5000 0.5000 0.2000  plane waves:    1672
 k-point    47 :   0.3000 0.3000 0.3000  plane waves:    1673
 k-point    48 :   0.4000 0.3000 0.3000  plane waves:    1680
 k-point    49 :   0.5000 0.3000 0.3000  plane waves:    1682
 k-point    50 :   0.4000 0.4000 0.3000  plane waves:    1669
 k-point    51 :   0.5000 0.4000 0.3000  plane waves:    1672
 k-point    52 :   0.5000 0.5000 0.3000  plane waves:    1656
 k-point    53 :   0.4000 0.4000 0.4000  plane waves:    1661
 k-point    54 :   0.5000 0.4000 0.4000  plane waves:    1658
 k-point    55 :   0.5000 0.5000 0.4000  plane waves:    1672
 k-point    56 :   0.5000 0.5000 0.5000  plane waves:    1640

 maximum and minimum number of plane-waves per node :      1743     1640

 maximum number of plane-waves:      1743
 maximum index in each direction: 
   IXMAX=    7   IYMAX=    7   IZMAX=    7
   IXMIN=   -7   IYMIN=   -7   IZMIN=   -7


 serial   3D FFT for wavefunctions
 parallel 3D FFT for charge:
    minimum data exchange during FFTs selected (reduces bandwidth)


 total amount of memory used by VASP MPI-rank0    39737. kBytes
=======================================================================

   base      :      30000. kBytes
   nonl-proj :       6537. kBytes
   fftplans  :        255. kBytes
   grid      :       1271. kBytes
   one-center:         12. kBytes
   wavefun   :       1662. kBytes
 
     INWAV:  cpu time      0.0000: real time      0.0000
 Broyden mixing: mesh for mixing (old mesh)
   NGX = 15   NGY = 15   NGZ = 15
  (NGX  = 60   NGY  = 60   NGZ  = 60)
  gives a total of   3375 points

 initial charge density was supplied:
 charge density of overlapping atoms calculated
 number of electron      12.0000000 magnetization 
 keeping initial charge density in first step


--------------------------------------------------------------------------------------------------------


 Maximum index for augmentation-charges          777 (set IRDMAX)


--------------------------------------------------------------------------------------------------------


 First call to EWALD:  gamma=   0.448
 Maximum number of real-space cells 3x 3x 3
 Maximum number of reciprocal cells 3x 3x 3

    FEWALD:  cpu time      0.0019: real time      0.0020


--------------------------------------- Ionic step        1  -------------------------------------------




--------------------------------------- Iteration      1(   1)  ---------------------------------------


    POTLOK:  cpu time      0.0098: real time      0.0117
    SETDIJ:  cpu time      0.0041: real time      0.0044
     EDDAV:  cpu time      2.6809: real time      2.6982
 BZINTS: Fermi energy:    9.263794;   12.000000 electrons
         Band energy: 0.529842E+02;  BLOECHL correction:   -0.228746
       DOS:  cpu time      0.0139: real time      0.0141
    --------------------------------------------
      LOOP:  cpu time      2.7087: real time      2.7283

 eigenvalue-minimisations  :  7168
 total energy-change (2. order) :-0.1099745E+02  (-0.4827004E+03)
 number of electron      12.0000000 magnetization 
 augmentation part       12.0000000 magnetization 

 Free energy of the ion-electron system (eV)
  ---------------------------------------------------
  alpha Z        PSCENC =        -0.86678965
  Ewald energy   TEWEN  =      -300.25549328
  -Hartree energ DENC   =        -0.32780991
  -exchange      EXHF   =         0.00000000
  -V(xc)+E(xc)   XCENC  =      -104.50352535
  PAW double counting   =       264.80062850     -136.98248303
  entropy T*S    EENTRO =         0.00000000
  eigenvalues    EBANDS =        52.98419068
  atomic energy  EATOM  =       214.15382826
  Solvation  Ediel_sol  =         0.00000000
  ---------------------------------------------------
  free energy    TOTEN  =       -10.99745378 eV

  energy without entropy =      -10.99745378  energy(sigma->0) =      -10.99745378


--------------------------------------------------------------------------------------------------------




--------------------------------------- Iteration      1(   2)  ---------------------------------------


     EDDAV:  cpu time      5.7468: real time      5.7864
 BZINTS: Fermi energy:    8.669233;   12.000000 electrons
         Band energy: 0.489863E+02;  BLOECHL correction:   -0.241262
       DOS:  cpu time      0.0109: real time      0.0109
    --------------------------------------------
      LOOP:  cpu time      5.7576: real time      5.7973

 eigenvalue-minimisations  : 10880
 total energy-change (2. order) :-0.3997858E+01  (-0.3975771E+01)
 number of electron      12.0000000 magnetization 
 augmentation part       12.0000000 magnetization 

 Free energy of the ion-electron system (eV)
  ---------------------------------------------------
  alpha Z        PSCENC =        -0.86678965
  Ewald energy   TEWEN  =      -300.25549328
  -Hartree energ DENC   =        -0.32780991
  -exchange      EXHF   =         0.00000000
  -V(xc)+E(xc)   XCENC  =      -104.50352535
  PAW double counting   =       264.80062850     -136.98248303
  entropy T*S    EENTRO =         0.00000000
  eigenvalues    EBANDS =        48.98633278
  atomic energy  EATOM  =       214.15382826
  Solvation  Ediel_sol  =         0.00000000
  ---------------------------------------------------
  free energy    TOTEN  =       -14.99531168 eV

  energy without entropy =      -14.99531168  energy(sigma->0) =      -14.99531168


--------------------------------------------------------------------------------------------------------




--------------------------------------- Iteration      1(   3)  ---------------------------------------


     EDDAV:  cpu time      2.7070: real time      2.7285
 BZINTS: Fermi energy:    8.668924;   12.000000 electrons
         Band energy: 0.489846E+02;  BLOECHL correction:   -0.241270
       DOS:  cpu time      0.0106: real time      0.0106
    --------------------------------------------
      LOOP:  cpu time      2.7176: real time      2.7391

 eigenvalue-minimisations  :  7168
 total energy-change (2. order) :-0.1725968E-02  (-0.1713908E-02)
 number of electron      12.0000000 magnetization 
 augmentation part       12.0000000 magnetization 

 Free energy of the ion-electron system (eV)
  ---------------------------------------------------
  alpha Z        PSCENC =        -0.86678965
  Ewald energy   TEWEN  =      -300.25549328
  -Hartree energ DENC   =        -0.32780991
  -exchange      EXHF   =         0.00000000
  -V(xc)+E(xc)   XCENC  =      -104.50352535
  PAW double counting   =       264.80062850     -136.98248303
  entropy T*S    EENTRO =         0.00000000
  eigenvalues    EBANDS =        48.98460681
  atomic energy  EATOM  =       214.15382826
  Solvation  Ediel_sol  =         0.00000000
  ---------------------------------------------------
  free energy    TOTEN  =       -14.99703765 eV

  energy without entropy =      -14.99703765  energy(sigma->0) =      -14.99703765


--------------------------------------------------------------------------------------------------------




--------------------------------------- Iteration      1(   4)  ---------------------------------------


     EDDAV:  cpu time     10.7019: real time     10.7584
 BZINTS: Fermi energy:    8.668924;   12.000000 electrons
         Band energy: 0.489846E+02;  BLOECHL correction:   -0.241270
       DOS:  cpu time      0.0109: real time      0.0110
    --------------------------------------------
      LOOP:  cpu time     10.7128: real time     10.7694

 eigenvalue-minimisations  : 14272
 total energy-change (2. order) :-0.8469436E-06  (-0.8362353E-06)
 number of electron      12.0000000 magnetization 
 augmentation part       12.0000000 magnetization 

 Free energy of the ion-electron system (eV)
  ---------------------------------------------------
  alpha Z        PSCENC =        -0.86678965
  Ewald energy   TEWEN  =      -300.25549328
  -Hartree energ DENC   =        -0.32780991
  -exchange      EXHF   =         0.00000000
  -V(xc)+E(xc)   XCENC  =      -104.50352535
  PAW double counting   =       264.80062850     -136.98248303
  entropy T*S    EENTRO =         0.00000000
  eigenvalues    EBANDS =        48.98460597
  atomic energy  EATOM  =       214.15382826
  Solvation  Ediel_sol  =         0.00000000
  ---------------------------------------------------
  free energy    TOTEN  =       -14.99703849 eV

  energy without entropy =      -14.99703849  energy(sigma->0) =      -14.99703849


--------------------------------------------------------------------------------------------------------




--------------------------------------- Iteration      1(   5)  ---------------------------------------


     EDDAV:  cpu time      2.9196: real time      2.9460
 BZINTS: Fermi energy:    8.668924;   12.000000 electrons
         Band energy: 0.489846E+02;  BLOECHL correction:   -0.241270
       DOS:  cpu time      0.0105: real time      0.0106
    CHARGE:  cpu time      0.0282: real time      0.0290
    MIXING:  cpu time      0.0022: real time      0.0024
    --------------------------------------------
      LOOP:  cpu time      2.9606: real time      2.9879

 eigenvalue-minimisations  :  7168
 total energy-change (2. order) : 0.7560175E-09  (-0.3198909E-12)
 number of electron      12.0000000 magnetization 
 augmentation part       -0.1437378 magnetization 

 Broyden mixing:
  rms(total) = 0.28286E+00    rms(broyden)= 0.28286E+00
  rms(prec ) = 0.48904E+00
  weight for this iteration     100.00

 Free energy of the ion-electron system (eV)
  ---------------------------------------------------
  alpha Z        PSCENC =        -0.86678965
  Ewald energy   TEWEN  =      -300.25549328
  -Hartree energ DENC   =        -0.32780991
  -exchange      EXHF   =         0.00000000
  -V(xc)+E(xc)   XCENC  =      -104.50352535
  PAW double counting   =       264.80062850     -136.98248303
  entropy T*S    EENTRO =         0.00000000
  eigenvalues    EBANDS =        48.98460597
  atomic energy  EATOM  =       214.15382826
  Solvation  Ediel_sol  =         0.00000000
  ---------------------------------------------------
  free energy    TOTEN  =       -14.99703849 eV

  energy without entropy =      -14.99703849  energy(sigma->0) =      -14.99703849


--------------------------------------------------------------------------------------------------------




--------------------------------------- Iteration      1(   6)  ---------------------------------------


    POTLOK:  cpu time      0.0127: real time      0.0132
    SETDIJ:  cpu time      0.0011: real time      0.0011
     EDDAV:  cpu time      6.4887: real time      6.5292
 BZINTS: Fermi energy:    8.659931;   12.000000 electrons
         Band energy: 0.488881E+02;  BLOECHL correction:   -0.241595
       DOS:  cpu time      0.0107: real time      0.0108
    CHARGE:  cpu time      0.0250: real time      0.0251
    MIXING:  cpu time      0.0013: real time      0.0014
    --------------------------------------------
      LOOP:  cpu time      6.5396: real time      6.5808

 eigenvalue-minimisations  : 11136
 total energy-change (2. order) : 0.5483357E-01  (-0.5518708E-03)
 number of electron      12.0000000 magnetization 
 augmentation part       -0.1456817 magnetization 

 Broyden mixing:
  rms(total) = 0.16427E+00    rms(broyden)= 0.16427E+00
  rms(prec ) = 0.29903E+00
  weight for this iteration     100.00

 eigenvalues of (default mixing * dielectric matrix)
  average eigenvalue GAMMA=   2.3398
  2.3398

 Free energy of the ion-electron system (eV)
  ---------------------------------------------------
  alpha Z        PSCENC =        -0.86678965
  Ewald energy   TEWEN  =      -300.25549328
  -Hartree energ DENC   =        -0.30793732
  -exchange      EXHF   =         0.00000000
  -V(xc)+E(xc)   XCENC  =      -104.34236286
  PAW double counting   =       399.84256630     -272.05415595
  entropy T*S    EENTRO =         0.00000000
  eigenvalues    EBANDS =        48.88813958
  atomic energy  EATOM  =       214.15382826
  Solvation  Ediel_sol  =         0.00000000
  ---------------------------------------------------
  free energy    TOTEN  =       -14.94220492 eV

  energy without entropy =      -14.94220492  energy(sigma->0) =      -14.94220492


--------------------------------------------------------------------------------------------------------




--------------------------------------- Iteration      1(   7)  ---------------------------------------


    POTLOK:  cpu time      0.0127: real time      0.0131
    SETDIJ:  cpu time      0.0011: real time      0.0011
     EDDAV:  cpu time      6.7063: real time      6.7497
 BZINTS: Fermi energy:    8.651222;   12.000000 electrons
         Band energy: 0.488094E+02;  BLOECHL correction:   -0.242168
       DOS:  cpu time      0.0106: real time      0.0107
    CHARGE:  cpu time      0.0245: real time      0.0246
    MIXING:  cpu time      0.0009: real time      0.0010
    --------------------------------------------
      LOOP:  cpu time      6.7561: real time      6.8003

 eigenvalue-minimisations  : 11392
 total energy-change (2. order) : 0.3932193E-01  (-0.1587003E-02)
 number of electron      12.0000000 magnetization 
 augmentation part       -0.1495136 magnetization 

 Broyden mixing:
  rms(total) = 0.28641E-01    rms(broyden)= 0.28641E-01
  rms(prec ) = 0.31162E-01
  weight for this iteration     100.00

 eigenvalues of (default mixing * dielectric matrix)
  average eigenvalue GAMMA=   3.0029
  2.7874  3.2183

 Free energy of the ion-electron system (eV)
  ---------------------------------------------------
  alpha Z        PSCENC =        -0.86678965
  Ewald energy   TEWEN  =      -300.25549328
  -Hartree energ DENC   =        -0.44250437
  -exchange      EXHF   =         0.00000000
  -V(xc)+E(xc)   XCENC  =      -104.03556304
  PAW double counting   =       679.17636463     -551.44213782
  entropy T*S    EENTRO =         0.00000000
  eigenvalues    EBANDS =        48.80941229
  atomic energy  EATOM  =       214.15382826
  Solvation  Ediel_sol  =         0.00000000
  ---------------------------------------------------
  free energy    TOTEN  =       -14.90288299 eV

  energy without entropy =      -14.90288299  energy(sigma->0) =      -14.90288299


--------------------------------------------------------------------------------------------------------




--------------------------------------- Iteration      1(   8)  ---------------------------------------


    POTLOK:  cpu time      0.0127: real time      0.0131
    SETDIJ:  cpu time      0.0011: real time      0.0011
     EDDAV:  cpu time      5.7079: real time      5.7425
 BZINTS: Fermi energy:    8.651455;   12.000000 electrons
         Band energy: 0.488147E+02;  BLOECHL correction:   -0.242190
       DOS:  cpu time      0.0108: real time      0.0109
    CHARGE:  cpu time      0.0248: real time      0.0249
    MIXING:  cpu time      0.0003: real time      0.0003
    --------------------------------------------
      LOOP:  cpu time      5.7576: real time      5.7927

 eigenvalue-minimisations  : 10048
 total energy-change (2. order) : 0.9920174E-04  (-0.4349505E-05)
 number of electron      12.0000000 magnetization 
 augmentation part       -0.1498033 magnetization 

 Broyden mixing:
  rms(total) = 0.72836E-02    rms(broyden)= 0.72836E-02
  rms(prec ) = 0.81503E-02
  weight for this iteration     100.00

 eigenvalues of (default mixing * dielectric matrix)
  average eigenvalue GAMMA=   2.0977
  1.0593  2.5266  2.7073

 Free energy of the ion-electron system (eV)
  ---------------------------------------------------
  alpha Z        PSCENC =        -0.86678965
  Ewald energy   TEWEN  =      -300.25549328
  -Hartree energ DENC   =        -0.45937656
  -exchange      EXHF   =         0.00000000
  -V(xc)+E(xc)   XCENC  =      -104.01423423
  PAW double counting   =       613.41565627     -485.69109020
  entropy T*S    EENTRO =         0.00000000
  eigenvalues    EBANDS =        48.81471562
  atomic energy  EATOM  =       214.15382826
  Solvation  Ediel_sol  =         0.00000000
  ---------------------------------------------------
  free energy    TOTEN  =       -14.90278379 eV

  energy without entropy =      -14.90278379  energy(sigma->0) =      -14.90278379


--------------------------------------------------------------------------------------------------------




--------------------------------------- Iteration      1(   9)  ---------------------------------------


    POTLOK:  cpu time      0.0060: real time      0.0131
    SETDIJ:  cpu time      0.0011: real time      0.0011
     EDDAV:  cpu time      9.1314: real time      9.1801
 BZINTS: Fermi energy:    8.651306;   12.000000 electrons
         Band energy: 0.488132E+02;  BLOECHL correction:   -0.242199
       DOS:  cpu time      0.0107: real time      0.0108
    CHARGE:  cpu time      0.0244: real time      0.0245
    MIXING:  cpu time      0.0003: real time      0.0003
    --------------------------------------------
      LOOP:  cpu time      9.1739: real time      9.2299

 eigenvalue-minimisations  : 12864
 total energy-change (2. order) :-0.2363097E-05  (-0.3657143E-06)
 number of electron      12.0000000 magnetization 
 augmentation part       -0.1498446 magnetization 

 Broyden mixing:
  rms(total) = 0.14629E-03    rms(broyden)= 0.14629E-03
  rms(prec ) = 0.17779E-03
  weight for this iteration     100.00

 eigenvalues of (default mixing * dielectric matrix)
  average eigenvalue GAMMA=   2.1266
  0.9939  2.6190  2.6190  2.2744

 Free energy of the ion-electron system (eV)
  ---------------------------------------------------
  alpha Z        PSCENC =        -0.86678965
  Ewald energy   TEWEN  =      -300.25549328
  -Hartree energ DENC   =        -0.46179381
  -exchange      EXHF   =         0.00000000
  -V(xc)+E(xc)   XCENC  =      -104.01054827
  PAW double counting   =       627.57280764     -499.84796279
  entropy T*S    EENTRO =         0.00000000
  eigenvalues    EBANDS =        48.81316576
  atomic energy  EATOM  =       214.15382826
  Solvation  Ediel_sol  =         0.00000000
  ---------------------------------------------------
  free energy    TOTEN  =       -14.90278615 eV

  energy without entropy =      -14.90278615  energy(sigma->0) =      -14.90278615


--------------------------------------------------------------------------------------------------------




--------------------------------------- Iteration      1(  10)  ---------------------------------------


    POTLOK:  cpu time      0.0130: real time      0.0133
    SETDIJ:  cpu time      0.0011: real time      0.0011
     EDDAV:  cpu time      3.7009: real time      3.7212
 BZINTS: Fermi energy:    8.651297;   12.000000 electrons
         Band energy: 0.488130E+02;  BLOECHL correction:   -0.242199
       DOS:  cpu time      0.0097: real time      0.0098
    --------------------------------------------
      LOOP:  cpu time      3.7247: real time      3.7454

 eigenvalue-minimisations  :  7936
 total energy-change (2. order) : 0.5802173E-06  (-0.5328249E-09)
 number of electron      12.0000000 magnetization 
 augmentation part       -0.1498446 magnetization 

 Free energy of the ion-electron system (eV)
  ---------------------------------------------------
  alpha Z        PSCENC =        -0.86678965
  Ewald energy   TEWEN  =      -300.25549328
  -Hartree energ DENC   =        -0.46178538
  -exchange      EXHF   =         0.00000000
  -V(xc)+E(xc)   XCENC  =      -104.01055848
  PAW double counting   =       627.49835002     -499.77337980
  entropy T*S    EENTRO =         0.00000000
  eigenvalues    EBANDS =        48.81304275
  atomic energy  EATOM  =       214.15382826
  Solvation  Ediel_sol  =         0.00000000
  ---------------------------------------------------
  free energy    TOTEN  =       -14.90278557 eV

  energy without entropy =      -14.90278557  energy(sigma->0) =      -14.90278557


--------------------------------------------------------------------------------------------------------




 average (electrostatic) potential at core
  the test charge radii are     1.0406
  (the norm of the test charge is              1.0000)
       1 -71.8714       2 -71.8714       3 -71.8714       4 -71.8714
 
 
 
 E-fermi :   8.6513     XC(G=0): -10.4252     alpha+bet :-15.8361

 val. band max:        8.9919660185   @ k =   0.2000   0.2000   0.2000
 cond. band min:       8.4210653539   @ k =   0.1000   0.1000   0.0000
 fundamental gap:     -0.5709006646
 Fermi energy:         8.6512967029

 k-point     1 :       0.0000    0.0000    0.0000
  band No.  band energies     occupation 
      1      -2.9059      2.00000
      2       5.5926      2.00000
      3       5.5926      2.00000
      4       5.5926      2.00000
      5       7.0492      2.00000
      6       7.0492      2.00000
      7       7.0492      2.00000
      8      13.9391      0.00000
      9      13.9391      0.00000
     10      13.9391      0.00000
     11      14.5636      0.00000
     12      14.5636      0.00000
     13      14.5636      0.00000
     14      14.5636      0.00000
     15      14.5636      0.00000
     16      14.5636      0.00000
     17      18.3517      0.00000
     18      18.3517      0.00000
     19      18.3517      0.00000
     20      21.6395      0.00000
     21      21.6395      0.00000
     22      21.6395      0.00000
     23      23.6180      0.00000
     24      23.6180      0.00000
     25      23.6180      0.00000
     26      25.5938      0.00000
     27      28.7607      0.00000
     28      28.7607      0.00000
     29      31.8780      0.00000
     30      34.2660      0.00000
     31      34.2660      0.00000
     32      34.2660      0.00000
     33      35.0441      0.00000
     34      35.0441      0.00000
     35      35.0441      0.00000
     36      36.6205      0.00000
     37      36.6205      0.00000
     38      36.6205      0.00000
     39      36.6205      0.00000
     40      36.6205      0.00000
     41      36.6205      0.00000
     42      42.4283      0.00000
     43      42.4283      0.00000
     44      42.4283      0.00000
     45      43.5628      0.00000
     46      43.5628      0.00000
     47      43.5628      0.00000
     48      43.5628      0.00000
     49      43.5628      0.00000
     50      43.5628      0.00000
     51      43.7461      0.00000
     52      43.8872      0.00000
     53      43.8872      0.00000
     54      43.8872      0.00000
     55      44.7316      0.00000
     56      44.7316      0.00000
     57      44.7316      0.00000
     58      50.6449      0.00000
     59      50.6449      0.00000
     60      50.6449      0.00000
     61      50.6449      0.00000
     62      50.6449      0.00000
     63      50.6449      0.00000
     64      51.3292      0.00000

 k-point     2 :       0.1000    0.0000    0.0000
  band No.  band energies     occupation 
      1      -2.8114      2.00000
      2       4.4678      2.00000
      3       5.6784      2.00000
      4       5.6784      2.00000
      5       7.1386      2.00248
      6       7.1386      2.06852
      7       8.3355      1.45932
      8      12.5717      0.00000
      9      12.5717      0.00000
     10      13.9698      0.00000
     11      13.9698      0.00000
     12      14.0324      0.00000
     13      14.6427      0.00000
     14      14.6427      0.00000
     15      16.1060      0.00000
     16      16.1060      0.00000
     17      18.4392      0.00000
     18      19.0865      0.00000
     19      19.0865      0.00000
     20      20.8272      0.00000
     21      20.8272      0.00000
     22      20.9657      0.00000
     23      23.3875      0.00000
     24      24.5719      0.00000
     25      24.5719      0.00000
     26      26.4565      0.00000
     27      27.5923      0.00000
     28      28.8485      0.00000
     29      31.8333      0.00000
     30      34.3687      0.00000
     31      34.3687      0.00000
     32      34.5562      0.00000
     33      34.5562      0.00000
     34      34.6802      0.00000
     35      35.4530      0.00000
     36      35.4530      0.00000
     37      35.6945      0.00000
     38      36.3237      0.00000
     39      36.3237      0.00000
     40      36.6418      0.00000
     41      36.6418      0.00000
     42      42.6610      0.00000
     43      42.7641      0.00000
     44      42.7641      0.00000
     45      42.9351      0.00000
     46      42.9351      0.00000
     47      42.9782      0.00000
     48      43.6085      0.00000
     49      43.6085      0.00000
     50      43.6887      0.00000
     51      43.6887      0.00000
     52      44.1030      0.00000
     53      44.2566      0.00000
     54      44.2566      0.00000
     55      45.5320      0.00000
     56      45.6769      0.00000
     57      45.6769      0.00000
     58      48.2675      0.00000
     59      48.2675      0.00000
     60      48.3483      0.00000
     61      49.8489      0.00000
     62      49.8489      0.00000
     63      49.9532      0.00000
     64      49.9532      0.00000

 k-point     3 :       0.2000    0.0000    0.0000
  band No.  band energies     occupation 
      1      -2.5285      2.00000
      2       2.9918      2.00000
      3       5.9359      2.00000
      4       5.9359      2.00000
      5       7.4033      2.01555
      6       7.4033      2.53920
      7      10.2953     -0.15132
      8      11.1093      0.00000
      9      11.1093      0.00000
     10      12.8258      0.00000
     11      12.8258      0.00000
     12      14.3121      0.00000
     13      14.8799      0.00000
     14      14.8799      0.00000
     15      18.0918      0.00000
     16      18.0918      0.00000
     17      18.6991      0.00000
     18      19.5927      0.00000
     19      19.5927      0.00000
     20      19.7025      0.00000
     21      20.6518      0.00000
     22      20.6518      0.00000
     23      22.7877      0.00000
     24      25.1669      0.00000
     25      26.2209      0.00000
     26      26.2209      0.00000
     27      28.2860      0.00000
     28      29.1109      0.00000
     29      32.4236      0.00000
     30      33.0582      0.00000
     31      33.0582      0.00000
     32      33.2153      0.00000
     33      33.2153      0.00000
     34      33.8199      0.00000
     35      34.6854      0.00000
     36      34.6854      0.00000
     37      35.5519      0.00000
     38      35.5519      0.00000
     39      36.6982      0.00000
     40      36.6982      0.00000
     41      38.0079      0.00000
     42      40.9692      0.00000
     43      42.0838      0.00000
     44      42.0838      0.00000
     45      43.1273      0.00000
     46      43.1273      0.00000
     47      43.4789      0.00000
     48      43.4789      0.00000
     49      43.7442      0.00000
     50      43.7442      0.00000
     51      44.3950      0.00000
     52      44.9343      0.00000
     53      45.0179      0.00000
     54      45.0179      0.00000
     55      45.2399      0.00000
     56      45.8751      0.00000
     57      46.4746      0.00000
     58      46.4746      0.00000
     59      46.9659      0.00000
     60      46.9659      0.00000
     61      48.5630      0.00000
     62      48.5630      0.00000
     63      48.7374      0.00000
     64      48.7374      0.00000

 k-point     4 :       0.3000    0.0000    0.0000
  band No.  band energies     occupation 
      1      -2.0582      2.00000
      2       1.6408      2.00000
      3       6.3654      2.00000
      4       6.3654      2.00000
      5       7.8300      2.01756
      6       7.8300      2.52237
      7       9.8136      0.00000
      8       9.8136      0.00000
      9      11.6568      0.00000
     10      11.6568      0.00000
     11      12.4513      0.00000
     12      14.7772      0.00000
     13      15.2756      0.00000
     14      15.2756      0.00000
     15      18.4208      0.00000
     16      18.4336      0.00000
     17      18.4336      0.00000
     18      19.1234      0.00000
     19      20.2561      0.00000
     20      20.2561      0.00000
     21      21.9583      0.00000
     22      22.5184      0.00000
     23      22.5184      0.00000
     24      22.5306      0.00000
     25      28.0329      0.00000
     26      28.0329      0.00000
     27      29.5453      0.00000
     28      30.3726      0.00000
     29      30.3726      0.00000
     30      30.5111      0.00000
     31      31.3461      0.00000
     32      31.3461      0.00000
     33      32.7998      0.00000
     34      33.4442      0.00000
     35      34.4809      0.00000
     36      34.4809      0.00000
     37      35.2460      0.00000
     38      35.2460      0.00000
     39      36.7703      0.00000
     40      36.7703      0.00000
     41      39.2677      0.00000
     42      40.0936      0.00000
     43      41.1589      0.00000
     44      41.1589      0.00000
     45      41.6719      0.00000
     46      41.8313      0.00000
     47      41.8313      0.00000
     48      43.9671      0.00000
     49      43.9671      0.00000
     50      43.9711      0.00000
     51      43.9711      0.00000
     52      45.2387      0.00000
     53      45.2387      0.00000
     54      45.4239      0.00000
     55      46.3417      0.00000
     56      46.5726      0.00000
     57      46.5726      0.00000
     58      47.2570      0.00000
     59      47.3265      0.00000
     60      47.3265      0.00000
     61      47.7899      0.00000
     62      47.7899      0.00000
     63      47.8543      0.00000
     64      47.8543      0.00000

 k-point     5 :       0.4000    0.0000    0.0000
  band No.  band energies     occupation 
      1      -1.4026      2.00000
      2       0.4517      2.00000
      3       6.9674      2.00000
      4       6.9674      2.00000
      5       8.3677      1.99799
      6       8.3677      2.03516
      7       8.6911      0.00000
      8       8.6911      0.00000
      9      10.6489      0.00000
     10      10.6489      0.00000
     11      14.7638      0.00000
     12      15.4261      0.00000
     13      15.8298      0.00000
     14      15.8298      0.00000
     15      17.2586      0.00000
     16      17.4119      0.00000
     17      17.4119      0.00000
     18      19.6982      0.00000
     19      19.7808      0.00000
     20      21.2073      0.00000
     21      22.5851      0.00000
     22      22.5851      0.00000
     23      24.4872      0.00000
     24      24.4872      0.00000
     25      27.6759      0.00000
     26      27.6759      0.00000
     27      29.2994      0.00000
     28      29.2994      0.00000
     29      29.8763      0.00000
     30      29.8763      0.00000
     31      30.1464      0.00000
     32      31.8013      0.00000
     33      32.9929      0.00000
     34      33.1748      0.00000
     35      33.1748      0.00000
     36      34.6969      0.00000
     37      36.1098      0.00000
     38      36.1098      0.00000
     39      36.8308      0.00000
     40      36.8308      0.00000
     41      37.6353      0.00000
     42      38.5870      0.00000
     43      39.0759      0.00000
     44      39.0759      0.00000
     45      41.7946      0.00000
     46      41.8017      0.00000
     47      41.8017      0.00000
     48      44.2692      0.00000
     49      44.2692      0.00000
     50      44.4645      0.00000
     51      44.5730      0.00000
     52      44.5730      0.00000
     53      45.0081      0.00000
     54      45.0081      0.00000
     55      46.2504      0.00000
     56      46.2504      0.00000
     57      46.3938      0.00000
     58      46.3938      0.00000
     59      47.2958      0.00000
     60      47.2958      0.00000
     61      48.6357      0.00000
     62      49.4081      0.00000
     63      49.4081      0.00000
     64      50.0340      0.00000

 k-point     6 :       0.5000    0.0000    0.0000
  band No.  band energies     occupation 
      1      -0.5647      2.00000
      2      -0.5647      2.00000
      3       7.7424      2.00000
      4       7.7424      2.00000
      5       7.7424      2.00000
      6       7.7424      2.00291
      7       8.7247      0.00000
      8       8.7247      0.00000
      9      10.1322      0.00000
     10      10.1322      0.00000
     11      16.2555      0.00000
     12      16.2555      0.00000
     13      16.5424      0.00000
     14      16.5424      0.00000
     15      16.5424      0.00000
     16      16.5424      0.00000
     17      17.2152      0.00000
     18      17.2152      0.00000
     19      20.4021      0.00000
     20      20.4021      0.00000
     21      25.0658      0.00000
     22      25.0658      0.00000
     23      25.0658      0.00000
     24      25.0658      0.00000
     25      25.8801      0.00000
     26      25.8801      0.00000
     27      27.8686      0.00000
     28      27.8686      0.00000
     29      30.9045      0.00000
     30      30.9045      0.00000
     31      31.6275      0.00000
     32      31.6275      0.00000
     33      31.6275      0.00000
     34      31.6275      0.00000
     35      35.6905      0.00000
     36      35.6905      0.00000
     37      36.1047      0.00000
     38      36.1047      0.00000
     39      36.8544      0.00000
     40      36.8544      0.00000
     41      37.3653      0.00000
     42      37.3653      0.00000
     43      37.3653      0.00000
     44      37.3653      0.00000
     45      41.8154      0.00000
     46      41.8154      0.00000
     47      43.2294      0.00000
     48      43.2294      0.00000
     49      44.6292      0.00000
     50      44.6292      0.00000
     51      44.6292      0.00000
     52      44.6292      0.00000
     53      45.3380      0.00000
     54      45.3380      0.00000
     55      45.3380      0.00000
     56      45.3380      0.00000
     57      46.2947      0.00000
     58      46.2947      0.00000
     59      47.1048      0.00000
     60      47.1048      0.00000
     61      51.1949      0.00000
     62      51.1949      0.00000
     63      51.3286      0.00000
     64      51.3286      0.00000

 k-point     7 :       0.1000    0.1000    0.0000
  band No.  band energies     occupation 
      1      -2.7170      2.00000
      2       4.5563      2.00000
      3       4.5563      2.00000
      4       5.7642      2.00000
      5       7.2263      2.01780
      6       8.4211      2.06395
      7       8.4211      0.95562
      8      11.5251      0.00000
      9      12.6592      0.00000
     10      12.6592      0.00000
     11      14.0526      0.00000
     12      14.0526      0.00000
     13      14.7233      0.00000
     14      15.8977      0.00000
     15      16.1906      0.00000
     16      16.1906      0.00000
     17      19.1708      0.00000
     18      19.1708      0.00000
     19      19.4675      0.00000
     20      19.9037      0.00000
     21      20.1611      0.00000
     22      21.8235      0.00000
     23      23.7450      0.00000
     24      24.3976      0.00000
     25      24.7875      0.00000
     26      27.3137      0.00000
     27      27.4584      0.00000
     28      28.1709      0.00000
     29      31.5669      0.00000
     30      33.8738      0.00000
     31      33.8738      0.00000
     32      34.1740      0.00000
     33      34.4761      0.00000
     34      35.3073      0.00000
     35      35.6477      0.00000
     36      35.6967      0.00000
     37      35.7145      0.00000
     38      35.7145      0.00000
     39      36.0746      0.00000
     40      36.3344      0.00000
     41      36.3344      0.00000
     42      41.5979      0.00000
     43      41.8839      0.00000
     44      41.8839      0.00000
     45      43.2332      0.00000
     46      43.2332      0.00000
     47      43.5986      0.00000
     48      43.6840      0.00000
     49      43.6840      0.00000
     50      44.1956      0.00000
     51      44.1956      0.00000
     52      44.2740      0.00000
     53      44.4306      0.00000
     54      44.7126      0.00000
     55      45.7328      0.00000
     56      46.2841      0.00000
     57      46.2841      0.00000
     58      46.9561      0.00000
     59      46.9561      0.00000
     60      48.7815      0.00000
     61      48.7815      0.00000
     62      49.2980      0.00000
     63      49.7633      0.00000
     64      49.9053      0.00000

 k-point     8 :       0.2000    0.1000    0.0000
  band No.  band energies     occupation 
      1      -2.4343      2.00000
      2       3.0819      2.00000
      3       4.8213      2.00000
      4       6.0218      2.00000
      5       7.4825      2.06546
      6       8.6738      0.79955
      7      10.1349     -0.07731
      8      10.3750      0.00000
      9      11.1962      0.00000
     10      12.9165      0.00000
     11      12.9216      0.00000
     12      13.9233      0.00000
     13      14.3021      0.00000
     14      16.4446      0.00000
     15      17.4000      0.00000
     16      18.0754      0.00000
     17      18.1766      0.00000
     18      19.0030      0.00000
     19      19.4214      0.00000
     20      20.7314      0.00000
     21      21.2593      0.00000
     22      21.5407      0.00000
     23      23.3837      0.00000
     24      25.2020      0.00000
     25      25.4947      0.00000
     26      26.1184      0.00000
     27      28.2103      0.00000
     28      29.2802      0.00000
     29      31.8566      0.00000
     30      31.9088      0.00000
     31      32.7735      0.00000
     32      33.0308      0.00000
     33      33.0992      0.00000
     34      34.2788      0.00000
     35      34.8110      0.00000
     36      35.5291      0.00000
     37      35.5616      0.00000
     38      35.6644      0.00000
     39      36.2749      0.00000
     40      36.3568      0.00000
     41      38.3096      0.00000
     42      40.2234      0.00000
     43      40.6161      0.00000
     44      41.0904      0.00000
     45      42.6011      0.00000
     46      43.4920      0.00000
     47      43.5591      0.00000
     48      43.6412      0.00000
     49      43.9349      0.00000
     50      44.4202      0.00000
     51      44.6863      0.00000
     52      44.7710      0.00000
     53      45.0862      0.00000
     54      45.2610      0.00000
     55      45.4884      0.00000
     56      45.9538      0.00000
     57      46.1633      0.00000
     58      46.2213      0.00000
     59      47.4761      0.00000
     60      47.5413      0.00000
     61      47.8952      0.00000
     62      49.1142      0.00000
     63      49.1536      0.00000
     64      50.3333      0.00000

 k-point     9 :       0.3000    0.1000    0.0000
  band No.  band energies     occupation 
      1      -1.9643      2.00000
      2       1.7320      2.00000
      3       5.2615      2.00000
      4       6.4514      2.00000
      5       7.8483      2.03256
      6       8.9257      0.27780
      7       9.0726      0.00000
      8       9.9002      0.00000
      9      11.7666      0.00000
     10      12.5156      0.00000
     11      12.7648      0.00000
     12      13.3581      0.00000
     13      14.7240      0.00000
     14      16.8103      0.00000
     15      16.8678      0.00000
     16      17.8612      0.00000
     17      19.4794      0.00000
     18      19.8312      0.00000
     19      20.1775      0.00000
     20      20.3401      0.00000
     21      22.5640      0.00000
     22      22.5924      0.00000
     23      22.6505      0.00000
     24      23.4464      0.00000
     25      27.3100      0.00000
     26      27.7415      0.00000
     27      28.7946      0.00000
     28      29.3718      0.00000
     29      30.4370      0.00000
     30      31.2994      0.00000
     31      31.3584      0.00000
     32      31.6627      0.00000
     33      32.3519      0.00000
     34      32.6601      0.00000
     35      34.3884      0.00000
     36      34.7995      0.00000
     37      35.4214      0.00000
     38      35.8350      0.00000
     39      36.3637      0.00000
     40      37.0716      0.00000
     41      38.2416      0.00000
     42      40.1897      0.00000
     43      40.2212      0.00000
     44      40.4313      0.00000
     45      40.7257      0.00000
     46      42.8627      0.00000
     47      42.9526      0.00000
     48      43.4738      0.00000
     49      43.5027      0.00000
     50      43.7000      0.00000
     51      44.7187      0.00000
     52      44.9151      0.00000
     53      45.1475      0.00000
     54      45.1789      0.00000
     55      45.3977      0.00000
     56      45.6756      0.00000
     57      46.6010      0.00000
     58      47.4149      0.00000
     59      47.8663      0.00000
     60      48.2043      0.00000
     61      48.2767      0.00000
     62      49.0506      0.00000
     63      49.1773      0.00000
     64      50.8600      0.00000

 k-point    10 :       0.4000    0.1000    0.0000
  band No.  band energies     occupation 
      1      -1.3093      2.00000
      2       0.5437      2.00000
      3       5.8742      2.00000
      4       7.0535      2.00000
      5       7.5454      2.00111
      6       8.6969      1.38345
      7       8.7775      0.00000
      8       9.4932      0.00000
      9      10.8661      0.00000
     10      11.7122      0.00000
     11      13.9678      0.00000
     12      14.7177      0.00000
     13      15.4024      0.00000
     14      15.6979      0.00000
     15      16.8308      0.00000
     16      17.4592      0.00000
     17      19.1305      0.00000
     18      19.9201      0.00000
     19      20.3869      0.00000
     20      21.7499      0.00000
     21      21.8389      0.00000
     22      22.6677      0.00000
     23      24.5340      0.00000
     24      25.4353      0.00000
     25      26.8383      0.00000
     26      27.7505      0.00000
     27      28.8701      0.00000
     28      29.2858      0.00000
     29      29.3362      0.00000
     30      30.1847      0.00000
     31      30.2273      0.00000
     32      30.6328      0.00000
     33      32.9544      0.00000
     34      33.5445      0.00000
     35      33.5854      0.00000
     36      33.6236      0.00000
     37      36.0321      0.00000
     38      36.3208      0.00000
     39      36.3580      0.00000
     40      36.4238      0.00000
     41      37.8444      0.00000
     42      38.1523      0.00000
     43      40.2103      0.00000
     44      40.2942      0.00000
     45      40.5439      0.00000
     46      41.0944      0.00000
     47      42.1265      0.00000
     48      43.3243      0.00000
     49      43.4243      0.00000
     50      43.4817      0.00000
     51      44.1808      0.00000
     52      44.7023      0.00000
     53      45.2421      0.00000
     54      45.2925      0.00000
     55      45.6904      0.00000
     56      46.7889      0.00000
     57      46.8011      0.00000
     58      47.6408      0.00000
     59      48.1229      0.00000
     60      49.1744      0.00000
     61      49.4510      0.00000
     62      50.0172      0.00000
     63      50.1330      0.00000
     64      50.9441      0.00000

 k-point    11 :       0.5000    0.1000    0.0000
  band No.  band energies     occupation 
      1      -0.4719      2.00000
      2      -0.4719      2.00000
      3       6.6512      2.00000
      4       6.6512      2.00000
      5       7.8287      2.00000
      6       7.8287      2.04288
      7       9.2971      0.00000
      8       9.2971      0.00000
      9      10.9002      0.00000
     10      10.9002      0.00000
     11      14.7487      0.00000
     12      14.7487      0.00000
     13      15.9216      0.00000
     14      15.9216      0.00000
     15      17.3769      0.00000
     16      17.3769      0.00000
     17      18.2161      0.00000
     18      18.2161      0.00000
     19      21.0673      0.00000
     20      21.0673      0.00000
     21      24.1309      0.00000
     22      24.1309      0.00000
     23      25.1455      0.00000
     24      25.1455      0.00000
     25      26.4540      0.00000
     26      26.4540      0.00000
     27      28.3871      0.00000
     28      28.3871      0.00000
     29      29.7128      0.00000
     30      29.7128      0.00000
     31      31.2235      0.00000
[...]
     64      51.5736      0.00000

 k-point    52 :       0.5000    0.5000    0.3000
  band No.  band energies     occupation 
      1       2.5525      2.00000
      2       2.5525      2.00000
      3       2.5525      2.00000
      4       2.5525      2.00000
      5       6.1649      2.00000
      6       6.1649      2.00000
      7       6.1649      2.00000
      8       6.1649      2.06907
      9      16.7059      0.00000
     10      16.7059      0.00000
     11      16.7059      0.00000
     12      16.7059      0.00000
     13      19.2954      0.00000
     14      19.2954      0.00000
     15      19.2954      0.00000
     16      19.2954      0.00000
     17      21.1501      0.00000
     18      21.1501      0.00000
     19      21.1501      0.00000
     20      21.1501      0.00000
     21      22.5340      0.00000
     22      22.5340      0.00000
     23      22.5340      0.00000
     24      22.5340      0.00000
     25      25.5931      0.00000
     26      25.5931      0.00000
     27      25.5931      0.00000
     28      25.5931      0.00000
     29      27.8210      0.00000
     30      27.8210      0.00000
     31      27.8210      0.00000
     32      27.8210      0.00000
     33      31.9647      0.00000
     34      31.9647      0.00000
     35      31.9647      0.00000
     36      31.9647      0.00000
     37      33.5365      0.00000
     38      33.5365      0.00000
     39      33.5365      0.00000
     40      33.5365      0.00000
     41      39.8177      0.00000
     42      39.8177      0.00000
     43      39.8177      0.00000
     44      39.8177      0.00000
     45      42.1689      0.00000
     46      42.1689      0.00000
     47      42.1689      0.00000
     48      42.1689      0.00000
     49      43.7474      0.00000
     50      43.7474      0.00000
     51      43.7474      0.00000
     52      43.7474      0.00000
     53      48.8891      0.00000
     54      48.8891      0.00000
     55      48.8891      0.00000
     56      48.8891      0.00000
     57      49.8702      0.00000
     58      49.8702      0.00000
     59      49.8702      0.00000
     60      49.8702      0.00000
     61      51.5814      0.00000
     62      51.5814      0.00000
     63      51.5814      0.00000
     64      51.5814      0.00000

 k-point    53 :       0.4000    0.4000    0.4000
  band No.  band energies     occupation 
      1       1.5533      2.00000
      2       3.3576      2.00000
      3       3.3576      2.00000
      4       3.3576      2.00000
      5       5.1975      2.00000
      6       5.1975      2.00000
      7       5.1975      2.00000
      8       6.9638      2.06485
      9      17.4414      0.00000
     10      17.4414      0.00000
     11      17.4414      0.00000
     12      18.4067      0.00000
     13      18.4067      0.00000
     14      18.4067      0.00000
     15      20.0053      0.00000
     16      20.0053      0.00000
     17      20.2114      0.00000
     18      20.2114      0.00000
     19      20.2114      0.00000
     20      21.6491      0.00000
     21      21.6491      0.00000
     22      23.2632      0.00000
     23      23.2632      0.00000
     24      23.2632      0.00000
     25      23.7500      0.00000
     26      25.7199      0.00000
     27      26.4017      0.00000
     28      26.4017      0.00000
     29      26.4017      0.00000
     30      26.9107      0.00000
     31      26.9107      0.00000
     32      26.9107      0.00000
     33      32.1156      0.00000
     34      32.1156      0.00000
     35      32.1156      0.00000
     36      32.5848      0.00000
     37      32.5848      0.00000
     38      34.4785      0.00000
     39      34.4785      0.00000
     40      34.4785      0.00000
     41      39.7042      0.00000
     42      41.1074      0.00000
     43      41.1074      0.00000
     44      41.1074      0.00000
     45      41.1427      0.00000
     46      41.1427      0.00000
     47      41.1427      0.00000
     48      42.6816      0.00000
     49      42.6816      0.00000
     50      42.6816      0.00000
     51      42.9015      0.00000
     52      42.9015      0.00000
     53      48.7518      0.00000
     54      49.2134      0.00000
     55      49.2134      0.00000
     56      49.2134      0.00000
     57      50.2803      0.00000
     58      50.2803      0.00000
     59      50.4286      0.00000
     60      51.7882      0.00000
     61      51.7882      0.00000
     62      51.7882      0.00000
     63      52.1687      0.00000
     64      52.1687      0.00000

 k-point    54 :       0.5000    0.4000    0.4000
  band No.  band energies     occupation 
      1       2.3715      2.00000
      2       2.3715      2.00000
      3       3.9966      2.00000
      4       3.9966      2.00000
      5       4.3849      2.00000
      6       4.3849      2.00000
      7       5.9909      2.00000
      8       5.9909      2.02136
      9      17.9519      0.00000
     10      17.9519      0.00000
     11      18.3130      0.00000
     12      18.3130      0.00000
     13      19.1268      0.00000
     14      19.1268      0.00000
     15      19.6523      0.00000
     16      19.6523      0.00000
     17      20.5801      0.00000
     18      20.5801      0.00000
     19      21.6656      0.00000
     20      21.6656      0.00000
     21      21.7688      0.00000
     22      21.7688      0.00000
     23      22.3741      0.00000
     24      22.3741      0.00000
     25      24.7589      0.00000
     26      24.7589      0.00000
     27      25.7790      0.00000
     28      25.7790      0.00000
     29      26.2180      0.00000
     30      26.2180      0.00000
     31      26.2891      0.00000
     32      26.2891      0.00000
     33      32.4609      0.00000
     34      32.4609      0.00000
     35      33.3011      0.00000
     36      33.3011      0.00000
     37      33.9547      0.00000
     38      33.9547      0.00000
     39      34.1300      0.00000
     40      34.1300      0.00000
     41      40.6282      0.00000
     42      40.6282      0.00000
     43      40.9873      0.00000
     44      40.9873      0.00000
     45      41.1569      0.00000
     46      41.1569      0.00000
     47      41.2846      0.00000
     48      41.2846      0.00000
     49      42.3706      0.00000
     50      42.3706      0.00000
     51      42.7855      0.00000
     52      42.7855      0.00000
     53      48.6674      0.00000
     54      48.6674      0.00000
     55      48.8584      0.00000
     56      48.8584      0.00000
     57      50.9417      0.00000
     58      50.9417      0.00000
     59      51.2810      0.00000
     60      51.2810      0.00000
     61      52.5192      0.00000
     62      52.5192      0.00000
     63      52.5419      0.00000
     64      52.5419      0.00000

 k-point    55 :       0.5000    0.5000    0.4000
  band No.  band energies     occupation 
      1       3.1788      2.00000
      2       3.1788      2.00000
      3       3.1788      2.00000
      4       3.1788      2.00000
      5       5.0193      2.00000
      6       5.0193      2.00000
      7       5.0193      2.00000
      8       5.0193      2.00000
      9      18.7918      0.00000
     10      18.7918      0.00000
     11      18.7918      0.00000
     12      18.7918      0.00000
     13      19.8497      0.00000
     14      19.8497      0.00000
     15      19.8497      0.00000
     16      19.8497      0.00000
     17      21.2945      0.00000
     18      21.2945      0.00000
     19      21.2945      0.00000
     20      21.2945      0.00000
     21      21.4961      0.00000
     22      21.4961      0.00000
     23      21.4961      0.00000
     24      21.4961      0.00000
     25      24.7256      0.00000
     26      24.7256      0.00000
     27      24.7256      0.00000
     28      24.7256      0.00000
     29      25.6426      0.00000
     30      25.6426      0.00000
     31      25.6426      0.00000
     32      25.6426      0.00000
     33      33.6054      0.00000
     34      33.6054      0.00000
     35      33.6054      0.00000
     36      33.6054      0.00000
     37      34.1633      0.00000
     38      34.1633      0.00000
     39      34.1633      0.00000
     40      34.1633      0.00000
     41      40.5034      0.00000
     42      40.5034      0.00000
     43      40.5034      0.00000
     44      40.5034      0.00000
     45      41.6878      0.00000
     46      41.6878      0.00000
     47      41.6878      0.00000
     48      41.6878      0.00000
     49      41.7969      0.00000
     50      41.7969      0.00000
     51      41.7969      0.00000
     52      41.7969      0.00000
     53      48.3088      0.00000
     54      48.3088      0.00000
     55      48.3088      0.00000
     56      48.3088      0.00000
     57      51.9977      0.00000
     58      51.9977      0.00000
     59      51.9977      0.00000
     60      51.9977      0.00000
     61      52.7135      0.00000
     62      52.7135      0.00000
     63      52.7135      0.00000
     64      52.7135      0.00000

 k-point    56 :       0.5000    0.5000    0.5000
  band No.  band energies     occupation 
      1       3.8226      2.00000
      2       3.8226      2.00000
      3       3.8226      2.00000
      4       3.8226      2.00000
      5       4.2016      2.00000
      6       4.2016      2.00000
      7       4.2016      2.00000
      8       4.2016      2.00000
      9      20.4219      0.00000
     10      20.4219      0.00000
     11      20.4219      0.00000
     12      20.4219      0.00000
     13      20.4219      0.00000
     14      20.4219      0.00000
     15      20.4219      0.00000
     16      20.4219      0.00000
     17      20.7624      0.00000
     18      20.7624      0.00000
     19      20.7624      0.00000
     20      20.7624      0.00000
     21      20.7624      0.00000
     22      20.7624      0.00000
     23      20.7624      0.00000
     24      20.7624      0.00000
     25      24.2074      0.00000
     26      24.2074      0.00000
     27      24.2074      0.00000
     28      24.2074      0.00000
     29      24.7818      0.00000
     30      24.7818      0.00000
     31      24.7818      0.00000
     32      24.7818      0.00000
     33      34.3912      0.00000
     34      34.3912      0.00000
     35      34.3912      0.00000
     36      34.3912      0.00000
     37      34.3912      0.00000
     38      34.3912      0.00000
     39      34.3912      0.00000
     40      34.3912      0.00000
     41      40.7590      0.00000
     42      40.7590      0.00000
     43      40.7590      0.00000
     44      40.7590      0.00000
     45      40.7590      0.00000
     46      40.7590      0.00000
     47      40.7590      0.00000
     48      40.7590      0.00000
     49      41.7209      0.00000
     50      41.7209      0.00000
     51      41.7209      0.00000
     52      41.7209      0.00000
     53      47.7679      0.00000
     54      47.7679      0.00000
     55      47.7679      0.00000
     56      47.7679      0.00000
     57      52.9366      0.00000
     58      52.9366      0.00000
     59      52.9366      0.00000
     60      52.9366      0.00000
     61      54.1220      0.00000
     62      54.1220      0.00000
     63      54.1220      0.00000
     64      54.1220      0.00000


--------------------------------------------------------------------------------------------------------


 soft charge-density along one line, spin component           1
         0         1         2         3         4         5         6         7         8         9
 total charge-density along one line
 
 pseudopotential strength for first ion, spin component:           1
  8.423  14.354   0.000  -0.000  -0.000   0.000  -0.000  -0.000
 14.354  24.462   0.000  -0.000   0.000   0.000  -0.000   0.000
  0.000   0.000   1.991   0.000  -0.000   5.735   0.000  -0.000
 -0.000  -0.000   0.000   1.991   0.000   0.000   5.735   0.000
 -0.000   0.000  -0.000   0.000   1.991  -0.000   0.000   5.735
  0.000   0.000   5.735   0.000  -0.000  16.434   0.000  -0.000
 -0.000  -0.000   0.000   5.735   0.000   0.000  16.434   0.000
 -0.000   0.000  -0.000   0.000   5.735  -0.000   0.000  16.434
 total augmentation occupancy for first ion, spin component:           1
  3.646  -0.953   0.000  -0.000  -0.000   0.000  -0.000   0.000
 -0.953   0.314  -0.000   0.000   0.000   0.000  -0.000   0.000
  0.000  -0.000   1.192   0.000   0.000  -0.079  -0.000  -0.000
 -0.000   0.000   0.000   1.192   0.000  -0.000  -0.079  -0.000
 -0.000   0.000   0.000   0.000   1.192  -0.000  -0.000  -0.079
  0.000   0.000  -0.079  -0.000  -0.000   0.006   0.000   0.000
 -0.000  -0.000  -0.000  -0.079  -0.000   0.000   0.006   0.000
  0.000   0.000  -0.000  -0.000  -0.079   0.000   0.000   0.006


------------------------ aborting loop because EDIFF is reached ----------------------------------------


    CHARGE:  cpu time      0.0247: real time      0.0252
    FORLOC:  cpu time      0.0004: real time      0.0006
    FORNL :  cpu time      0.0264: real time      0.0269
    STRESS:  cpu time      0.3859: real time      0.3909
    FORCOR:  cpu time      0.0038: real time      0.0038
    FORHAR:  cpu time      0.0013: real time      0.0014
    MIXING:  cpu time      0.0003: real time      0.0003
    OFIELD:  cpu time      0.0003: real time      0.0003

  FORCE on cell =-STRESS in cart. coord.  units (eV):
  Direction    XX          YY          ZZ          XY          YZ          ZX
  --------------------------------------------------------------------------------------
  Alpha Z    -0.86679    -0.86679    -0.86679
  Ewald    -100.08521  -100.08521  -100.08521     0.00000     0.00000     0.00000
  Hartree     0.15393     0.15393     0.15393    -0.00000    -0.00000    -0.00000
  E(xc)     -34.95484   -34.95484   -34.95484    -0.00000     0.00000     0.00000
  Local       2.44500     2.44500     2.44500     0.00000     0.00000     0.00000
  n-local    75.43513    76.45500    78.69473     0.42093     1.23357     0.51399
  augment    -3.99156    -3.99156    -3.99156    -0.00000     0.00000     0.00000
  Kinetic    60.05071    61.89884    65.73775     1.35785    -8.18582    -1.37207
  Fock        0.00000     0.00000     0.00000     0.00000     0.00000     0.00000
  -------------------------------------------------------------------------------------
  Total       2.12457     2.12457     2.12457     0.00000    -0.00000     0.00000
  in kB      54.90233    54.90233    54.90233     0.00000    -0.00000     0.00000
  external pressure =       54.90 kB  Pullay stress =        0.00 kB


 VOLUME and BASIS-vectors are now :
 -----------------------------------------------------------------------------
  energy-cutoff  :      520.00
  volume of cell :       62.00
      direct lattice vectors                 reciprocal lattice vectors
     3.957891610  0.000000000  0.000000000     0.252659774 -0.000000000  0.000000000
     0.000000000  3.957891610  0.000000000     0.000000000  0.252659774  0.000000000
     0.000000000  0.000000000  3.957891610    -0.000000000 -0.000000000  0.252659774

  length of vectors
     3.957891610  3.957891610  3.957891610     0.252659774  0.252659774  0.252659774


 FORCES acting on ions
    electron-ion (+dipol)            ewald-force                    non-local-force                 convergence-correction
 -----------------------------------------------------------------------------------------------
   -.229E-14 -.351E-15 -.825E-15   0.428E-15 -.581E-15 -.368E-16   0.627E-19 0.107E-19 0.361E-19   0.456E-15 0.893E-16 0.838E-16
   -.222E-14 -.195E-14 -.183E-14   0.433E-15 0.842E-16 0.346E-15   -.462E-19 0.319E-19 -.136E-20   0.469E-15 -.855E-16 -.920E-16
   -.429E-14 -.771E-15 0.263E-13   -.349E-15 0.190E-16 0.347E-15   -.449E-19 -.250E-19 0.166E-18   -.513E-15 0.895E-16 -.819E-16
   -.384E-14 -.116E-13 -.166E-13   -.351E-15 0.680E-15 -.668E-15   0.343E-19 -.178E-19 -.141E-19   -.517E-15 -.914E-16 0.859E-16
 -----------------------------------------------------------------------------------------------
   -.126E-13 -.147E-13 0.703E-14   0.162E-15 0.203E-15 -.127E-16   0.589E-20 -.159E-21 0.186E-18   -.105E-15 0.194E-17 -.432E-17
 
 
 POSITION                                       TOTAL-FORCE (eV/Angst)
 -----------------------------------------------------------------------------------
      0.00000      0.00000      0.00000         0.000000     -0.000000      0.000000
      0.00000      1.97895      1.97895        -0.000000      0.000000      0.000000
      1.97895      0.00000      1.97895        -0.000000     -0.000000     -0.000000
      1.97895      1.97895      0.00000        -0.000000      0.000000     -0.000000
 -----------------------------------------------------------------------------------
    total drift:                               -0.000000     -0.000000      0.000000


--------------------------------------------------------------------------------------------------------



  FREE ENERGIE OF THE ION-ELECTRON SYSTEM (eV)
  ---------------------------------------------------
  free  energy   TOTEN  =       -14.90278557 eV

  energy  without entropy=      -14.90278557  energy(sigma->0) =      -14.90278557
 


--------------------------------------------------------------------------------------------------------


    POTLOK:  cpu time      0.0065: real time      0.0067


--------------------------------------------------------------------------------------------------------


     LOOP+:  cpu time     57.2769: real time     57.6999
 -----------------------------------------------------------------------------
|                                                                             |
|           W    W    AA    RRRRR   N    N  II  N    N   GGGG   !!!           |
|           W    W   A  A   R    R  NN   N  II  NN   N  G    G  !!!           |
|           W    W  A    A  R    R  N N  N  II  N N  N  G       !!!           |
|           W WW W  AAAAAA  RRRRR   N  N N  II  N  N N  G  GGG   !            |
|           WW  WW  A    A  R   R   N   NN  II  N   NN  G    G                |
|           W    W  A    A  R    R  N    N  II  N    N   GGGG   !!!           |
|                                                                             |
|     Tetrahedron method does not include variations of the Fermi             |
|     occupations, so forces and stress will be inaccurate. We suggest        |
|     using a different smearing scheme ISMEAR = 1 or 2 for metals in         |
|     relaxations.                                                            |
|                                                                             |
 -----------------------------------------------------------------------------

    4ORBIT:  cpu time      0.0000: real time      0.0000
 BZINTS: Fermi energy:    8.651297;   12.000000 electrons
         Band energy: 0.488130E+02;  BLOECHL correction:   -0.242199

 total amount of memory used by VASP MPI-rank0    39737. kBytes
=======================================================================

   base      :      30000. kBytes
   nonl-proj :       6537. kBytes
   fftplans  :        255. kBytes
   grid      :       1271. kBytes
   one-center:         12. kBytes
   wavefun   :       1662. kBytes
 
  
  
 General timing and accounting informations for this job:
 ========================================================
  
                  Total CPU time used (sec):       60.228
                            User time (sec):       58.122
                          System time (sec):        2.106
                         Elapsed time (sec):       63.002
  
                   Maximum memory used (kb):      687852.
                   Average memory used (kb):          N/A
  
                          Minor page faults:       148154
                          Major page faults:          127
                 Voluntary context switches:         4969
