  16  16   1   0
  0.2037500E+02  0.7550049E-09  0.7550049E-09  0.5810558E-09  0.5000000E-15
  1.000000000000000E-004
  CAR 
 unknown system                          
     10.83573607    -54.44312857  301      3.39044635      1.00000000
    -54.443  0.0000E+00  0.0000E+00  0.0000E+00  0.0000E+00
    -54.226  0.0000E+00  0.0000E+00  0.0000E+00  0.0000E+00
    -54.008  0.0000E+00  0.0000E+00  0.0000E+00  0.0000E+00
    -53.790  0.0000E+00  0.0000E+00  0.0000E+00  0.0000E+00
    -53.573  0.0000E+00  0.0000E+00  0.0000E+00  0.0000E+00
    -53.355  0.0000E+00  0.0000E+00  0.0000E+00  0.0000E+00
    -53.138  0.0000E+00  0.0000E+00  0.0000E+00  0.0000E+00
    -52.920  0.0000E+00  0.0000E+00  0.0000E+00  0.0000E+00
    -52.702  0.0000E+00  0.0000E+00  0.0000E+00  0.0000E+00
    -52.485  0.0000E+00  0.0000E+00  0.0000E+00  0.0000E+00
    -52.267  0.0000E+00  0.0000E+00  0.0000E+00  0.0000E+00
    -52.050  0.0000E+00  0.0000E+00  0.0000E+00  0.0000E+00
    -51.832  0.0000E+00  0.0000E+00  0.0000E+00  0.0000E+00
    -51.614  0.4199E-05  0.4199E-05  0.9136E-06  0.9136E-06
    -51.397  0.1829E+00  0.1829E+00  0.3979E-01  0.3979E-01
    -51.179  0.2794E+00  0.2794E+00  0.1006E+00  0.1006E+00
    -50.962  0.9284E-01  0.9284E-01  0.1208E+00  0.1208E+00
    -50.744  0.1987E-02  0.1987E-02  0.1212E+00  0.1212E+00
    -50.526  0.0000E+00  0.0000E+00  0.1212E+00  0.1212E+00
    -50.309  0.0000E+00  0.0000E+00  0.1212E+00  0.1212E+00
    -50.091  0.0000E+00  0.0000E+00  0.1212E+00  0.1212E+00
    -49.874  0.0000E+00  0.0000E+00  0.1212E+00  0.1212E+00
    -49.656  0.0000E+00  0.0000E+00  0.1212E+00  0.1212E+00
    -49.438  0.0000E+00  0.0000E+00  0.1212E+00  0.1212E+00
    -49.221  0.0000E+00  0.0000E+00  0.1212E+00  0.1212E+00
    -49.003  0.0000E+00  0.0000E+00  0.1212E+00  0.1212E+00
    -48.786  0.5551E-08  0.5551E-08  0.1212E+00  0.1212E+00
    -48.568  0.1647E+00  0.1647E+00  0.1571E+00  0.1571E+00
    -48.350  0.1313E+00  0.1313E+00  0.1856E+00  0.1856E+00
    -48.133  0.2607E+00  0.2607E+00  0.2424E+00  0.2424E+00
    -47.915  0.2636E-03  0.2636E-03  0.2424E+00  0.2424E+00
    -47.698  0.0000E+00  0.0000E+00  0.2424E+00  0.2424E+00
    -47.480  0.0000E+00  0.0000E+00  0.2424E+00  0.2424E+00
    -47.262  0.0000E+00  0.0000E+00  0.2424E+00  0.2424E+00
    -47.045  0.0000E+00  0.0000E+00  0.2424E+00  0.2424E+00
    -46.827  0.0000E+00  0.0000E+00  0.2424E+00  0.2424E+00
    -46.610  0.0000E+00  0.0000E+00  0.2424E+00  0.2424E+00
    -46.392  0.0000E+00  0.0000E+00  0.2424E+00  0.2424E+00
    -46.174  0.0000E+00  0.0000E+00  0.2424E+00  0.2424E+00
    -45.957  0.0000E+00  0.0000E+00  0.2424E+00  0.2424E+00
    -45.739  0.0000E+00  0.0000E+00  0.2424E+00  0.2424E+00
    -45.522  0.0000E+00  0.0000E+00  0.2424E+00  0.2424E+00
    -45.304  0.0000E+00  0.0000E+00  0.2424E+00  0.2424E+00
    -45.086  0.0000E+00  0.0000E+00  0.2424E+00  0.2424E+00
    -44.869  0.0000E+00  0.0000E+00  0.2424E+00  0.2424E+00
    -44.651  0.0000E+00  0.0000E+00  0.2424E+00  0.2424E+00
    -44.434  0.0000E+00  0.0000E+00  0.2424E+00  0.2424E+00
    -44.216  0.0000E+00  0.0000E+00  0.2424E+00  0.2424E+00
    -43.999  0.0000E+00  0.0000E+00  0.2424E+00  0.2424E+00
    -43.781  0.0000E+00  0.0000E+00  0.2424E+00  0.2424E+00
    -43.563  0.0000E+00  0.0000E+00  0.2424E+00  0.2424E+00
    -43.346  0.0000E+00  0.0000E+00  0.2424E+00  0.2424E+00
    -43.128  0.0000E+00  0.0000E+00  0.2424E+00  0.2424E+00
    -42.911  0.0000E+00  0.0000E+00  0.2424E+00  0.2424E+00
    -42.693  0.0000E+00  0.0000E+00  0.2424E+00  0.2424E+00
    -42.475  0.0000E+00  0.0000E+00  0.2424E+00  0.2424E+00
    -42.258  0.0000E+00  0.0000E+00  0.2424E+00  0.2424E+00
    -42.040  0.0000E+00  0.0000E+00  0.2424E+00  0.2424E+00
    -41.823  0.0000E+00  0.0000E+00  0.2424E+00  0.2424E+00
    -41.605  0.0000E+00  0.0000E+00  0.2424E+00  0.2424E+00
    -41.387  0.0000E+00  0.0000E+00  0.2424E+00  0.2424E+00
    -41.170  0.0000E+00  0.0000E+00  0.2424E+00  0.2424E+00
    -40.952  0.0000E+00  0.0000E+00  0.2424E+00  0.2424E+00
    -40.735  0.0000E+00  0.0000E+00  0.2424E+00  0.2424E+00
    -40.517  0.0000E+00  0.0000E+00  0.2424E+00  0.2424E+00
    -40.299  0.0000E+00  0.0000E+00  0.2424E+00  0.2424E+00
    -40.082  0.0000E+00  0.0000E+00  0.2424E+00  0.2424E+00
    -39.864  0.0000E+00  0.0000E+00  0.2424E+00  0.2424E+00
    -39.647  0.0000E+00  0.0000E+00  0.2424E+00  0.2424E+00
    -39.429  0.0000E+00  0.0000E+00  0.2424E+00  0.2424E+00
    -39.211  0.0000E+00  0.0000E+00  0.2424E+00  0.2424E+00
    -38.994  0.0000E+00  0.0000E+00  0.2424E+00  0.2424E+00
    -38.776  0.0000E+00  0.0000E+00  0.2424E+00  0.2424E+00
    -38.559  0.0000E+00  0.0000E+00  0.2424E+00  0.2424E+00
    -38.341  0.0000E+00  0.0000E+00  0.2424E+00  0.2424E+00
    -38.123  0.0000E+00  0.0000E+00  0.2424E+00  0.2424E+00
    -37.906  0.0000E+00  0.0000E+00  0.2424E+00  0.2424E+00
    -37.688  0.0000E+00  0.0000E+00  0.2424E+00  0.2424E+00
    -37.471  0.0000E+00  0.0000E+00  0.2424E+00  0.2424E+00
    -37.253  0.0000E+00  0.0000E+00  0.2424E+00  0.2424E+00
    -37.035  0.0000E+00  0.0000E+00  0.2424E+00  0.2424E+00
    -36.818  0.0000E+00  0.0000E+00  0.2424E+00  0.2424E+00
    -36.600  0.0000E+00  0.0000E+00  0.2424E+00  0.2424E+00
    -36.383  0.0000E+00  0.0000E+00  0.2424E+00  0.2424E+00
    -36.165  0.0000E+00  0.0000E+00  0.2424E+00  0.2424E+00
    -35.947  0.0000E+00  0.0000E+00  0.2424E+00  0.2424E+00
    -35.730  0.0000E+00  0.0000E+00  0.2424E+00  0.2424E+00
    -35.512  0.0000E+00  0.0000E+00  0.2424E+00  0.2424E+00
    -35.295  0.0000E+00  0.0000E+00  0.2424E+00  0.2424E+00
    -35.077  0.0000E+00  0.0000E+00  0.2424E+00  0.2424E+00
    -34.859  0.0000E+00  0.0000E+00  0.2424E+00  0.2424E+00
    -34.642  0.0000E+00  0.0000E+00  0.2424E+00  0.2424E+00
    -34.424  0.0000E+00  0.0000E+00  0.2424E+00  0.2424E+00
    -34.207  0.0000E+00  0.0000E+00  0.2424E+00  0.2424E+00
    -33.989  0.0000E+00  0.0000E+00  0.2424E+00  0.2424E+00
    -33.771  0.0000E+00  0.0000E+00  0.2424E+00  0.2424E+00
    -33.554  0.0000E+00  0.0000E+00  0.2424E+00  0.2424E+00
    -33.336  0.0000E+00  0.0000E+00  0.2424E+00  0.2424E+00
    -33.119  0.0000E+00  0.0000E+00  0.2424E+00  0.2424E+00
    -32.901  0.0000E+00  0.0000E+00  0.2424E+00  0.2424E+00
    -32.684  0.0000E+00  0.0000E+00  0.2424E+00  0.2424E+00
    -32.466  0.0000E+00  0.0000E+00  0.2424E+00  0.2424E+00
    -32.248  0.0000E+00  0.0000E+00  0.2424E+00  0.2424E+00
    -32.031  0.0000E+00  0.0000E+00  0.2424E+00  0.2424E+00
    -31.813  0.0000E+00  0.0000E+00  0.2424E+00  0.2424E+00
    -31.596  0.0000E+00  0.0000E+00  0.2424E+00  0.2424E+00
    -31.378  0.0000E+00  0.0000E+00  0.2424E+00  0.2424E+00
    -31.160  0.0000E+00  0.0000E+00  0.2424E+00  0.2424E+00
    -30.943  0.0000E+00  0.0000E+00  0.2424E+00  0.2424E+00
    -30.725  0.0000E+00  0.0000E+00  0.2424E+00  0.2424E+00
    -30.508  0.0000E+00  0.0000E+00  0.2424E+00  0.2424E+00
    -30.290  0.0000E+00  0.0000E+00  0.2424E+00  0.2424E+00
    -30.072  0.0000E+00  0.0000E+00  0.2424E+00  0.2424E+00
    -29.855  0.0000E+00  0.0000E+00  0.2424E+00  0.2424E+00
    -29.637  0.0000E+00  0.0000E+00  0.2424E+00  0.2424E+00
    -29.420  0.0000E+00  0.0000E+00  0.2424E+00  0.2424E+00
    -29.202  0.0000E+00  0.0000E+00  0.2424E+00  0.2424E+00
    -28.984  0.0000E+00  0.0000E+00  0.2424E+00  0.2424E+00
    -28.767  0.0000E+00  0.0000E+00  0.2424E+00  0.2424E+00
    -28.549  0.0000E+00  0.0000E+00  0.2424E+00  0.2424E+00
    -28.332  0.0000E+00  0.0000E+00  0.2424E+00  0.2424E+00
    -28.114  0.0000E+00  0.0000E+00  0.2424E+00  0.2424E+00
    -27.896  0.0000E+00  0.0000E+00  0.2424E+00  0.2424E+00
    -27.679  0.0000E+00  0.0000E+00  0.2424E+00  0.2424E+00
    -27.461  0.0000E+00  0.0000E+00  0.2424E+00  0.2424E+00
    -27.244  0.0000E+00  0.0000E+00  0.2424E+00  0.2424E+00
    -27.026  0.0000E+00  0.0000E+00  0.2424E+00  0.2424E+00
    -26.808  0.0000E+00  0.0000E+00  0.2424E+00  0.2424E+00
    -26.591  0.0000E+00  0.0000E+00  0.2424E+00  0.2424E+00
    -26.373  0.0000E+00  0.0000E+00  0.2424E+00  0.2424E+00
    -26.156  0.0000E+00  0.0000E+00  0.2424E+00  0.2424E+00
    -25.938  0.0000E+00  0.0000E+00  0.2424E+00  0.2424E+00
    -25.720  0.0000E+00  0.0000E+00  0.2424E+00  0.2424E+00
    -25.503  0.0000E+00  0.0000E+00  0.2424E+00  0.2424E+00
    -25.285  0.0000E+00  0.0000E+00  0.2424E+00  0.2424E+00
    -25.068  0.0000E+00  0.0000E+00  0.2424E+00  0.2424E+00
    -24.850  0.0000E+00  0.0000E+00  0.2424E+00  0.2424E+00
    -24.632  0.0000E+00  0.0000E+00  0.2424E+00  0.2424E+00
    -24.415  0.0000E+00  0.0000E+00  0.2424E+00  0.2424E+00
    -24.197  0.0000E+00  0.0000E+00  0.2424E+00  0.2424E+00
    -23.980  0.0000E+00  0.0000E+00  0.2424E+00  0.2424E+00
    -23.762  0.0000E+00  0.0000E+00  0.2424E+00  0.2424E+00
    -23.544  0.0000E+00  0.0000E+00  0.2424E+00  0.2424E+00
    -23.327  0.0000E+00  0.0000E+00  0.2424E+00  0.2424E+00
    -23.109  0.0000E+00  0.0000E+00  0.2424E+00  0.2424E+00
    -22.892  0.0000E+00  0.0000E+00  0.2424E+00  0.2424E+00
    -22.674  0.0000E+00  0.0000E+00  0.2424E+00  0.2424E+00
    -22.456  0.0000E+00  0.0000E+00  0.2424E+00  0.2424E+00
    -22.239  0.0000E+00  0.0000E+00  0.2424E+00  0.2424E+00
    -22.021  0.0000E+00  0.0000E+00  0.2424E+00  0.2424E+00
    -21.804  0.0000E+00  0.0000E+00  0.2424E+00  0.2424E+00
    -21.586  0.0000E+00  0.0000E+00  0.2424E+00  0.2424E+00
    -21.369  0.0000E+00  0.0000E+00  0.2424E+00  0.2424E+00
    -21.151  0.0000E+00  0.0000E+00  0.2424E+00  0.2424E+00
    -20.933  0.0000E+00  0.0000E+00  0.2424E+00  0.2424E+00
    -20.716  0.0000E+00  0.0000E+00  0.2424E+00  0.2424E+00
    -20.498  0.0000E+00  0.0000E+00  0.2424E+00  0.2424E+00
    -20.281  0.0000E+00  0.0000E+00  0.2424E+00  0.2424E+00
    -20.063  0.0000E+00  0.0000E+00  0.2424E+00  0.2424E+00
    -19.845  0.0000E+00  0.0000E+00  0.2424E+00  0.2424E+00
    -19.628  0.0000E+00  0.0000E+00  0.2424E+00  0.2424E+00
    -19.410  0.0000E+00  0.0000E+00  0.2424E+00  0.2424E+00
    -19.193  0.0000E+00  0.0000E+00  0.2424E+00  0.2424E+00
    -18.975  0.0000E+00  0.0000E+00  0.2424E+00  0.2424E+00
    -18.757  0.0000E+00  0.0000E+00  0.2424E+00  0.2424E+00
    -18.540  0.0000E+00  0.0000E+00  0.2424E+00  0.2424E+00
    -18.322  0.0000E+00  0.0000E+00  0.2424E+00  0.2424E+00
    -18.105  0.0000E+00  0.0000E+00  0.2424E+00  0.2424E+00
    -17.887  0.0000E+00  0.0000E+00  0.2424E+00  0.2424E+00
    -17.669  0.0000E+00  0.0000E+00  0.2424E+00  0.2424E+00
    -17.452  0.0000E+00  0.0000E+00  0.2424E+00  0.2424E+00
    -17.234  0.0000E+00  0.0000E+00  0.2424E+00  0.2424E+00
    -17.017  0.0000E+00  0.0000E+00  0.2424E+00  0.2424E+00
    -16.799  0.0000E+00  0.0000E+00  0.2424E+00  0.2424E+00
    -16.581  0.0000E+00  0.0000E+00  0.2424E+00  0.2424E+00
    -16.364  0.0000E+00  0.0000E+00  0.2424E+00  0.2424E+00
    -16.146  0.0000E+00  0.0000E+00  0.2424E+00  0.2424E+00
    -15.929  0.0000E+00  0.0000E+00  0.2424E+00  0.2424E+00
    -15.711  0.0000E+00  0.0000E+00  0.2424E+00  0.2424E+00
    -15.493  0.0000E+00  0.0000E+00  0.2424E+00  0.2424E+00
    -15.276  0.0000E+00  0.0000E+00  0.2424E+00  0.2424E+00
    -15.058  0.0000E+00  0.0000E+00  0.2424E+00  0.2424E+00
    -14.841  0.0000E+00  0.0000E+00  0.2424E+00  0.2424E+00
    -14.623  0.0000E+00  0.0000E+00  0.2424E+00  0.2424E+00
    -14.405  0.0000E+00  0.0000E+00  0.2424E+00  0.2424E+00
    -14.188  0.0000E+00  0.0000E+00  0.2424E+00  0.2424E+00
    -13.970  0.0000E+00  0.0000E+00  0.2424E+00  0.2424E+00
    -13.753  0.0000E+00  0.0000E+00  0.2424E+00  0.2424E+00
    -13.535  0.0000E+00  0.0000E+00  0.2424E+00  0.2424E+00
    -13.317  0.0000E+00  0.0000E+00  0.2424E+00  0.2424E+00
    -13.100  0.0000E+00  0.0000E+00  0.2424E+00  0.2424E+00
    -12.882  0.0000E+00  0.0000E+00  0.2424E+00  0.2424E+00
    -12.665  0.0000E+00  0.0000E+00  0.2424E+00  0.2424E+00
    -12.447  0.0000E+00  0.0000E+00  0.2424E+00  0.2424E+00
    -12.229  0.0000E+00  0.0000E+00  0.2424E+00  0.2424E+00
    -12.012  0.0000E+00  0.0000E+00  0.2424E+00  0.2424E+00
    -11.794  0.0000E+00  0.0000E+00  0.2424E+00  0.2424E+00
    -11.577  0.0000E+00  0.0000E+00  0.2424E+00  0.2424E+00
    -11.359  0.0000E+00  0.0000E+00  0.2424E+00  0.2424E+00
    -11.141  0.0000E+00  0.0000E+00  0.2424E+00  0.2424E+00
    -10.924  0.3331E-17  0.3331E-17  0.2424E+00  0.2424E+00
    -10.706  0.1964E-04  0.1964E-04  0.2424E+00  0.2424E+00
    -10.489  0.6399E-02  0.6399E-02  0.2438E+00  0.2438E+00
    -10.271  0.1672E-01  0.1672E-01  0.2475E+00  0.2475E+00
    -10.054  0.2714E-01  0.2714E-01  0.2534E+00  0.2534E+00
     -9.836  0.3929E-01  0.3929E-01  0.2619E+00  0.2619E+00
     -9.618  0.7941E-01  0.7941E-01  0.2792E+00  0.2792E+00
     -9.401  0.9794E-01  0.9794E-01  0.3005E+00  0.3005E+00
     -9.183  0.9219E-01  0.9219E-01  0.3206E+00  0.3206E+00
     -8.966  0.1220E-01  0.1220E-01  0.3232E+00  0.3232E+00
     -8.748  0.4684E-04  0.4684E-04  0.3232E+00  0.3232E+00
     -8.530  0.0000E+00  0.0000E+00  0.3232E+00  0.3232E+00
     -8.313  0.0000E+00  0.0000E+00  0.3232E+00  0.3232E+00
     -8.095  0.0000E+00  0.0000E+00  0.3232E+00  0.3232E+00
     -7.878  0.0000E+00  0.0000E+00  0.3232E+00  0.3232E+00
     -7.660  0.0000E+00  0.0000E+00  0.3232E+00  0.3232E+00
     -7.442  0.0000E+00  0.0000E+00  0.3232E+00  0.3232E+00
     -7.225  0.0000E+00  0.0000E+00  0.3232E+00  0.3232E+00
     -7.007  0.0000E+00  0.0000E+00  0.3232E+00  0.3232E+00
     -6.790  0.0000E+00  0.0000E+00  0.3232E+00  0.3232E+00
     -6.572  0.0000E+00  0.0000E+00  0.3232E+00  0.3232E+00
     -6.354  0.0000E+00  0.0000E+00  0.3232E+00  0.3232E+00
     -6.137  0.0000E+00  0.0000E+00  0.3232E+00  0.3232E+00
     -5.919  0.0000E+00  0.0000E+00  0.3232E+00  0.3232E+00
     -5.702  0.0000E+00  0.0000E+00  0.3232E+00  0.3232E+00
     -5.484  0.0000E+00  0.0000E+00  0.3232E+00  0.3232E+00
     -5.266  0.0000E+00  0.0000E+00  0.3232E+00  0.3232E+00
     -5.049  0.0000E+00  0.0000E+00  0.3232E+00  0.3232E+00
     -4.831  0.0000E+00  0.0000E+00  0.3232E+00  0.3232E+00
     -4.614  0.0000E+00  0.0000E+00  0.3232E+00  0.3232E+00
     -4.396  0.0000E+00  0.0000E+00  0.3232E+00  0.3232E+00
     -4.178  0.0000E+00  0.0000E+00  0.3232E+00  0.3232E+00
     -3.961  0.0000E+00  0.0000E+00  0.3232E+00  0.3232E+00
     -3.743  0.0000E+00  0.0000E+00  0.3232E+00  0.3232E+00
     -3.526  0.0000E+00  0.0000E+00  0.3232E+00  0.3232E+00
     -3.308  0.0000E+00  0.0000E+00  0.3232E+00  0.3232E+00
     -3.090  0.0000E+00  0.0000E+00  0.3232E+00  0.3232E+00
     -2.873  0.1169E-18  0.1169E-18  0.3232E+00  0.3232E+00
     -2.655  0.4387E-05  0.4387E-05  0.3232E+00  0.3232E+00
     -2.438  0.1933E-02  0.1933E-02  0.3237E+00  0.3237E+00
     -2.220  0.5583E-02  0.5583E-02  0.3249E+00  0.3249E+00
     -2.002  0.2991E-01  0.2991E-01  0.3314E+00  0.3314E+00
     -1.785  0.7224E-01  0.7224E-01  0.3471E+00  0.3471E+00
     -1.567  0.7633E-01  0.7633E-01  0.3637E+00  0.3637E+00
     -1.350  0.5320E-01  0.5320E-01  0.3753E+00  0.3753E+00
     -1.132  0.6446E-01  0.6446E-01  0.3893E+00  0.3893E+00
     -0.914  0.8456E-01  0.8456E-01  0.4077E+00  0.4077E+00
     -0.697  0.7002E-01  0.7002E-01  0.4229E+00  0.4229E+00
     -0.479  0.9617E-01  0.9617E-01  0.4439E+00  0.4439E+00
     -0.262  0.1200E+00  0.1200E+00  0.4700E+00  0.4700E+00
     -0.044  0.9718E-01  0.9718E-01  0.4911E+00  0.4911E+00
      0.174  0.1194E+00  0.1194E+00  0.5171E+00  0.5171E+00
      0.391  0.9518E-01  0.9518E-01  0.5378E+00  0.5378E+00
      0.609  0.7026E-01  0.7026E-01  0.5531E+00  0.5531E+00
      0.826  0.8616E-01  0.8616E-01  0.5718E+00  0.5718E+00
      1.044  0.1129E+00  0.1129E+00  0.5964E+00  0.5964E+00
      1.262  0.1144E+00  0.1144E+00  0.6213E+00  0.6213E+00
      1.479  0.1891E+00  0.1891E+00  0.6625E+00  0.6625E+00
      1.697  0.1683E+00  0.1683E+00  0.6991E+00  0.6991E+00
      1.914  0.8675E-01  0.8675E-01  0.7180E+00  0.7180E+00
      2.132  0.8095E-01  0.8095E-01  0.7356E+00  0.7356E+00
      2.349  0.5885E-01  0.5885E-01  0.7484E+00  0.7484E+00
      2.567  0.6093E-01  0.6093E-01  0.7616E+00  0.7616E+00
      2.785  0.4258E-01  0.4258E-01  0.7709E+00  0.7709E+00
      3.002  0.4146E-01  0.4146E-01  0.7799E+00  0.7799E+00
      3.220  0.5968E-01  0.5968E-01  0.7929E+00  0.7929E+00
      3.437  0.8530E-01  0.8530E-01  0.8115E+00  0.8115E+00
      3.655  0.7654E-01  0.7654E-01  0.8281E+00  0.8281E+00
      3.873  0.1480E+00  0.1480E+00  0.8603E+00  0.8603E+00
      4.090  0.1037E+00  0.1037E+00  0.8829E+00  0.8829E+00
      4.308  0.1061E+00  0.1061E+00  0.9060E+00  0.9060E+00
      4.525  0.8556E-01  0.8556E-01  0.9246E+00  0.9246E+00
      4.743  0.9485E-01  0.9485E-01  0.9452E+00  0.9452E+00
      4.961  0.6519E-01  0.6519E-01  0.9594E+00  0.9594E+00
      5.178  0.1060E-01  0.1060E-01  0.9617E+00  0.9617E+00
      5.396  0.1181E-01  0.1181E-01  0.9643E+00  0.9643E+00
      5.613  0.1418E-01  0.1418E-01  0.9674E+00  0.9674E+00
      5.831  0.9723E-02  0.9723E-02  0.9695E+00  0.9695E+00
      6.049  0.4961E-02  0.4961E-02  0.9706E+00  0.9706E+00
      6.266  0.6391E-02  0.6391E-02  0.9720E+00  0.9720E+00
      6.484  0.7320E-02  0.7320E-02  0.9736E+00  0.9736E+00
      6.701  0.1236E-01  0.1236E-01  0.9763E+00  0.9763E+00
      6.919  0.2291E-01  0.2291E-01  0.9812E+00  0.9812E+00
      7.137  0.3036E-01  0.3046E-01  0.9879E+00  0.9879E+00
      7.354  0.4569E-01  0.4540E-01  0.9978E+00  0.9977E+00
      7.572  0.3700E-01  0.3755E-01  0.1006E+01  0.1006E+01
      7.789  0.1564E-01  0.1491E-01  0.1009E+01  0.1009E+01
      8.007  0.3931E-02  0.4306E-02  0.1010E+01  0.1010E+01
      8.225  0.5270E-07  0.3725E-07  0.1010E+01  0.1010E+01
      8.442  0.0000E+00  0.0000E+00  0.1010E+01  0.1010E+01
      8.660  0.0000E+00  0.0000E+00  0.1010E+01  0.1010E+01
      8.877  0.0000E+00  0.0000E+00  0.1010E+01  0.1010E+01
      9.095  0.0000E+00  0.0000E+00  0.1010E+01  0.1010E+01
      9.313  0.0000E+00  0.0000E+00  0.1010E+01  0.1010E+01
      9.530  0.0000E+00  0.0000E+00  0.1010E+01  0.1010E+01
      9.748  0.0000E+00  0.0000E+00  0.1010E+01  0.1010E+01
      9.965  0.0000E+00  0.0000E+00  0.1010E+01  0.1010E+01
     10.183  0.0000E+00  0.0000E+00  0.1010E+01  0.1010E+01
     10.401  0.0000E+00  0.0000E+00  0.1010E+01  0.1010E+01
     10.618  0.0000E+00  0.0000E+00  0.1010E+01  0.1010E+01
     10.836  0.0000E+00  0.0000E+00  0.1010E+01  0.1010E+01
     10.83573607    -54.44312857  301      3.39044635      1.00000000
    -54.443  0.0000E+00  0.0000E+00  0.0000E+00  0.0000E+00  0.0000E+00  0.0000E+00  0.0000E+00  0.0000E+00  0.0000E+00  0.0000E+00  0.0000E+00  0.0000E+00  0.0000E+00  0.0000E+00  0.0000E+00  0.0000E+00  0.0000E+00  0.0000E+00
    -54.226  0.0000E+00  0.0000E+00  0.0000E+00  0.0000E+00  0.0000E+00  0.0000E+00  0.0000E+00  0.0000E+00  0.0000E+00  0.0000E+00  0.0000E+00  0.0000E+00  0.0000E+00  0.0000E+00  0.0000E+00  0.0000E+00  0.0000E+00  0.0000E+00
    -54.008  0.0000E+00  0.0000E+00  0.0000E+00  0.0000E+00  0.0000E+00  0.0000E+00  0.0000E+00  0.0000E+00  0.0000E+00  0.0000E+00  0.0000E+00  0.0000E+00  0.0000E+00  0.0000E+00  0.0000E+00  0.0000E+00  0.0000E+00  0.0000E+00
    -53.790  0.0000E+00  0.0000E+00  0.0000E+00  0.0000E+00  0.0000E+00  0.0000E+00  0.0000E+00  0.0000E+00  0.0000E+00  0.0000E+00  0.0000E+00  0.0000E+00  0.0000E+00  0.0000E+00  0.0000E+00  0.0000E+00  0.0000E+00  0.0000E+00
    -53.573  0.0000E+00  0.0000E+00  0.0000E+00  0.0000E+00  0.0000E+00  0.0000E+00  0.0000E+00  0.0000E+00  0.0000E+00  0.0000E+00  0.0000E+00  0.0000E+00  0.0000E+00  0.0000E+00  0.0000E+00  0.0000E+00  0.0000E+00  0.0000E+00
    -53.355  0.0000E+00  0.0000E+00  0.0000E+00  0.0000E+00  0.0000E+00  0.0000E+00  0.0000E+00  0.0000E+00  0.0000E+00  0.0000E+00  0.0000E+00  0.0000E+00  0.0000E+00  0.0000E+00  0.0000E+00  0.0000E+00  0.0000E+00  0.0000E+00
    -53.138  0.0000E+00  0.0000E+00  0.0000E+00  0.0000E+00  0.0000E+00  0.0000E+00  0.0000E+00  0.0000E+00  0.0000E+00  0.0000E+00  0.0000E+00  0.0000E+00  0.0000E+00  0.0000E+00  0.0000E+00  0.0000E+00  0.0000E+00  0.0000E+00
    -52.920  0.0000E+00  0.0000E+00  0.0000E+00  0.0000E+00  0.0000E+00  0.0000E+00  0.0000E+00  0.0000E+00  0.0000E+00  0.0000E+00  0.0000E+00  0.0000E+00  0.0000E+00  0.0000E+00  0.0000E+00  0.0000E+00  0.0000E+00  0.0000E+00
    -52.702  0.0000E+00  0.0000E+00  0.0000E+00  0.0000E+00  0.0000E+00  0.0000E+00  0.0000E+00  0.0000E+00  0.0000E+00  0.0000E+00  0.0000E+00  0.0000E+00  0.0000E+00  0.0000E+00  0.0000E+00  0.0000E+00  0.0000E+00  0.0000E+00
    -52.485  0.0000E+00  0.0000E+00  0.0000E+00  0.0000E+00  0.0000E+00  0.0000E+00  0.0000E+00  0.0000E+00  0.0000E+00  0.0000E+00  0.0000E+00  0.0000E+00  0.0000E+00  0.0000E+00  0.0000E+00  0.0000E+00  0.0000E+00  0.0000E+00
    -52.267  0.0000E+00  0.0000E+00  0.0000E+00  0.0000E+00  0.0000E+00  0.0000E+00  0.0000E+00  0.0000E+00  0.0000E+00  0.0000E+00  0.0000E+00  0.0000E+00  0.0000E+00  0.0000E+00  0.0000E+00  0.0000E+00  0.0000E+00  0.0000E+00
    -52.050  0.0000E+00  0.0000E+00  0.0000E+00  0.0000E+00  0.0000E+00  0.0000E+00  0.0000E+00  0.0000E+00  0.0000E+00  0.0000E+00  0.0000E+00  0.0000E+00  0.0000E+00  0.0000E+00  0.0000E+00  0.0000E+00  0.0000E+00  0.0000E+00
    -51.832  0.0000E+00  0.0000E+00  0.0000E+00  0.0000E+00  0.0000E+00  0.0000E+00  0.0000E+00  0.0000E+00  0.0000E+00  0.0000E+00  0.0000E+00  0.0000E+00  0.0000E+00  0.0000E+00  0.0000E+00  0.0000E+00  0.0000E+00  0.0000E+00
    -51.614  0.3867E-15  0.2503E-10  0.2978E-04  0.1243E-08  0.7369E-04  0.8966E-10  0.2400E-14  0.5917E-12  0.4816E-10  0.5198E-13  0.1004E-14  0.4675E-11  0.7760E-15  0.7200E-11  0.1122E-09  0.2514E-14  0.1047E-14  0.2850E-10
    -51.397  0.1243E-06  0.1221E-05  0.1415E+01  0.6013E-04  0.3067E+01  0.3843E-05  0.2511E-01  0.4177E-07  0.2434E-05  0.3558E-08  0.5025E-10  0.1982E-06  0.5688E-07  0.3568E-06  0.5292E-05  0.1223E-09  0.1707E-06  0.1349E-05
    -51.179  0.6782E-04  0.2145E-05  0.3157E+01  0.1206E-03  0.1508E+01  0.2175E-06  0.2221E+01  0.1026E-05  0.5521E-05  0.8029E-07  0.3865E-09  0.1268E-07  0.3101E-04  0.8178E-06  0.2608E-05  0.1317E-09  0.9304E-04  0.2588E-05
    -50.962  0.7375E-04  0.6206E-08  0.6290E-02  0.2966E-06  0.2624E-02  0.9613E-09  0.2283E+01  0.5053E-06  0.1015E-07  0.4340E-07  0.3995E-09  0.4600E-10  0.3369E-04  0.2332E-08  0.4395E-08  0.7552E-10  0.1011E-03  0.5265E-08
    -50.744  0.2710E-06  0.7595E-11  0.3538E-12  0.2452E-09  0.3329E-13  0.2786E-11  0.4909E-01  0.8360E-08  0.1039E-12  0.7470E-09  0.2004E-11  0.1172E-11  0.1238E-06  0.3458E-11  0.6421E-13  0.2498E-11  0.3711E-06  0.1069E-11
    -50.526  0.0000E+00  0.0000E+00  0.0000E+00  0.0000E+00  0.0000E+00  0.0000E+00  0.0000E+00  0.0000E+00  0.0000E+00  0.0000E+00  0.0000E+00  0.0000E+00  0.0000E+00  0.0000E+00  0.0000E+00  0.0000E+00  0.0000E+00  0.0000E+00
    -50.309  0.0000E+00  0.0000E+00  0.0000E+00  0.0000E+00  0.0000E+00  0.0000E+00  0.0000E+00  0.0000E+00  0.0000E+00  0.0000E+00  0.0000E+00  0.0000E+00  0.0000E+00  0.0000E+00  0.0000E+00  0.0000E+00  0.0000E+00  0.0000E+00
    -50.091  0.0000E+00  0.0000E+00  0.0000E+00  0.0000E+00  0.0000E+00  0.0000E+00  0.0000E+00  0.0000E+00  0.0000E+00  0.0000E+00  0.0000E+00  0.0000E+00  0.0000E+00  0.0000E+00  0.0000E+00  0.0000E+00  0.0000E+00  0.0000E+00
    -49.874  0.0000E+00  0.0000E+00  0.0000E+00  0.0000E+00  0.0000E+00  0.0000E+00  0.0000E+00  0.0000E+00  0.0000E+00  0.0000E+00  0.0000E+00  0.0000E+00  0.0000E+00  0.0000E+00  0.0000E+00  0.0000E+00  0.0000E+00  0.0000E+00
    -49.656  0.0000E+00  0.0000E+00  0.0000E+00  0.0000E+00  0.0000E+00  0.0000E+00  0.0000E+00  0.0000E+00  0.0000E+00  0.0000E+00  0.0000E+00  0.0000E+00  0.0000E+00  0.0000E+00  0.0000E+00  0.0000E+00  0.0000E+00  0.0000E+00
    -49.438  0.0000E+00  0.0000E+00  0.0000E+00  0.0000E+00  0.0000E+00  0.0000E+00  0.0000E+00  0.0000E+00  0.0000E+00  0.0000E+00  0.0000E+00  0.0000E+00  0.0000E+00  0.0000E+00  0.0000E+00  0.0000E+00  0.0000E+00  0.0000E+00
    -49.221  0.0000E+00  0.0000E+00  0.0000E+00  0.0000E+00  0.0000E+00  0.0000E+00  0.0000E+00  0.0000E+00  0.0000E+00  0.0000E+00  0.0000E+00  0.0000E+00  0.0000E+00  0.0000E+00  0.0000E+00  0.0000E+00  0.0000E+00  0.0000E+00
    -49.003  0.0000E+00  0.0000E+00  0.0000E+00  0.0000E+00  0.0000E+00  0.0000E+00  0.0000E+00  0.0000E+00  0.0000E+00  0.0000E+00  0.0000E+00  0.0000E+00  0.0000E+00  0.0000E+00  0.0000E+00  0.0000E+00  0.0000E+00  0.0000E+00
    -48.786  0.7693E-13  0.2797E-14  0.3761E-11  0.6404E-07  0.6761E-13  0.7157E-07  0.3472E-14  0.1200E-08  0.1276E-15  0.1290E-12  0.8462E-14  0.2801E-17  0.2307E-13  0.1271E-14  0.1707E-17  0.1439E-12  0.8553E-13  0.3829E-14
    -48.568  0.2009E-05  0.5983E-05  0.9921E-04  0.1673E+01  0.1743E-05  0.1841E+01  0.4167E-06  0.5443E+00  0.3133E-07  0.3492E-05  0.2168E-06  0.3253E-09  0.6034E-06  0.2724E-05  0.6898E-10  0.3867E-05  0.2220E-05  0.8201E-05
    -48.350  0.6147E-06  0.1094E-03  0.3040E-04  0.5108E+00  0.5269E-06  0.5588E+00  0.1105E-05  0.2166E+01  0.9700E-07  0.1078E-05  0.6537E-07  0.2984E-08  0.1851E-06  0.5010E-04  0.9286E-10  0.1189E-05  0.6765E-06  0.1506E-03
    -48.133  0.2279E-05  0.5738E-04  0.9392E-04  0.2393E+01  0.7179E-06  0.2176E+01  0.5369E-06  0.1865E+01  0.4962E-07  0.5113E-05  0.4114E-07  0.1417E-08  0.8871E-06  0.2632E-04  0.1059E-09  0.4678E-05  0.2725E-05  0.7909E-04
    -47.915  0.1452E-08  0.1629E-07  0.6035E-07  0.1537E-02  0.4592E-09  0.1385E-02  0.7818E-09  0.3590E-02  0.7926E-10  0.3191E-08  0.2610E-10  0.4580E-12  0.5652E-09  0.7483E-08  0.1361E-12  0.2905E-08  0.1744E-08  0.2247E-07
    -47.698  0.0000E+00  0.0000E+00  0.0000E+00  0.0000E+00  0.0000E+00  0.0000E+00  0.0000E+00  0.0000E+00  0.0000E+00  0.0000E+00  0.0000E+00  0.0000E+00  0.0000E+00  0.0000E+00  0.0000E+00  0.0000E+00  0.0000E+00  0.0000E+00
    -47.480  0.0000E+00  0.0000E+00  0.0000E+00  0.0000E+00  0.0000E+00  0.0000E+00  0.0000E+00  0.0000E+00  0.0000E+00  0.0000E+00  0.0000E+00  0.0000E+00  0.0000E+00  0.0000E+00  0.0000E+00  0.0000E+00  0.0000E+00  0.0000E+00
    -47.262  0.0000E+00  0.0000E+00  0.0000E+00  0.0000E+00  0.0000E+00  0.0000E+00  0.0000E+00  0.0000E+00  0.0000E+00  0.0000E+00  0.0000E+00  0.0000E+00  0.0000E+00  0.0000E+00  0.0000E+00  0.0000E+00  0.0000E+00  0.0000E+00
    -47.045  0.0000E+00  0.0000E+00  0.0000E+00  0.0000E+00  0.0000E+00  0.0000E+00  0.0000E+00  0.0000E+00  0.0000E+00  0.0000E+00  0.0000E+00  0.0000E+00  0.0000E+00  0.0000E+00  0.0000E+00  0.0000E+00  0.0000E+00  0.0000E+00
    -46.827  0.0000E+00  0.0000E+00  0.0000E+00  0.0000E+00  0.0000E+00  0.0000E+00  0.0000E+00  0.0000E+00  0.0000E+00  0.0000E+00  0.0000E+00  0.0000E+00  0.0000E+00  0.0000E+00  0.0000E+00  0.0000E+00  0.0000E+00  0.0000E+00
    -46.610  0.0000E+00  0.0000E+00  0.0000E+00  0.0000E+00  0.0000E+00  0.0000E+00  0.0000E+00  0.0000E+00  0.0000E+00  0.0000E+00  0.0000E+00  0.0000E+00  0.0000E+00  0.0000E+00  0.0000E+00  0.0000E+00  0.0000E+00  0.0000E+00
    -46.392  0.0000E+00  0.0000E+00  0.0000E+00  0.0000E+00  0.0000E+00  0.0000E+00  0.0000E+00  0.0000E+00  0.0000E+00  0.0000E+00  0.0000E+00  0.0000E+00  0.0000E+00  0.0000E+00  0.0000E+00  0.0000E+00  0.0000E+00  0.0000E+00
    -46.174  0.0000E+00  0.0000E+00  0.0000E+00  0.0000E+00  0.0000E+00  0.0000E+00  0.0000E+00  0.0000E+00  0.0000E+00  0.0000E+00  0.0000E+00  0.0000E+00  0.0000E+00  0.0000E+00  0.0000E+00  0.0000E+00  0.0000E+00  0.0000E+00
    -45.957  0.0000E+00  0.0000E+00  0.0000E+00  0.0000E+00  0.0000E+00  0.0000E+00  0.0000E+00  0.0000E+00  0.0000E+00  0.0000E+00  0.0000E+00  0.0000E+00  0.0000E+00  0.0000E+00  0.0000E+00  0.0000E+00  0.0000E+00  0.0000E+00
    -45.739  0.0000E+00  0.0000E+00  0.0000E+00  0.0000E+00  0.0000E+00  0.0000E+00  0.0000E+00  0.0000E+00  0.0000E+00  0.0000E+00  0.0000E+00  0.0000E+00  0.0000E+00  0.0000E+00  0.0000E+00  0.0000E+00  0.0000E+00  0.0000E+00
    -45.522  0.0000E+00  0.0000E+00  0.0000E+00  0.0000E+00  0.0000E+00  0.0000E+00  0.0000E+00  0.0000E+00  0.0000E+00  0.0000E+00  0.0000E+00  0.0000E+00  0.0000E+00  0.0000E+00  0.0000E+00  0.0000E+00  0.0000E+00  0.0000E+00
    -45.304  0.0000E+00  0.0000E+00  0.0000E+00  0.0000E+00  0.0000E+00  0.0000E+00  0.0000E+00  0.0000E+00  0.0000E+00  0.0000E+00  0.0000E+00  0.0000E+00  0.0000E+00  0.0000E+00  0.0000E+00  0.0000E+00  0.0000E+00  0.0000E+00
    -45.086  0.0000E+00  0.0000E+00  0.0000E+00  0.0000E+00  0.0000E+00  0.0000E+00  0.0000E+00  0.0000E+00  0.0000E+00  0.0000E+00  0.0000E+00  0.0000E+00  0.0000E+00  0.0000E+00  0.0000E+00  0.0000E+00  0.0000E+00  0.0000E+00
    -44.869  0.0000E+00  0.0000E+00  0.0000E+00  0.0000E+00  0.0000E+00  0.0000E+00  0.0000E+00  0.0000E+00  0.0000E+00  0.0000E+00  0.0000E+00  0.0000E+00  0.0000E+00  0.0000E+00  0.0000E+00  0.0000E+00  0.0000E+00  0.0000E+00
    -44.651  0.0000E+00  0.0000E+00  0.0000E+00  0.0000E+00  0.0000E+00  0.0000E+00  0.0000E+00  0.0000E+00  0.0000E+00  0.0000E+00  0.0000E+00  0.0000E+00  0.0000E+00  0.0000E+00  0.0000E+00  0.0000E+00  0.0000E+00  0.0000E+00
    -44.434  0.0000E+00  0.0000E+00  0.0000E+00  0.0000E+00  0.0000E+00  0.0000E+00  0.0000E+00  0.0000E+00  0.0000E+00  0.0000E+00  0.0000E+00  0.0000E+00  0.0000E+00  0.0000E+00  0.0000E+00  0.0000E+00  0.0000E+00  0.0000E+00
    -44.216  0.0000E+00  0.0000E+00  0.0000E+00  0.0000E+00  0.0000E+00  0.0000E+00  0.0000E+00  0.0000E+00  0.0000E+00  0.0000E+00  0.0000E+00  0.0000E+00  0.0000E+00  0.0000E+00  0.0000E+00  0.0000E+00  0.0000E+00  0.0000E+00
    -43.999  0.0000E+00  0.0000E+00  0.0000E+00  0.0000E+00  0.0000E+00  0.0000E+00  0.0000E+00  0.0000E+00  0.0000E+00  0.0000E+00  0.0000E+00  0.0000E+00  0.0000E+00  0.0000E+00  0.0000E+00  0.0000E+00  0.0000E+00  0.0000E+00
    -43.781  0.0000E+00  0.0000E+00  0.0000E+00  0.0000E+00  0.0000E+00  0.0000E+00  0.0000E+00  0.0000E+00  0.0000E+00  0.0000E+00  0.0000E+00  0.0000E+00  0.0000E+00  0.0000E+00  0.0000E+00  0.0000E+00  0.0000E+00  0.0000E+00
    -43.563  0.0000E+00  0.0000E+00  0.0000E+00  0.0000E+00  0.0000E+00  0.0000E+00  0.0000E+00  0.0000E+00  0.0000E+00  0.0000E+00  0.0000E+00  0.0000E+00  0.0000E+00  0.0000E+00  0.0000E+00  0.0000E+00  0.0000E+00  0.0000E+00