  16  16   1   0
  0.2037500E+02  0.7566120E-09  0.7566120E-09  0.5781599E-09  0.5000000E-15
  1.000000000000000E-004
  CAR 
 unknown system                          
     11.01564383    -54.44721965  301      3.38940857      1.00000000
    -54.447  0.0000E+00  0.0000E+00  0.0000E+00  0.0000E+00
    -54.229  0.0000E+00  0.0000E+00  0.0000E+00  0.0000E+00
    -54.011  0.0000E+00  0.0000E+00  0.0000E+00  0.0000E+00
    -53.793  0.0000E+00  0.0000E+00  0.0000E+00  0.0000E+00
    -53.574  0.0000E+00  0.0000E+00  0.0000E+00  0.0000E+00
    -53.356  0.0000E+00  0.0000E+00  0.0000E+00  0.0000E+00
    -53.138  0.0000E+00  0.0000E+00  0.0000E+00  0.0000E+00
    -52.920  0.0000E+00  0.0000E+00  0.0000E+00  0.0000E+00
    -52.702  0.0000E+00  0.0000E+00  0.0000E+00  0.0000E+00
    -52.483  0.0000E+00  0.0000E+00  0.0000E+00  0.0000E+00
    -52.265  0.0000E+00  0.0000E+00  0.0000E+00  0.0000E+00
    -52.047  0.0000E+00  0.0000E+00  0.0000E+00  0.0000E+00
    -51.829  0.0000E+00  0.0000E+00  0.0000E+00  0.0000E+00
    -51.610  0.0000E+00  0.0000E+00  0.0000E+00  0.0000E+00
    -51.392  0.1833E+02  0.1833E+02  0.4000E+01  0.4000E+01
    -51.174  0.3467E+02  0.3467E+02  0.9983E+01  0.9983E+01
    -50.956  0.9166E+01  0.9166E+01  0.1200E+02  0.1200E+02
    -50.738  0.0000E+00  0.0000E+00  0.1200E+02  0.1200E+02
    -50.519  0.0000E+00  0.0000E+00  0.1200E+02  0.1200E+02
    -50.301  0.0000E+00  0.0000E+00  0.1200E+02  0.1200E+02
    -50.083  0.0000E+00  0.0000E+00  0.1200E+02  0.1200E+02
    -49.865  0.0000E+00  0.0000E+00  0.1200E+02  0.1200E+02
    -49.647  0.0000E+00  0.0000E+00  0.1200E+02  0.1200E+02
    -49.428  0.0000E+00  0.0000E+00  0.1200E+02  0.1200E+02
    -49.210  0.0000E+00  0.0000E+00  0.1200E+02  0.1200E+02
    -48.992  0.0000E+00  0.0000E+00  0.1200E+02  0.1200E+02
    -48.774  0.0000E+00  0.0000E+00  0.1200E+02  0.1200E+02
    -48.556  0.1833E+02  0.1833E+02  0.1600E+02  0.1600E+02
    -48.337  0.1844E+02  0.1844E+02  0.1832E+02  0.1832E+02
    -48.119  0.2488E+02  0.2488E+02  0.2400E+02  0.2400E+02
    -47.901  0.0000E+00  0.0000E+00  0.2400E+02  0.2400E+02
    -47.683  0.0000E+00  0.0000E+00  0.2400E+02  0.2400E+02
    -47.465  0.0000E+00  0.0000E+00  0.2400E+02  0.2400E+02
    -47.246  0.0000E+00  0.0000E+00  0.2400E+02  0.2400E+02
    -47.028  0.0000E+00  0.0000E+00  0.2400E+02  0.2400E+02
    -46.810  0.0000E+00  0.0000E+00  0.2400E+02  0.2400E+02
    -46.592  0.0000E+00  0.0000E+00  0.2400E+02  0.2400E+02
    -46.373  0.0000E+00  0.0000E+00  0.2400E+02  0.2400E+02
    -46.155  0.0000E+00  0.0000E+00  0.2400E+02  0.2400E+02
    -45.937  0.0000E+00  0.0000E+00  0.2400E+02  0.2400E+02
    -45.719  0.0000E+00  0.0000E+00  0.2400E+02  0.2400E+02
    -45.501  0.0000E+00  0.0000E+00  0.2400E+02  0.2400E+02
    -45.282  0.0000E+00  0.0000E+00  0.2400E+02  0.2400E+02
    -45.064  0.0000E+00  0.0000E+00  0.2400E+02  0.2400E+02
    -44.846  0.0000E+00  0.0000E+00  0.2400E+02  0.2400E+02
    -44.628  0.0000E+00  0.0000E+00  0.2400E+02  0.2400E+02
    -44.410  0.0000E+00  0.0000E+00  0.2400E+02  0.2400E+02
    -44.191  0.0000E+00  0.0000E+00  0.2400E+02  0.2400E+02
    -43.973  0.0000E+00  0.0000E+00  0.2400E+02  0.2400E+02
    -43.755  0.0000E+00  0.0000E+00  0.2400E+02  0.2400E+02
    -43.537  0.0000E+00  0.0000E+00  0.2400E+02  0.2400E+02
    -43.319  0.0000E+00  0.0000E+00  0.2400E+02  0.2400E+02
    -43.100  0.0000E+00  0.0000E+00  0.2400E+02  0.2400E+02
    -42.882  0.0000E+00  0.0000E+00  0.2400E+02  0.2400E+02
    -42.664  0.0000E+00  0.0000E+00  0.2400E+02  0.2400E+02
    -42.446  0.0000E+00  0.0000E+00  0.2400E+02  0.2400E+02
    -42.227  0.0000E+00  0.0000E+00  0.2400E+02  0.2400E+02
    -42.009  0.0000E+00  0.0000E+00  0.2400E+02  0.2400E+02
    -41.791  0.0000E+00  0.0000E+00  0.2400E+02  0.2400E+02
    -41.573  0.0000E+00  0.0000E+00  0.2400E+02  0.2400E+02
    -41.355  0.0000E+00  0.0000E+00  0.2400E+02  0.2400E+02
    -41.136  0.0000E+00  0.0000E+00  0.2400E+02  0.2400E+02
    -40.918  0.0000E+00  0.0000E+00  0.2400E+02  0.2400E+02
    -40.700  0.0000E+00  0.0000E+00  0.2400E+02  0.2400E+02
    -40.482  0.0000E+00  0.0000E+00  0.2400E+02  0.2400E+02
    -40.264  0.0000E+00  0.0000E+00  0.2400E+02  0.2400E+02
    -40.045  0.0000E+00  0.0000E+00  0.2400E+02  0.2400E+02
    -39.827  0.0000E+00  0.0000E+00  0.2400E+02  0.2400E+02
    -39.609  0.0000E+00  0.0000E+00  0.2400E+02  0.2400E+02
    -39.391  0.0000E+00  0.0000E+00  0.2400E+02  0.2400E+02
    -39.173  0.0000E+00  0.0000E+00  0.2400E+02  0.2400E+02
    -38.954  0.0000E+00  0.0000E+00  0.2400E+02  0.2400E+02
    -38.736  0.0000E+00  0.0000E+00  0.2400E+02  0.2400E+02
    -38.518  0.0000E+00  0.0000E+00  0.2400E+02  0.2400E+02
    -38.300  0.0000E+00  0.0000E+00  0.2400E+02  0.2400E+02
    -38.082  0.0000E+00  0.0000E+00  0.2400E+02  0.2400E+02
    -37.863  0.0000E+00  0.0000E+00  0.2400E+02  0.2400E+02
    -37.645  0.0000E+00  0.0000E+00  0.2400E+02  0.2400E+02
    -37.427  0.0000E+00  0.0000E+00  0.2400E+02  0.2400E+02
    -37.209  0.0000E+00  0.0000E+00  0.2400E+02  0.2400E+02
    -36.990  0.0000E+00  0.0000E+00  0.2400E+02  0.2400E+02
    -36.772  0.0000E+00  0.0000E+00  0.2400E+02  0.2400E+02
    -36.554  0.0000E+00  0.0000E+00  0.2400E+02  0.2400E+02
    -36.336  0.0000E+00  0.0000E+00  0.2400E+02  0.2400E+02
    -36.118  0.0000E+00  0.0000E+00  0.2400E+02  0.2400E+02
    -35.899  0.0000E+00  0.0000E+00  0.2400E+02  0.2400E+02
    -35.681  0.0000E+00  0.0000E+00  0.2400E+02  0.2400E+02
    -35.463  0.0000E+00  0.0000E+00  0.2400E+02  0.2400E+02
    -35.245  0.0000E+00  0.0000E+00  0.2400E+02  0.2400E+02
    -35.027  0.0000E+00  0.0000E+00  0.2400E+02  0.2400E+02
    -34.808  0.0000E+00  0.0000E+00  0.2400E+02  0.2400E+02
    -34.590  0.0000E+00  0.0000E+00  0.2400E+02  0.2400E+02
    -34.372  0.0000E+00  0.0000E+00  0.2400E+02  0.2400E+02
    -34.154  0.0000E+00  0.0000E+00  0.2400E+02  0.2400E+02
    -33.936  0.0000E+00  0.0000E+00  0.2400E+02  0.2400E+02
    -33.717  0.0000E+00  0.0000E+00  0.2400E+02  0.2400E+02
    -33.499  0.0000E+00  0.0000E+00  0.2400E+02  0.2400E+02
    -33.281  0.0000E+00  0.0000E+00  0.2400E+02  0.2400E+02
    -33.063  0.0000E+00  0.0000E+00  0.2400E+02  0.2400E+02
    -32.844  0.0000E+00  0.0000E+00  0.2400E+02  0.2400E+02
    -32.626  0.0000E+00  0.0000E+00  0.2400E+02  0.2400E+02
    -32.408  0.0000E+00  0.0000E+00  0.2400E+02  0.2400E+02
    -32.190  0.0000E+00  0.0000E+00  0.2400E+02  0.2400E+02
    -31.972  0.0000E+00  0.0000E+00  0.2400E+02  0.2400E+02
    -31.753  0.0000E+00  0.0000E+00  0.2400E+02  0.2400E+02
    -31.535  0.0000E+00  0.0000E+00  0.2400E+02  0.2400E+02
    -31.317  0.0000E+00  0.0000E+00  0.2400E+02  0.2400E+02
    -31.099  0.0000E+00  0.0000E+00  0.2400E+02  0.2400E+02
    -30.881  0.0000E+00  0.0000E+00  0.2400E+02  0.2400E+02
    -30.662  0.0000E+00  0.0000E+00  0.2400E+02  0.2400E+02
    -30.444  0.0000E+00  0.0000E+00  0.2400E+02  0.2400E+02
    -30.226  0.0000E+00  0.0000E+00  0.2400E+02  0.2400E+02
    -30.008  0.0000E+00  0.0000E+00  0.2400E+02  0.2400E+02
    -29.790  0.0000E+00  0.0000E+00  0.2400E+02  0.2400E+02
    -29.571  0.0000E+00  0.0000E+00  0.2400E+02  0.2400E+02
    -29.353  0.0000E+00  0.0000E+00  0.2400E+02  0.2400E+02
    -29.135  0.0000E+00  0.0000E+00  0.2400E+02  0.2400E+02
    -28.917  0.0000E+00  0.0000E+00  0.2400E+02  0.2400E+02
    -28.698  0.0000E+00  0.0000E+00  0.2400E+02  0.2400E+02
    -28.480  0.0000E+00  0.0000E+00  0.2400E+02  0.2400E+02
    -28.262  0.0000E+00  0.0000E+00  0.2400E+02  0.2400E+02
    -28.044  0.0000E+00  0.0000E+00  0.2400E+02  0.2400E+02
    -27.826  0.0000E+00  0.0000E+00  0.2400E+02  0.2400E+02
    -27.607  0.0000E+00  0.0000E+00  0.2400E+02  0.2400E+02
    -27.389  0.0000E+00  0.0000E+00  0.2400E+02  0.2400E+02
    -27.171  0.0000E+00  0.0000E+00  0.2400E+02  0.2400E+02
    -26.953  0.0000E+00  0.0000E+00  0.2400E+02  0.2400E+02
    -26.735  0.0000E+00  0.0000E+00  0.2400E+02  0.2400E+02
    -26.516  0.0000E+00  0.0000E+00  0.2400E+02  0.2400E+02
    -26.298  0.0000E+00  0.0000E+00  0.2400E+02  0.2400E+02
    -26.080  0.0000E+00  0.0000E+00  0.2400E+02  0.2400E+02
    -25.862  0.0000E+00  0.0000E+00  0.2400E+02  0.2400E+02
    -25.644  0.0000E+00  0.0000E+00  0.2400E+02  0.2400E+02
    -25.425  0.0000E+00  0.0000E+00  0.2400E+02  0.2400E+02
    -25.207  0.0000E+00  0.0000E+00  0.2400E+02  0.2400E+02
    -24.989  0.0000E+00  0.0000E+00  0.2400E+02  0.2400E+02
    -24.771  0.0000E+00  0.0000E+00  0.2400E+02  0.2400E+02
    -24.553  0.0000E+00  0.0000E+00  0.2400E+02  0.2400E+02
    -24.334  0.0000E+00  0.0000E+00  0.2400E+02  0.2400E+02
    -24.116  0.0000E+00  0.0000E+00  0.2400E+02  0.2400E+02
    -23.898  0.0000E+00  0.0000E+00  0.2400E+02  0.2400E+02
    -23.680  0.0000E+00  0.0000E+00  0.2400E+02  0.2400E+02
    -23.461  0.0000E+00  0.0000E+00  0.2400E+02  0.2400E+02
    -23.243  0.0000E+00  0.0000E+00  0.2400E+02  0.2400E+02
    -23.025  0.0000E+00  0.0000E+00  0.2400E+02  0.2400E+02
    -22.807  0.0000E+00  0.0000E+00  0.2400E+02  0.2400E+02
    -22.589  0.0000E+00  0.0000E+00  0.2400E+02  0.2400E+02
    -22.370  0.0000E+00  0.0000E+00  0.2400E+02  0.2400E+02
    -22.152  0.0000E+00  0.0000E+00  0.2400E+02  0.2400E+02
    -21.934  0.0000E+00  0.0000E+00  0.2400E+02  0.2400E+02
    -21.716  0.0000E+00  0.0000E+00  0.2400E+02  0.2400E+02
    -21.498  0.0000E+00  0.0000E+00  0.2400E+02  0.2400E+02
    -21.279  0.0000E+00  0.0000E+00  0.2400E+02  0.2400E+02
    -21.061  0.0000E+00  0.0000E+00  0.2400E+02  0.2400E+02
    -20.843  0.0000E+00  0.0000E+00  0.2400E+02  0.2400E+02
    -20.625  0.0000E+00  0.0000E+00  0.2400E+02  0.2400E+02
    -20.407  0.0000E+00  0.0000E+00  0.2400E+02  0.2400E+02
    -20.188  0.0000E+00  0.0000E+00  0.2400E+02  0.2400E+02
    -19.970  0.0000E+00  0.0000E+00  0.2400E+02  0.2400E+02
    -19.752  0.0000E+00  0.0000E+00  0.2400E+02  0.2400E+02
    -19.534  0.0000E+00  0.0000E+00  0.2400E+02  0.2400E+02
    -19.315  0.0000E+00  0.0000E+00  0.2400E+02  0.2400E+02
    -19.097  0.0000E+00  0.0000E+00  0.2400E+02  0.2400E+02
    -18.879  0.0000E+00  0.0000E+00  0.2400E+02  0.2400E+02
    -18.661  0.0000E+00  0.0000E+00  0.2400E+02  0.2400E+02
    -18.443  0.0000E+00  0.0000E+00  0.2400E+02  0.2400E+02
    -18.224  0.0000E+00  0.0000E+00  0.2400E+02  0.2400E+02
    -18.006  0.0000E+00  0.0000E+00  0.2400E+02  0.2400E+02
    -17.788  0.0000E+00  0.0000E+00  0.2400E+02  0.2400E+02
    -17.570  0.0000E+00  0.0000E+00  0.2400E+02  0.2400E+02
    -17.352  0.0000E+00  0.0000E+00  0.2400E+02  0.2400E+02
    -17.133  0.0000E+00  0.0000E+00  0.2400E+02  0.2400E+02
    -16.915  0.0000E+00  0.0000E+00  0.2400E+02  0.2400E+02
    -16.697  0.0000E+00  0.0000E+00  0.2400E+02  0.2400E+02
    -16.479  0.0000E+00  0.0000E+00  0.2400E+02  0.2400E+02
    -16.261  0.0000E+00  0.0000E+00  0.2400E+02  0.2400E+02
    -16.042  0.0000E+00  0.0000E+00  0.2400E+02  0.2400E+02
    -15.824  0.0000E+00  0.0000E+00  0.2400E+02  0.2400E+02
    -15.606  0.0000E+00  0.0000E+00  0.2400E+02  0.2400E+02
    -15.388  0.0000E+00  0.0000E+00  0.2400E+02  0.2400E+02
    -15.170  0.0000E+00  0.0000E+00  0.2400E+02  0.2400E+02
    -14.951  0.0000E+00  0.0000E+00  0.2400E+02  0.2400E+02
    -14.733  0.0000E+00  0.0000E+00  0.2400E+02  0.2400E+02
    -14.515  0.0000E+00  0.0000E+00  0.2400E+02  0.2400E+02
    -14.297  0.0000E+00  0.0000E+00  0.2400E+02  0.2400E+02
    -14.078  0.0000E+00  0.0000E+00  0.2400E+02  0.2400E+02
    -13.860  0.0000E+00  0.0000E+00  0.2400E+02  0.2400E+02
    -13.642  0.0000E+00  0.0000E+00  0.2400E+02  0.2400E+02
    -13.424  0.0000E+00  0.0000E+00  0.2400E+02  0.2400E+02
    -13.206  0.0000E+00  0.0000E+00  0.2400E+02  0.2400E+02
    -12.987  0.0000E+00  0.0000E+00  0.2400E+02  0.2400E+02
    -12.769  0.0000E+00  0.0000E+00  0.2400E+02  0.2400E+02
    -12.551  0.0000E+00  0.0000E+00  0.2400E+02  0.2400E+02
    -12.333  0.0000E+00  0.0000E+00  0.2400E+02  0.2400E+02
    -12.115  0.0000E+00  0.0000E+00  0.2400E+02  0.2400E+02
    -11.896  0.0000E+00  0.0000E+00  0.2400E+02  0.2400E+02
    -11.678  0.0000E+00  0.0000E+00  0.2400E+02  0.2400E+02
    -11.460  0.0000E+00  0.0000E+00  0.2400E+02  0.2400E+02
    -11.242  0.0000E+00  0.0000E+00  0.2400E+02  0.2400E+02
    -11.024  0.0000E+00  0.0000E+00  0.2400E+02  0.2400E+02
    -10.805  0.0000E+00  0.0000E+00  0.2400E+02  0.2400E+02
    -10.587  0.6781E+00  0.6781E+00  0.2403E+02  0.2403E+02
    -10.369  0.2458E+01  0.2458E+01  0.2430E+02  0.2430E+02
    -10.151  0.3492E+01  0.3492E+01  0.2478E+02  0.2478E+02
     -9.932  0.4274E+01  0.4274E+01  0.2550E+02  0.2550E+02
     -9.714  0.9066E+01  0.9066E+01  0.2663E+02  0.2663E+02
     -9.496  0.1330E+02  0.1330E+02  0.2878E+02  0.2878E+02
     -9.278  0.1511E+02  0.1511E+02  0.3084E+02  0.3084E+02
     -9.060  0.4392E+01  0.4392E+01  0.3197E+02  0.3197E+02
     -8.841  0.4849E-01  0.4849E-01  0.3200E+02  0.3200E+02
     -8.623  0.0000E+00  0.0000E+00  0.3200E+02  0.3200E+02
     -8.405  0.0000E+00  0.0000E+00  0.3200E+02  0.3200E+02
     -8.187  0.0000E+00  0.0000E+00  0.3200E+02  0.3200E+02
     -7.969  0.0000E+00  0.0000E+00  0.3200E+02  0.3200E+02
     -7.750  0.0000E+00  0.0000E+00  0.3200E+02  0.3200E+02
     -7.532  0.0000E+00  0.0000E+00  0.3200E+02  0.3200E+02
     -7.314  0.0000E+00  0.0000E+00  0.3200E+02  0.3200E+02
     -7.096  0.0000E+00  0.0000E+00  0.3200E+02  0.3200E+02
     -6.878  0.0000E+00  0.0000E+00  0.3200E+02  0.3200E+02
     -6.659  0.0000E+00  0.0000E+00  0.3200E+02  0.3200E+02
     -6.441  0.0000E+00  0.0000E+00  0.3200E+02  0.3200E+02
     -6.223  0.0000E+00  0.0000E+00  0.3200E+02  0.3200E+02
     -6.005  0.0000E+00  0.0000E+00  0.3200E+02  0.3200E+02
     -5.786  0.0000E+00  0.0000E+00  0.3200E+02  0.3200E+02
     -5.568  0.0000E+00  0.0000E+00  0.3200E+02  0.3200E+02
     -5.350  0.0000E+00  0.0000E+00  0.3200E+02  0.3200E+02
     -5.132  0.0000E+00  0.0000E+00  0.3200E+02  0.3200E+02
     -4.914  0.0000E+00  0.0000E+00  0.3200E+02  0.3200E+02
     -4.695  0.0000E+00  0.0000E+00  0.3200E+02  0.3200E+02
     -4.477  0.0000E+00  0.0000E+00  0.3200E+02  0.3200E+02
     -4.259  0.0000E+00  0.0000E+00  0.3200E+02  0.3200E+02
     -4.041  0.0000E+00  0.0000E+00  0.3200E+02  0.3200E+02
     -3.823  0.0000E+00  0.0000E+00  0.3200E+02  0.3200E+02
     -3.604  0.0000E+00  0.0000E+00  0.3200E+02  0.3200E+02
     -3.386  0.0000E+00  0.0000E+00  0.3200E+02  0.3200E+02
     -3.168  0.0000E+00  0.0000E+00  0.3200E+02  0.3200E+02
     -2.950  0.0000E+00  0.0000E+00  0.3200E+02  0.3200E+02
     -2.732  0.0000E+00  0.0000E+00  0.3200E+02  0.3200E+02
     -2.513  0.1138E+00  0.1138E+00  0.3200E+02  0.3200E+02
     -2.295  0.6170E+00  0.6170E+00  0.3209E+02  0.3209E+02
     -2.077  0.4040E+01  0.4040E+01  0.3242E+02  0.3242E+02
     -1.859  0.8823E+01  0.8823E+01  0.3365E+02  0.3365E+02
     -1.641  0.1109E+02  0.1109E+02  0.3539E+02  0.3539E+02
     -1.422  0.6594E+01  0.6594E+01  0.3676E+02  0.3676E+02
     -1.204  0.7833E+01  0.7833E+01  0.3799E+02  0.3799E+02
     -0.986  0.9277E+01  0.9277E+01  0.3949E+02  0.3949E+02
     -0.768  0.1151E+02  0.1151E+02  0.4128E+02  0.4128E+02
     -0.549  0.1473E+02  0.1473E+02  0.4294E+02  0.4294E+02
     -0.331  0.1752E+02  0.1752E+02  0.4544E+02  0.4544E+02
     -0.113  0.1398E+02  0.1398E+02  0.4776E+02  0.4776E+02
      0.105  0.1628E+02  0.1628E+02  0.4992E+02  0.4992E+02
      0.323  0.1457E+02  0.1457E+02  0.5244E+02  0.5244E+02
      0.542  0.1003E+02  0.1003E+02  0.5415E+02  0.5415E+02
      0.760  0.1199E+02  0.1199E+02  0.5567E+02  0.5567E+02
      0.978  0.2257E+02  0.2257E+02  0.5801E+02  0.5801E+02
      1.196  0.1849E+02  0.1849E+02  0.6032E+02  0.6032E+02
      1.414  0.3107E+02  0.3107E+02  0.6399E+02  0.6399E+02
      1.633  0.2697E+02  0.2697E+02  0.6840E+02  0.6840E+02
      1.851  0.1257E+02  0.1257E+02  0.7044E+02  0.7044E+02
      2.069  0.1128E+02  0.1128E+02  0.7226E+02  0.7226E+02
      2.287  0.7748E+01  0.7748E+01  0.7368E+02  0.7368E+02
      2.505  0.8770E+01  0.8770E+01  0.7498E+02  0.7498E+02
      2.724  0.4071E+01  0.4071E+01  0.7595E+02  0.7595E+02
      2.942  0.5375E+01  0.5375E+01  0.7689E+02  0.7689E+02
      3.160  0.8610E+01  0.8610E+01  0.7798E+02  0.7798E+02
      3.378  0.1176E+02  0.1176E+02  0.7992E+02  0.7992E+02
      3.597  0.8542E+01  0.8542E+01  0.8130E+02  0.8130E+02
      3.815  0.2466E+02  0.2466E+02  0.8415E+02  0.8415E+02
      4.033  0.1308E+02  0.1308E+02  0.8663E+02  0.8663E+02
      4.251  0.1665E+02  0.1665E+02  0.8902E+02  0.8902E+02
      4.469  0.1364E+02  0.1364E+02  0.9105E+02  0.9105E+02
      4.688  0.1439E+02  0.1439E+02  0.9303E+02  0.9303E+02
      4.906  0.7071E+01  0.7073E+01  0.9494E+02  0.9494E+02
      5.124  0.9056E+00  0.9055E+00  0.9515E+02  0.9515E+02
      5.342  0.1525E+01  0.1525E+01  0.9543E+02  0.9543E+02
      5.560  0.1542E+01  0.1545E+01  0.9574E+02  0.9574E+02
      5.779  0.6817E+00  0.6790E+00  0.9596E+02  0.9596E+02
      5.997  0.3915E+00  0.3922E+00  0.9606E+02  0.9606E+02
      6.215  0.5805E+00  0.5806E+00  0.9617E+02  0.9617E+02
      6.433  0.8814E+00  0.8820E+00  0.9632E+02  0.9632E+02
      6.651  0.1477E+01  0.1477E+01  0.9660E+02  0.9660E+02
      6.870  0.2437E+01  0.2391E+01  0.9703E+02  0.9702E+02
      7.088  0.3735E+01  0.3736E+01  0.9765E+02  0.9765E+02
      7.306  0.4746E+01  0.5256E+01  0.9858E+02  0.9859E+02
      7.524  0.3276E+01  0.3269E+01  0.9948E+02  0.9948E+02
      7.743  0.1510E+01  0.1646E+01  0.9988E+02  0.9988E+02
      7.961  0.2353E+00  0.1212E+00  0.1000E+03  0.1000E+03
      8.179  0.0000E+00  0.0000E+00  0.1000E+03  0.1000E+03
      8.397  0.0000E+00  0.0000E+00  0.1000E+03  0.1000E+03
      8.615  0.0000E+00  0.0000E+00  0.1000E+03  0.1000E+03
      8.834  0.0000E+00  0.0000E+00  0.1000E+03  0.1000E+03
      9.052  0.0000E+00  0.0000E+00  0.1000E+03  0.1000E+03
      9.270  0.0000E+00  0.0000E+00  0.1000E+03  0.1000E+03
      9.488  0.0000E+00  0.0000E+00  0.1000E+03  0.1000E+03
      9.706  0.0000E+00  0.0000E+00  0.1000E+03  0.1000E+03
      9.925  0.0000E+00  0.0000E+00  0.1000E+03  0.1000E+03
     10.143  0.0000E+00  0.0000E+00  0.1000E+03  0.1000E+03
     10.361  0.0000E+00  0.0000E+00  0.1000E+03  0.1000E+03
     10.579  0.0000E+00  0.0000E+00  0.1000E+03  0.1000E+03
     10.797  0.0000E+00  0.0000E+00  0.1000E+03  0.1000E+03
     11.016  0.0000E+00  0.0000E+00  0.1000E+03  0.1000E+03
     11.01564383    -54.44721965  301      3.38940857      1.00000000
    -54.447  0.0000E+00  0.0000E+00  0.0000E+00  0.0000E+00  0.0000E+00  0.0000E+00  0.0000E+00  0.0000E+00  0.0000E+00  0.0000E+00  0.0000E+00  0.0000E+00  0.0000E+00  0.0000E+00  0.0000E+00  0.0000E+00  0.0000E+00  0.0000E+00
    -54.229  0.0000E+00  0.0000E+00  0.0000E+00  0.0000E+00  0.0000E+00  0.0000E+00  0.0000E+00  0.0000E+00  0.0000E+00  0.0000E+00  0.0000E+00  0.0000E+00  0.0000E+00  0.0000E+00  0.0000E+00  0.0000E+00  0.0000E+00  0.0000E+00
    -54.011  0.0000E+00  0.0000E+00  0.0000E+00  0.0000E+00  0.0000E+00  0.0000E+00  0.0000E+00  0.0000E+00  0.0000E+00  0.0000E+00  0.0000E+00  0.0000E+00  0.0000E+00  0.0000E+00  0.0000E+00  0.0000E+00  0.0000E+00  0.0000E+00
    -53.793  0.0000E+00  0.0000E+00  0.0000E+00  0.0000E+00  0.0000E+00  0.0000E+00  0.0000E+00  0.0000E+00  0.0000E+00  0.0000E+00  0.0000E+00  0.0000E+00  0.0000E+00  0.0000E+00  0.0000E+00  0.0000E+00  0.0000E+00  0.0000E+00
    -53.574  0.0000E+00  0.0000E+00  0.0000E+00  0.0000E+00  0.0000E+00  0.0000E+00  0.0000E+00  0.0000E+00  0.0000E+00  0.0000E+00  0.0000E+00  0.0000E+00  0.0000E+00  0.0000E+00  0.0000E+00  0.0000E+00  0.0000E+00  0.0000E+00
    -53.356  0.0000E+00  0.0000E+00  0.0000E+00  0.0000E+00  0.0000E+00  0.0000E+00  0.0000E+00  0.0000E+00  0.0000E+00  0.0000E+00  0.0000E+00  0.0000E+00  0.0000E+00  0.0000E+00  0.0000E+00  0.0000E+00  0.0000E+00  0.0000E+00
    -53.138  0.0000E+00  0.0000E+00  0.0000E+00  0.0000E+00  0.0000E+00  0.0000E+00  0.0000E+00  0.0000E+00  0.0000E+00  0.0000E+00  0.0000E+00  0.0000E+00  0.0000E+00  0.0000E+00  0.0000E+00  0.0000E+00  0.0000E+00  0.0000E+00
    -52.920  0.0000E+00  0.0000E+00  0.0000E+00  0.0000E+00  0.0000E+00  0.0000E+00  0.0000E+00  0.0000E+00  0.0000E+00  0.0000E+00  0.0000E+00  0.0000E+00  0.0000E+00  0.0000E+00  0.0000E+00  0.0000E+00  0.0000E+00  0.0000E+00
    -52.702  0.0000E+00  0.0000E+00  0.0000E+00  0.0000E+00  0.0000E+00  0.0000E+00  0.0000E+00  0.0000E+00  0.0000E+00  0.0000E+00  0.0000E+00  0.0000E+00  0.0000E+00  0.0000E+00  0.0000E+00  0.0000E+00  0.0000E+00  0.0000E+00
    -52.483  0.0000E+00  0.0000E+00  0.0000E+00  0.0000E+00  0.0000E+00  0.0000E+00  0.0000E+00  0.0000E+00  0.0000E+00  0.0000E+00  0.0000E+00  0.0000E+00  0.0000E+00  0.0000E+00  0.0000E+00  0.0000E+00  0.0000E+00  0.0000E+00
    -52.265  0.0000E+00  0.0000E+00  0.0000E+00  0.0000E+00  0.0000E+00  0.0000E+00  0.0000E+00  0.0000E+00  0.0000E+00  0.0000E+00  0.0000E+00  0.0000E+00  0.0000E+00  0.0000E+00  0.0000E+00  0.0000E+00  0.0000E+00  0.0000E+00
    -52.047  0.0000E+00  0.0000E+00  0.0000E+00  0.0000E+00  0.0000E+00  0.0000E+00  0.0000E+00  0.0000E+00  0.0000E+00  0.0000E+00  0.0000E+00  0.0000E+00  0.0000E+00  0.0000E+00  0.0000E+00  0.0000E+00  0.0000E+00  0.0000E+00
    -51.829  0.0000E+00  0.0000E+00  0.0000E+00  0.0000E+00  0.0000E+00  0.0000E+00  0.0000E+00  0.0000E+00  0.0000E+00  0.0000E+00  0.0000E+00  0.0000E+00  0.0000E+00  0.0000E+00  0.0000E+00  0.0000E+00  0.0000E+00  0.0000E+00
    -51.610  0.0000E+00  0.0000E+00  0.0000E+00  0.0000E+00  0.0000E+00  0.0000E+00  0.0000E+00  0.0000E+00  0.0000E+00  0.0000E+00  0.0000E+00  0.0000E+00  0.0000E+00  0.0000E+00  0.0000E+00  0.0000E+00  0.0000E+00  0.0000E+00
    -51.392  0.1986E-10  0.1226E-05  0.1432E+01  0.5991E-04  0.3131E+01  0.3823E-05  0.7231E-10  0.2682E-07  0.2123E-05  0.2234E-08  0.5678E-10  0.2008E-06  0.5233E-10  0.3648E-06  0.4642E-05  0.1391E-09  0.6282E-10  0.1357E-05
    -51.174  0.1559E-03  0.2117E-05  0.3133E+01  0.1197E-03  0.1433E+01  0.1303E-06  0.4066E+01  0.1586E-05  0.4715E-05  0.1213E-06  0.7226E-09  0.9062E-08  0.7126E-04  0.8193E-06  0.2131E-05  0.1462E-09  0.2138E-03  0.2578E-05
    -50.956  0.6201E-04  0.1693E-08  0.2534E-09  0.5406E-07  0.2476E-10  0.5566E-09  0.2286E+01  0.4917E-06  0.3741E-11  0.4285E-07  0.3372E-09  0.5096E-10  0.2831E-04  0.6325E-09  0.2613E-11  0.1002E-09  0.8490E-04  0.8967E-10
    -50.738  0.0000E+00  0.0000E+00  0.0000E+00  0.0000E+00  0.0000E+00  0.0000E+00  0.0000E+00  0.0000E+00  0.0000E+00  0.0000E+00  0.0000E+00  0.0000E+00  0.0000E+00  0.0000E+00  0.0000E+00  0.0000E+00  0.0000E+00  0.0000E+00
    -50.519  0.0000E+00  0.0000E+00  0.0000E+00  0.0000E+00  0.0000E+00  0.0000E+00  0.0000E+00  0.0000E+00  0.0000E+00  0.0000E+00  0.0000E+00  0.0000E+00  0.0000E+00  0.0000E+00  0.0000E+00  0.0000E+00  0.0000E+00  0.0000E+00
    -50.301  0.0000E+00  0.0000E+00  0.0000E+00  0.0000E+00  0.0000E+00  0.0000E+00  0.0000E+00  0.0000E+00  0.0000E+00  0.0000E+00  0.0000E+00  0.0000E+00  0.0000E+00  0.0000E+00  0.0000E+00  0.0000E+00  0.0000E+00  0.0000E+00
    -50.083  0.0000E+00  0.0000E+00  0.0000E+00  0.0000E+00  0.0000E+00  0.0000E+00  0.0000E+00  0.0000E+00  0.0000E+00  0.0000E+00  0.0000E+00  0.0000E+00  0.0000E+00  0.0000E+00  0.0000E+00  0.0000E+00  0.0000E+00  0.0000E+00
    -49.865  0.0000E+00  0.0000E+00  0.0000E+00  0.0000E+00  0.0000E+00  0.0000E+00  0.0000E+00  0.0000E+00  0.0000E+00  0.0000E+00  0.0000E+00  0.0000E+00  0.0000E+00  0.0000E+00  0.0000E+00  0.0000E+00  0.0000E+00  0.0000E+00
    -49.647  0.0000E+00  0.0000E+00  0.0000E+00  0.0000E+00  0.0000E+00  0.0000E+00  0.0000E+00  0.0000E+00  0.0000E+00  0.0000E+00  0.0000E+00  0.0000E+00  0.0000E+00  0.0000E+00  0.0000E+00  0.0000E+00  0.0000E+00  0.0000E+00
    -49.428  0.0000E+00  0.0000E+00  0.0000E+00  0.0000E+00  0.0000E+00  0.0000E+00  0.0000E+00  0.0000E+00  0.0000E+00  0.0000E+00  0.0000E+00  0.0000E+00  0.0000E+00  0.0000E+00  0.0000E+00  0.0000E+00  0.0000E+00  0.0000E+00
    -49.210  0.0000E+00  0.0000E+00  0.0000E+00  0.0000E+00  0.0000E+00  0.0000E+00  0.0000E+00  0.0000E+00  0.0000E+00  0.0000E+00  0.0000E+00  0.0000E+00  0.0000E+00  0.0000E+00  0.0000E+00  0.0000E+00  0.0000E+00  0.0000E+00
    -48.992  0.0000E+00  0.0000E+00  0.0000E+00  0.0000E+00  0.0000E+00  0.0000E+00  0.0000E+00  0.0000E+00  0.0000E+00  0.0000E+00  0.0000E+00  0.0000E+00  0.0000E+00  0.0000E+00  0.0000E+00  0.0000E+00  0.0000E+00  0.0000E+00
    -48.774  0.0000E+00  0.0000E+00  0.0000E+00  0.0000E+00  0.0000E+00  0.0000E+00  0.0000E+00  0.0000E+00  0.0000E+00  0.0000E+00  0.0000E+00  0.0000E+00  0.0000E+00  0.0000E+00  0.0000E+00  0.0000E+00  0.0000E+00  0.0000E+00
    -48.556  0.2571E-05  0.8288E-10  0.1266E-03  0.2143E+01  0.2145E-05  0.2421E+01  0.8442E-07  0.6322E-09  0.1710E-08  0.3865E-05  0.2788E-06  0.4379E-10  0.7732E-06  0.7354E-10  0.7034E-10  0.4388E-05  0.2846E-05  0.1337E-09
    -48.337  0.5055E-08  0.2143E-03  0.1868E-06  0.2663E-09  0.1336E-10  0.1473E-08  0.2018E-05  0.4591E+01  0.1801E-06  0.1472E-10  0.4211E-10  0.4203E-08  0.1374E-08  0.9836E-04  0.1241E-09  0.1614E-10  0.1351E-08  0.2956E-03
    -48.119  0.2303E-05  0.3579E-04  0.9519E-04  0.2423E+01  0.7419E-06  0.2144E+01  0.4527E-06  0.1634E+01  0.4244E-07  0.4461E-05  0.3918E-07  0.7659E-09  0.9030E-06  0.1643E-04  0.7646E-10  0.3970E-05  0.2767E-05  0.4937E-04
    -47.901  0.0000E+00  0.0000E+00  0.0000E+00  0.0000E+00  0.0000E+00  0.0000E+00  0.0000E+00  0.0000E+00  0.0000E+00  0.0000E+00  0.0000E+00  0.0000E+00  0.0000E+00  0.0000E+00  0.0000E+00  0.0000E+00  0.0000E+00  0.0000E+00
    -47.683  0.0000E+00  0.0000E+00  0.0000E+00  0.0000E+00  0.0000E+00  0.0000E+00  0.0000E+00  0.0000E+00  0.0000E+00  0.0000E+00  0.0000E+00  0.0000E+00  0.0000E+00  0.0000E+00  0.0000E+00  0.0000E+00  0.0000E+00  0.0000E+00
    -47.465  0.0000E+00  0.0000E+00  0.0000E+00  0.0000E+00  0.0000E+00  0.0000E+00  0.0000E+00  0.0000E+00  0.0000E+00  0.0000E+00  0.0000E+00  0.0000E+00  0.0000E+00  0.0000E+00  0.0000E+00  0.0000E+00  0.0000E+00  0.0000E+00
    -47.246  0.0000E+00  0.0000E+00  0.0000E+00  0.0000E+00  0.0000E+00  0.0000E+00  0.0000E+00  0.0000E+00  0.0000E+00  0.0000E+00  0.0000E+00  0.0000E+00  0.0000E+00  0.0000E+00  0.0000E+00  0.0000E+00  0.0000E+00  0.0000E+00
    -47.028  0.0000E+00  0.0000E+00  0.0000E+00  0.0000E+00  0.0000E+00  0.0000E+00  0.0000E+00  0.0000E+00  0.0000E+00  0.0000E+00  0.0000E+00  0.0000E+00  0.0000E+00  0.0000E+00  0.0000E+00  0.0000E+00  0.0000E+00  0.0000E+00
    -46.810  0.0000E+00  0.0000E+00  0.0000E+00  0.0000E+00  0.0000E+00  0.0000E+00  0.0000E+00  0.0000E+00  0.0000E+00  0.0000E+00  0.0000E+00  0.0000E+00  0.0000E+00  0.0000E+00  0.0000E+00  0.0000E+00  0.0000E+00  0.0000E+00
    -46.592  0.0000E+00  0.0000E+00  0.0000E+00  0.0000E+00  0.0000E+00  0.0000E+00  0.0000E+00  0.0000E+00  0.0000E+00  0.0000E+00  0.0000E+00  0.0000E+00  0.0000E+00  0.0000E+00  0.0000E+00  0.0000E+00  0.0000E+00  0.0000E+00
    -46.373  0.0000E+00  0.0000E+00  0.0000E+00  0.0000E+00  0.0000E+00  0.0000E+00  0.0000E+00  0.0000E+00  0.0000E+00  0.0000E+00  0.0000E+00  0.0000E+00  0.0000E+00  0.0000E+00  0.0000E+00  0.0000E+00  0.0000E+00  0.0000E+00
    -46.155  0.0000E+00  0.0000E+00  0.0000E+00  0.0000E+00  0.0000E+00  0.0000E+00  0.0000E+00  0.0000E+00  0.0000E+00  0.0000E+00  0.0000E+00  0.0000E+00  0.0000E+00  0.0000E+00  0.0000E+00  0.0000E+00  0.0000E+00  0.0000E+00
    -45.937  0.0000E+00  0.0000E+00  0.0000E+00  0.0000E+00  0.0000E+00  0.0000E+00  0.0000E+00  0.0000E+00  0.0000E+00  0.0000E+00  0.0000E+00  0.0000E+00  0.0000E+00  0.0000E+00  0.0000E+00  0.0000E+00  0.0000E+00  0.0000E+00
    -45.719  0.0000E+00  0.0000E+00  0.0000E+00  0.0000E+00  0.0000E+00  0.0000E+00  0.0000E+00  0.0000E+00  0.0000E+00  0.0000E+00  0.0000E+00  0.0000E+00  0.0000E+00  0.0000E+00  0.0000E+00  0.0000E+00  0.0000E+00  0.0000E+00
    -45.501  0.0000E+00  0.0000E+00  0.0000E+00  0.0000E+00  0.0000E+00  0.0000E+00  0.0000E+00  0.0000E+00  0.0000E+00  0.0000E+00  0.0000E+00  0.0000E+00  0.0000E+00  0.0000E+00  0.0000E+00  0.0000E+00  0.0000E+00  0.0000E+00
    -45.282  0.0000E+00  0.0000E+00  0.0000E+00  0.0000E+00  0.0000E+00  0.0000E+00  0.0000E+00  0.0000E+00  0.0000E+00  0.0000E+00  0.0000E+00  0.0000E+00  0.0000E+00  0.0000E+00  0.0000E+00  0.0000E+00  0.0000E+00  0.0000E+00
    -45.064  0.0000E+00  0.0000E+00  0.0000E+00  0.0000E+00  0.0000E+00  0.0000E+00  0.0000E+00  0.0000E+00  0.0000E+00  0.0000E+00  0.0000E+00  0.0000E+00  0.0000E+00  0.0000E+00  0.0000E+00  0.0000E+00  0.0000E+00  0.0000E+00
    -44.846  0.0000E+00  0.0000E+00  0.0000E+00  0.0000E+00  0.0000E+00  0.0000E+00  0.0000E+00  0.0000E+00  0.0000E+00  0.0000E+00  0.0000E+00  0.0000E+00  0.0000E+00  0.0000E+00  0.0000E+00  0.0000E+00  0.0000E+00  0.0000E+00
    -44.628  0.0000E+00  0.0000E+00  0.0000E+00  0.0000E+00  0.0000E+00  0.0000E+00  0.0000E+00  0.0000E+00  0.0000E+00  0.0000E+00  0.0000E+00  0.0000E+00  0.0000E+00  0.0000E+00  0.0000E+00  0.0000E+00  0.0000E+00  0.0000E+00
    -44.410  0.0000E+00  0.0000E+00  0.0000E+00  0.0000E+00  0.0000E+00  0.0000E+00  0.0000E+00  0.0000E+00  0.0000E+00  0.0000E+00  0.0000E+00  0.0000E+00  0.0000E+00  0.0000E+00  0.0000E+00  0.0000E+00  0.0000E+00  0.0000E+00
    -44.191  0.0000E+00  0.0000E+00  0.0000E+00  0.0000E+00  0.0000E+00  0.0000E+00  0.0000E+00  0.0000E+00  0.0000E+00  0.0000E+00  0.0000E+00  0.0000E+00  0.0000E+00  0.0000E+00  0.0000E+00  0.0000E+00  0.0000E+00  0.0000E+00
    -43.973  0.0000E+00  0.0000E+00  0.0000E+00  0.0000E+00  0.0000E+00  0.0000E+00  0.0000E+00  0.0000E+00  0.0000E+00  0.0000E+00  0.0000E+00  0.0000E+00  0.0000E+00  0.0000E+00  0.0000E+00  0.0000E+00  0.0000E+00  0.0000E+00
    -43.755  0.0000E+00  0.0000E+00  0.0000E+00  0.0000E+00  0.0000E+00  0.0000E+00  0.0000E+00  0.0000E+00  0.0000E+00  0.0000E+00  0.0000E+00  0.0000E+00  0.0000E+00  0.0000E+00  0.0000E+00  0.0000E+00  0.0000E+00  0.0000E+00
    -43.537  0.0000E+00  0.0000E+00  0.0000E+00  0.0000E+00  0.0000E+00  0.0000E+00  0.0000E+00  0.0000E+00  0.0000E+00  0.0000E+00  0.0000E+00  0.0000E+00  0.0000E+00  0.0000E+00  0.0000E+00  0.0000E+00  0.0000E+00  0.0000E+00