       N       E                     dE             d eps       ncg     rms          rms(c)
DAV:   1     0.199963269827E+04    0.19996E+04   -0.88991E+04 35580   0.193E+03
DAV:   2     0.120787298476E+03   -0.18788E+04   -0.18259E+04 32000   0.565E+02
DAV:   3    -0.854420278798E+02   -0.20623E+03   -0.18397E+03 46080   0.185E+02
DAV:   4    -0.100022611536E+03   -0.14581E+02   -0.14263E+02 47040   0.510E+01
DAV:   5    -0.100369523919E+03   -0.34691E+00   -0.34600E+00 45060   0.834E+00    0.279E+01
RMM:   6    -0.113782517151E+03   -0.13413E+02   -0.17636E+02 32085   0.858E+01    0.542E+01
RMM:   7    -0.910205229845E+02    0.22762E+02   -0.45164E+01 32020   0.517E+01    0.118E+01
RMM:   8    -0.915901803645E+02   -0.56966E+00   -0.30364E+00 41204   0.504E+00    0.559E+00
RMM:   9    -0.916787722164E+02   -0.88592E-01   -0.92428E-01 44288   0.293E+00    0.291E+00
RMM:  10    -0.917079714399E+02   -0.29199E-01   -0.29604E-01 46252   0.161E+00    0.175E+00
RMM:  11    -0.917053717546E+02    0.25997E-02   -0.69516E-02 41189   0.114E+00    0.692E-01
RMM:  12    -0.917152893814E+02   -0.99176E-02   -0.24046E-02 43314   0.547E-01    0.393E-01
RMM:  13    -0.917152217924E+02    0.67589E-04   -0.60222E-03 39590   0.257E-01    0.157E-01
RMM:  14    -0.917151641090E+02    0.57683E-04   -0.18857E-03 29838   0.152E-01
   1 F= -.98202599E+02 E0= -.98193155E+02  d E =-.982026E+02  mag=     0.0000
       N       E                     dE             d eps       ncg     rms          rms(c)
DAV:   1    -0.917516423861E+02   -0.36421E-01   -0.82336E-01 38120   0.374E+00    0.128E+00
RMM:   2    -0.917293873176E+02    0.22255E-01   -0.46993E-02 35142   0.153E+00    0.960E-01
RMM:   3    -0.917236217925E+02    0.57655E-02   -0.38282E-02 32050   0.128E+00    0.682E-01
RMM:   4    -0.917189146586E+02    0.47071E-02   -0.11746E-02 32452   0.610E-01    0.212E-01
RMM:   5    -0.917190807727E+02   -0.16611E-03   -0.31536E-03 32406   0.224E-01    0.137E-01
RMM:   6    -0.917189200795E+02    0.16069E-03   -0.69480E-04 23384   0.148E-01
   2 F= -.98207009E+02 E0= -.98197695E+02  d E =-.440964E-02  mag=     0.0000
       N       E                     dE             d eps       ncg     rms          rms(c)
DAV:   1    -0.917597688762E+02   -0.40688E-01   -0.10215E+00 35360   0.415E+00    0.143E+00
RMM:   2    -0.917321647652E+02    0.27604E-01   -0.59082E-02 35169   0.171E+00    0.108E+00
RMM:   3    -0.917246141594E+02    0.75506E-02   -0.47474E-02 32071   0.143E+00    0.751E-01
RMM:   4    -0.917189408676E+02    0.56733E-02   -0.14667E-02 32975   0.665E-01    0.239E-01
RMM:   5    -0.917191436604E+02   -0.20279E-03   -0.41176E-03 33614   0.247E-01    0.156E-01
RMM:   6    -0.917189420286E+02    0.20163E-03   -0.90740E-04 25337   0.170E-01    0.579E-02
RMM:   7    -0.917189699087E+02   -0.27880E-04   -0.36762E-04 20178   0.841E-02
   3 F= -.98207815E+02 E0= -.98198688E+02  d E =-.521585E-02  mag=    -0.0000
       N       E                     dE             d eps       ncg     rms          rms(c)
DAV:   1    -0.917262346167E+02   -0.72926E-02   -0.28975E-01 34840   0.191E+00    0.593E-01
RMM:   2    -0.917231162364E+02    0.31184E-02   -0.19903E-02 34072   0.892E-01    0.521E-01
RMM:   3    -0.917214569762E+02    0.16593E-02   -0.11033E-02 32754   0.683E-01    0.269E-01
RMM:   4    -0.917208890164E+02    0.56796E-03   -0.32999E-03 30551   0.261E-01    0.973E-02
RMM:   5    -0.917209503845E+02   -0.61368E-04   -0.87845E-04 24913   0.122E-01
   4 F= -.98210269E+02 E0= -.98201034E+02  d E =-.245410E-02  mag=     0.0000
       N       E                     dE             d eps       ncg     rms          rms(c)
DAV:   1    -0.917417183106E+02   -0.20829E-01   -0.10661E+00 32320   0.365E+00    0.113E+00
RMM:   2    -0.917297755930E+02    0.11943E-01   -0.70486E-02 34494   0.168E+00    0.971E-01
RMM:   3    -0.917243311940E+02    0.54444E-02   -0.39896E-02 32712   0.129E+00    0.529E-01
RMM:   4    -0.917219770439E+02    0.23542E-02   -0.11962E-02 34070   0.512E-01    0.187E-01
RMM:   5    -0.917222424805E+02   -0.26544E-03   -0.33819E-03 33196   0.224E-01    0.140E-01
RMM:   6    -0.917220719464E+02    0.17053E-03   -0.53019E-04 21726   0.138E-01
   5 F= -.98212325E+02 E0= -.98202950E+02  d E =-.450925E-02  mag=    -0.0000
       N       E                     dE             d eps       ncg     rms          rms(c)
DAV:   1    -0.917312511077E+02   -0.90086E-02   -0.19712E-01 36400   0.181E+00    0.626E-01
RMM:   2    -0.917253635887E+02    0.58875E-02   -0.90881E-03 34834   0.676E-01    0.377E-01
RMM:   3    -0.917249238086E+02    0.43978E-03   -0.87990E-03 32177   0.580E-01    0.393E-01
RMM:   4    -0.917235118939E+02    0.14119E-02   -0.31452E-03 29976   0.377E-01    0.832E-02
RMM:   5    -0.917235595443E+02   -0.47650E-04   -0.77637E-04 24624   0.103E-01
   6 F= -.98213570E+02 E0= -.98204125E+02  d E =-.124505E-02  mag=     0.0000
       N       E                     dE             d eps       ncg     rms          rms(c)
DAV:   1    -0.917330382860E+02   -0.95264E-02   -0.22937E-01 33400   0.196E+00    0.690E-01
RMM:   2    -0.917260354583E+02    0.70028E-02   -0.11056E-02 34836   0.742E-01    0.417E-01
RMM:   3    -0.917255167708E+02    0.51869E-03   -0.10861E-02 32880   0.639E-01    0.437E-01
RMM:   4    -0.917237771784E+02    0.17396E-02   -0.38519E-03 31217   0.417E-01    0.936E-02
RMM:   5    -0.917238518782E+02   -0.74700E-04   -0.10574E-03 27335   0.115E-01
   7 F= -.98213608E+02 E0= -.98204050E+02  d E =-.128309E-02  mag=    -0.0000
