       N       E                     dE             d eps       ncg     rms          rms(c)
DAV:   1     0.199773062704E+04    0.19977E+04   -0.88936E+04 35580   0.193E+03
DAV:   2     0.121505666795E+03   -0.18762E+04   -0.18226E+04 32000   0.564E+02
DAV:   3    -0.854788951755E+02   -0.20698E+03   -0.18403E+03 46320   0.184E+02
DAV:   4    -0.100134124230E+03   -0.14655E+02   -0.14319E+02 47420   0.510E+01
DAV:   5    -0.100469856537E+03   -0.33573E+00   -0.33491E+00 44660   0.813E+00    0.281E+01
RMM:   6    -0.114138877766E+03   -0.13669E+02   -0.17999E+02 34783   0.866E+01    0.551E+01
RMM:   7    -0.909050463508E+02    0.23234E+02   -0.46842E+01 32067   0.522E+01    0.120E+01
RMM:   8    -0.915763903316E+02   -0.67134E+00   -0.36540E+00 46139   0.527E+00    0.585E+00
RMM:   9    -0.916760101776E+02   -0.99620E-01   -0.99400E-01 50499   0.298E+00    0.310E+00
RMM:  10    -0.917105414692E+02   -0.34531E-01   -0.30222E-01 52467   0.162E+00    0.196E+00
RMM:  11    -0.917042183446E+02    0.63231E-02   -0.76204E-02 47066   0.120E+00    0.802E-01
RMM:  12    -0.917158633070E+02   -0.11645E-01   -0.27378E-02 49417   0.578E-01    0.448E-01
RMM:  13    -0.917156349739E+02    0.22833E-03   -0.72487E-03 46292   0.288E-01    0.185E-01
RMM:  14    -0.917153910449E+02    0.24393E-03   -0.23760E-03 37774   0.170E-01    0.906E-02
RMM:  15    -0.917154208589E+02   -0.29814E-04   -0.43349E-04 25930   0.931E-02
   1 F= -.98205177E+02 E0= -.98205177E+02  d E =0.000000E+00  mag=    -0.0000
