 vasp.6.4.1 05Apr23 (build Jun 01 2023 13:46:15) complex                        
  
 executed on             LinuxIFC date 2023.12.16  21:12:03
 running   20 mpi-ranks, on    5 nodes
 distrk:  each k-point on   20 cores,    1 groups
 distr:  one band on NCORE=   1 cores,   20 groups


--------------------------------------------------------------------------------------------------------


 INCAR:
   ALGO = Fast
   EDIFF = 0.0002
   ENCUT = 550
   IBRION = -1
   ISIF = 4
   ISMEAR = -5
   ISPIN = 2
   IVDW = 13
   LASPH = True
   LMAXMIX = 4
   LORBIT = 11
   LREAL = Auto
   LWAVE = False
   MAGMOM = 1*2.623 2*-2.623 2*2.623 2*-2.623 1*2.623 8*0.0
   NELM = 100
   NSW = 0
   PREC = Accurate
   SIGMA = 0.05

 POTCAR:   PAW_PBE Fe_pv 06Sep2000                
 POTCAR:   PAW_PBE Se 06Sep2000                   
 -----------------------------------------------------------------------------
|                                                                             |
|           W    W    AA    RRRRR   N    N  II  N    N   GGGG   !!!           |
|           W    W   A  A   R    R  NN   N  II  NN   N  G    G  !!!           |
|           W    W  A    A  R    R  N N  N  II  N N  N  G       !!!           |
|           W WW W  AAAAAA  RRRRR   N  N N  II  N  N N  G  GGG   !            |
|           WW  WW  A    A  R   R   N   NN  II  N   NN  G    G                |
|           W    W  A    A  R    R  N    N  II  N    N   GGGG   !!!           |
|                                                                             |
|     For optimal performance we recommend to set                             |
|       NCORE = 2 up to number-of-cores-per-socket                            |
|     NCORE specifies how many cores store one orbital (NPAR=cpu/NCORE).      |
|     This setting can greatly improve the performance of VASP for DFT.       |
|     The default, NCORE=1 might be grossly inefficient on modern             |
|     multi-core architectures or massively parallel machines. Do your        |
|     own testing! More info at https://www.vasp.at/wiki/index.php/NCORE      |
|     Unfortunately you need to use the default for GW and RPA                |
|     calculations (for HF NCORE is supported but not extensively tested      |
|     yet).                                                                   |
|                                                                             |
 -----------------------------------------------------------------------------

 POTCAR:   PAW_PBE Fe_pv 06Sep2000                
   VRHFIN =Fe:  3pd7s1                                                                              
   LEXCH  = PE                                                                                      
   EATOM  =  2456.8974 eV,  180.5769 Ry                                                             
                                                                                                    
   TITEL  = PAW_PBE Fe_pv 06Sep2000                                                                 
   LULTRA =        F    use ultrasoft PP ?                                                          
   IUNSCR =        1    unscreen: 0-lin 1-nonlin 2-no                                               
   RPACOR =    1.750    partial core radius                                                         
   POMASS =   55.847; ZVAL   =   14.000    mass and valenz                                          
   RCORE  =    2.200    outmost cutoff radius                                                       
   RWIGS  =    2.200; RWIGS  =    1.164    wigner-seitz radius (au A)                               
   ENMAX  =  293.238; ENMIN  =  219.929 eV                                                          
   RCLOC  =    1.701    cutoff for local pot                                                        
   LCOR   =        T    correct aug charges                                                         
   LPAW   =        T    paw PP                                                                      
   EAUG   =  578.342                                                                                
   DEXC   =    -.002                                                                                
   RMAX   =    2.693    core radius for proj-oper                                                   
   RAUG   =    1.300    factor for augmentation sphere                                              
   RDEP   =    2.296    radius for radial grids                                                     
   QCUT   =   -4.642; QGAM   =    9.285    optimization parameters                                  
                                                                                                    
   Description                                                                                      
     l     E      TYP  RCUT    TYP  RCUT                                                            
     1   .000     23  2.000                                                                         
     1  -.400     23  2.000                                                                         
     2   .000     23  2.200                                                                         
     2   .000     23  2.200                                                                         
     0   .000     23  2.000                                                                         
     0  2.000     23  2.000                                                                         
     3   .000      7   .000                                                                         
  local pseudopotential read in
  partial core-charges read in
  atomic valenz-charges read in
  non local Contribution for L=           1  read in
    real space projection operators read in
  non local Contribution for L=           1  read in
    real space projection operators read in
  non local Contribution for L=           2  read in
    real space projection operators read in
  non local Contribution for L=           2  read in
    real space projection operators read in
  non local Contribution for L=           0  read in
    real space projection operators read in
  non local Contribution for L=           0  read in
    real space projection operators read in
    PAW grid and wavefunctions read in
 
   number of l-projection  operators is LMAX  =           6
   number of lm-projection operators is LMMAX =          18
 
 POTCAR:   PAW_PBE Se 06Sep2000                   
   VRHFIN =Se: s2p4                                                                                 
   LEXCH  = PE                                                                                      
   EATOM  =   256.9644 eV,   18.8864 Ry                                                             
                                                                                                    
   TITEL  = PAW_PBE Se 06Sep2000                                                                    
   LULTRA =        F    use ultrasoft PP ?                                                          
   IUNSCR =        1    unscreen: 0-lin 1-nonlin 2-no                                               
   RPACOR =    1.900    partial core radius                                                         
   POMASS =   78.960; ZVAL   =    6.000    mass and valenz                                          
   RCORE  =    2.100    outmost cutoff radius                                                       
   RWIGS  =    2.200; RWIGS  =    1.164    wigner-seitz radius (au A)                               
   ENMAX  =  211.534; ENMIN  =  158.651 eV                                                          
   ICORE  =        3    local potential                                                             
   LCOR   =        T    correct aug charges                                                         
   LPAW   =        T    paw PP                                                                      
   EAUG   =  446.842                                                                                
   DEXC   =    -.031                                                                                
   RMAX   =    3.170    core radius for proj-oper                                                   
   RAUG   =    1.300    factor for augmentation sphere                                              
   RDEP   =    2.177    radius for radial grids                                                     
   QCUT   =   -3.943; QGAM   =    7.886    optimization parameters                                  
                                                                                                    
   Description                                                                                      
     l     E      TYP  RCUT    TYP  RCUT                                                            
     0   .000     23  2.100                                                                         
     0   .000     23  2.100                                                                         
     1   .000     23  2.100                                                                         
     1   .000     23  2.100                                                                         
     2   .000     23  2.100                                                                         
     3  -.100      7  2.100                                                                         
  local pseudopotential read in
  partial core-charges read in
  atomic valenz-charges read in
  non local Contribution for L=           0  read in
    real space projection operators read in
  non local Contribution for L=           0  read in
    real space projection operators read in
  non local Contribution for L=           1  read in
    real space projection operators read in
  non local Contribution for L=           1  read in
    real space projection operators read in
  non local Contribution for L=           2  read in
    real space projection operators read in
    PAW grid and wavefunctions read in
 
   number of l-projection  operators is LMAX  =           5
   number of lm-projection operators is LMMAX =          13
 
 Optimization of the real space projectors (new method)

 maximal supplied QI-value         = 17.01
 optimisation between [QCUT,QGAM] = [ 11.91, 23.98] = [ 39.69,161.04] Ry 
 Optimized for a Real-space Cutoff    1.45 Angstroem

   l    n(q)    QCUT    max X(q) W(low)/X(q) W(high)/X(q)  e(spline) 
   1     10    11.905     4.550    0.27E-05    0.11E-05    0.28E-07
   1     10    11.905     5.234    0.10E-04    0.61E-04    0.17E-06
   2      9    11.905     3.960    0.19E-04    0.73E-05    0.50E-07
   2      9    11.905    29.565    0.24E-03    0.51E-04    0.27E-06
   0     10    11.905    23.582    0.17E-04    0.10E-05    0.14E-07
   0     10    11.905    39.747    0.23E-04    0.68E-05    0.74E-07
 Optimization of the real space projectors (new method)

 maximal supplied QI-value         = 17.95
 optimisation between [QCUT,QGAM] = [ 11.85, 23.88] = [ 39.31,159.64] Ry 
 Optimized for a Real-space Cutoff    1.18 Angstroem

   l    n(q)    QCUT    max X(q) W(low)/X(q) W(high)/X(q)  e(spline) 
   0      8    11.849     6.499    0.17E-04    0.94E-05    0.89E-08
   0      8    11.849    52.623    0.21E-03    0.78E-04    0.81E-07
   1      8    11.849     4.229    0.79E-04    0.83E-04    0.23E-07
   1      8    11.849    29.991    0.12E-03    0.43E-03    0.14E-06
   2      7    11.849     3.719    0.22E-03    0.64E-04    0.38E-07
 PAW_PBE Fe_pv 06Sep2000                :
 energy of atom  1       EATOM=-2456.8974
 kinetic energy error for atom=    0.0060 (will be added to EATOM!!)
 PAW_PBE Se 06Sep2000                   :
 energy of atom  2       EATOM= -256.9644
 kinetic energy error for atom=    0.0007 (will be added to EATOM!!)
 
 
 POSCAR: Fe8 Se8
  positions in direct lattice
  velocities in cartesian coordinates
 exchange correlation table for  LEXCH =        8
   RHO(1)=    0.500       N(1)  =     2000
   RHO(2)=  100.500       N(2)  =     4000
 


--------------------------------------------------------------------------------------------------------


 ion  position               nearest neighbor table
   1  0.000  0.000  0.000-  11 2.30  14 2.30   5 2.43   8 2.43
   2  0.000  0.500  0.000-  12 2.30  13 2.30   6 2.43   7 2.43
   3  0.500  0.000  0.000-   9 2.30  16 2.30   6 2.43   7 2.43
   4  0.500  0.500  0.000-  10 2.30  15 2.30   5 2.43   8 2.43
   5  0.250  0.250  0.000-   9 2.30  13 2.30   1 2.43   4 2.43
   6  0.250  0.750  0.000-  10 2.30  14 2.30   2 2.43   3 2.43
   7  0.750  0.250  0.000-  11 2.30  15 2.30   2 2.43   3 2.43
   8  0.750  0.750  0.000-  12 2.30  16 2.30   1 2.43   4 2.43
   9  0.375  0.125  0.692-   3 2.30   5 2.30
  10  0.375  0.625  0.692-   4 2.30   6 2.30
  11  0.875  0.125  0.692-   1 2.30   7 2.30
  12  0.875  0.625  0.692-   2 2.30   8 2.30
  13  0.125  0.375  0.308-   2 2.30   5 2.30
  14  0.125  0.875  0.308-   1 2.30   6 2.30
  15  0.625  0.375  0.308-   4 2.30   7 2.30
  16  0.625  0.875  0.308-   3 2.30   8 2.30
 
  LATTYP: Found a base centered orthorhombic cell.
 ALAT       =     9.7322630433
 B/A-ratio  =     1.1906166872
 C/A-ratio  =     0.5940652036
  
  Lattice vectors:
  
 A1 = (   4.8661315217,  -5.7936973919,   0.0000000000)
 A2 = (   4.8661315217,   5.7936973919,   0.0000000000)
 A3 = (   0.0000000000,   0.0000000000,   5.7815988263)


Analysis of symmetry for initial positions (statically):
=====================================================================
 Subroutine PRICEL returns following result:
 
  LATTYP: Found a base centered orthorhombic cell.
 ALAT       =     4.8661315217
 B/A-ratio  =     1.1906166872
 C/A-ratio  =     1.1881304072
  
  Lattice vectors:
  
 A1 = (   2.4330657608,  -2.8968486959,   0.0000000000)
 A2 = (   2.4330657608,   2.8968486959,   0.0000000000)
 A3 = (   0.0000000000,   0.0000000000,   5.7815988263)
 
   4 primitive cells build up your supercell.
 

 Routine SETGRP: Setting up the symmetry group for a 
 base centered orthorhombic supercell.


 Subroutine GETGRP returns: Found  8 space group operations
 (whereof  4 operations were pure point group operations)
 out of a pool of  8 trial point group operations.


The static configuration has the point symmetry C_2h.
 The point group associated with its full space group is D_2h.


Analysis of symmetry for dynamics (positions and initial velocities):
=====================================================================
 Subroutine PRICEL returns following result:
 
  LATTYP: Found a base centered orthorhombic cell.
 ALAT       =     4.8661315217
 B/A-ratio  =     1.1906166872
 C/A-ratio  =     1.1881304072
  
  Lattice vectors:
  
 A1 = (   2.4330657608,  -2.8968486959,   0.0000000000)
 A2 = (   2.4330657608,   2.8968486959,   0.0000000000)
 A3 = (   0.0000000000,   0.0000000000,   5.7815988263)
 
   4 primitive cells build up your supercell.
 

 Routine SETGRP: Setting up the symmetry group for a 
 base centered orthorhombic supercell.


 Subroutine GETGRP returns: Found  8 space group operations
 (whereof  4 operations were pure point group operations)
 out of a pool of  8 trial point group operations.


The dynamic configuration has the point symmetry C_2h.
 The point group associated with its full space group is D_2h.


Analysis of structural, dynamic, and magnetic symmetry:
=====================================================================
 Subroutine PRICEL returns following result:
 
  LATTYP: Found a base centered orthorhombic cell.
 ALAT       =     4.8661315217
 B/A-ratio  =     1.1906166872
 C/A-ratio  =     1.1881304072
  
  Lattice vectors:
  
 A1 = (   2.4330657608,  -2.8968486959,   0.0000000000)
 A2 = (   2.4330657608,   2.8968486959,   0.0000000000)
 A3 = (   0.0000000000,   0.0000000000,   5.7815988263)
 
   4 primitive cells build up your supercell.
 

 Routine SETGRP: Setting up the symmetry group for a 
 base centered orthorhombic supercell.


 Subroutine GETGRP returns: Found  8 space group operations
 (whereof  4 operations were pure point group operations)
 out of a pool of  8 trial point group operations.


The overall configuration has the point symmetry C_2h.
 The point group associated with its full space group is D_2h.


 Subroutine INISYM returns: Found  8 space group operations
 (whereof  4 operations are pure point group operations),
 and found     4 'primitive' translations


----------------------------------------------------------------------------------------

                                     Primitive cell                                     

  volume of cell :      81.5000

  direct lattice vectors                    reciprocal lattice vectors
     2.433065761 -2.896848696  0.000000000     0.205502049 -0.172601351  0.000000000
     2.433065761  2.896848696  0.000000000     0.205502049  0.172601351  0.000000000
     0.000000000  0.000000000  5.781598826     0.000000000  0.000000000  0.172962537

  length of vectors
     3.783059789  3.783059789  5.781598826     0.268369743  0.268369743  0.172962537

  position of ions in fractional coordinates (direct lattice)
     0.000000000  0.000000000  0.000000000
     0.500000000  0.500000000  0.000000000
     0.750000000  0.250000000  0.691888793
     0.250000000  0.750000000  0.308111207

  ion indices of the primitive-cell ions
   primitive index   ion index
                 1           1
                 2           5
                 3          11
                 4          14

----------------------------------------------------------------------------------------

 
 
 KPOINTS: KPOINTS                                 

Automatic generation of k-mesh.
 Grid dimensions read from file:
 generate k-points for:    7    7    9

 Generating k-lattice:

  Cartesian coordinates                     Fractional coordinates (reciprocal lattice)
     0.014678718 -0.012328668  0.000000000     0.142857143 -0.000000000  0.000000000
     0.014678718  0.012328668  0.000000000    -0.000000000  0.142857143  0.000000000
     0.000000000  0.000000000  0.019218060     0.000000000  0.000000000  0.111111111

  Length of vectors
     0.019169267  0.019169267  0.019218060

  Shift w.r.t. Gamma in fractional coordinates (k-lattice)
     0.000000000  0.000000000  0.000000000

 TETIRR: Found    664 inequivalent tetrahedra from     2646
 
 Subroutine IBZKPT returns following result:
 ===========================================
 
 Found     80 irreducible k-points:
 
 Following reciprocal coordinates:
            Coordinates               Weight
  0.000000  0.000000  0.000000      1.000000
  0.142857  0.000000  0.000000      4.000000
  0.285714 -0.000000  0.000000      4.000000
  0.428571 -0.000000  0.000000      4.000000
  0.142857  0.142857  0.000000      2.000000
  0.285714  0.142857  0.000000      4.000000
  0.428571  0.142857  0.000000      4.000000
 -0.428571  0.142857  0.000000      4.000000
 -0.285714  0.142857  0.000000      4.000000
 -0.142857  0.142857  0.000000      2.000000
  0.285714  0.285714  0.000000      2.000000
  0.428571  0.285714  0.000000      4.000000
 -0.428571  0.285714  0.000000      4.000000
 -0.285714  0.285714  0.000000      2.000000
  0.428571  0.428571  0.000000      2.000000
 -0.428571  0.428571  0.000000      2.000000
  0.000000  0.000000  0.111111      2.000000
  0.142857  0.000000  0.111111      8.000000
  0.285714 -0.000000  0.111111      8.000000
  0.428571 -0.000000  0.111111      8.000000
  0.142857  0.142857  0.111111      4.000000
  0.285714  0.142857  0.111111      8.000000
  0.428571  0.142857  0.111111      8.000000
 -0.428571  0.142857  0.111111      8.000000
 -0.285714  0.142857  0.111111      8.000000
 -0.142857  0.142857  0.111111      4.000000
  0.285714  0.285714  0.111111      4.000000
  0.428571  0.285714  0.111111      8.000000
 -0.428571  0.285714  0.111111      8.000000
 -0.285714  0.285714  0.111111      4.000000
  0.428571  0.428571  0.111111      4.000000
 -0.428571  0.428571  0.111111      4.000000
  0.000000  0.000000  0.222222      2.000000
  0.142857  0.000000  0.222222      8.000000
  0.285714 -0.000000  0.222222      8.000000
  0.428571 -0.000000  0.222222      8.000000
  0.142857  0.142857  0.222222      4.000000
  0.285714  0.142857  0.222222      8.000000
  0.428571  0.142857  0.222222      8.000000
 -0.428571  0.142857  0.222222      8.000000
 -0.285714  0.142857  0.222222      8.000000
 -0.142857  0.142857  0.222222      4.000000
  0.285714  0.285714  0.222222      4.000000
  0.428571  0.285714  0.222222      8.000000
 -0.428571  0.285714  0.222222      8.000000
 -0.285714  0.285714  0.222222      4.000000
  0.428571  0.428571  0.222222      4.000000
 -0.428571  0.428571  0.222222      4.000000
  0.000000  0.000000  0.333333      2.000000
  0.142857  0.000000  0.333333      8.000000
  0.285714 -0.000000  0.333333      8.000000
  0.428571 -0.000000  0.333333      8.000000
  0.142857  0.142857  0.333333      4.000000
  0.285714  0.142857  0.333333      8.000000
  0.428571  0.142857  0.333333      8.000000
 -0.428571  0.142857  0.333333      8.000000
 -0.285714  0.142857  0.333333      8.000000
 -0.142857  0.142857  0.333333      4.000000
  0.285714  0.285714  0.333333      4.000000
  0.428571  0.285714  0.333333      8.000000
 -0.428571  0.285714  0.333333      8.000000
 -0.285714  0.285714  0.333333      4.000000
  0.428571  0.428571  0.333333      4.000000
 -0.428571  0.428571  0.333333      4.000000
  0.000000  0.000000  0.444444      2.000000
  0.142857  0.000000  0.444444      8.000000
  0.285714 -0.000000  0.444444      8.000000
  0.428571 -0.000000  0.444444      8.000000
  0.142857  0.142857  0.444444      4.000000
  0.285714  0.142857  0.444444      8.000000
  0.428571  0.142857  0.444444      8.000000
 -0.428571  0.142857  0.444444      8.000000
 -0.285714  0.142857  0.444444      8.000000
 -0.142857  0.142857  0.444444      4.000000
  0.285714  0.285714  0.444444      4.000000
  0.428571  0.285714  0.444444      8.000000
 -0.428571  0.285714  0.444444      8.000000
 -0.285714  0.285714  0.444444      4.000000
  0.428571  0.428571  0.444444      4.000000
 -0.428571  0.428571  0.444444      4.000000
 
 Following cartesian coordinates:
            Coordinates               Weight
  0.000000  0.000000  0.000000      1.000000
  0.014679 -0.012329  0.000000      4.000000
  0.029357 -0.024657  0.000000      4.000000
  0.044036 -0.036986  0.000000      4.000000
  0.029357  0.000000  0.000000      2.000000
  0.044036 -0.012329  0.000000      4.000000
  0.058715 -0.024657  0.000000      4.000000
 -0.029357  0.049315  0.000000      4.000000
 -0.014679  0.036986  0.000000      4.000000
  0.000000  0.024657  0.000000      2.000000
  0.058715 -0.000000  0.000000      2.000000
  0.073394 -0.012329  0.000000      4.000000
 -0.014679  0.061643  0.000000      4.000000
 -0.000000  0.049315  0.000000      2.000000
  0.088072 -0.000000  0.000000      2.000000
 -0.000000  0.073972  0.000000      2.000000
  0.000000  0.000000  0.019218      2.000000
  0.014679 -0.012329  0.019218      8.000000
  0.029357 -0.024657  0.019218      8.000000
  0.044036 -0.036986  0.019218      8.000000
  0.029357  0.000000  0.019218      4.000000
  0.044036 -0.012329  0.019218      8.000000
  0.058715 -0.024657  0.019218      8.000000
 -0.029357  0.049315  0.019218      8.000000
 -0.014679  0.036986  0.019218      8.000000
  0.000000  0.024657  0.019218      4.000000
  0.058715 -0.000000  0.019218      4.000000
  0.073394 -0.012329  0.019218      8.000000
 -0.014679  0.061643  0.019218      8.000000
 -0.000000  0.049315  0.019218      4.000000
  0.088072 -0.000000  0.019218      4.000000
 -0.000000  0.073972  0.019218      4.000000
  0.000000  0.000000  0.038436      2.000000
  0.014679 -0.012329  0.038436      8.000000
  0.029357 -0.024657  0.038436      8.000000
  0.044036 -0.036986  0.038436      8.000000
  0.029357  0.000000  0.038436      4.000000
  0.044036 -0.012329  0.038436      8.000000
  0.058715 -0.024657  0.038436      8.000000
 -0.029357  0.049315  0.038436      8.000000
 -0.014679  0.036986  0.038436      8.000000
  0.000000  0.024657  0.038436      4.000000
  0.058715 -0.000000  0.038436      4.000000
  0.073394 -0.012329  0.038436      8.000000
 -0.014679  0.061643  0.038436      8.000000
 -0.000000  0.049315  0.038436      4.000000
  0.088072 -0.000000  0.038436      4.000000
 -0.000000  0.073972  0.038436      4.000000
  0.000000  0.000000  0.057654      2.000000
  0.014679 -0.012329  0.057654      8.000000
  0.029357 -0.024657  0.057654      8.000000
  0.044036 -0.036986  0.057654      8.000000
  0.029357  0.000000  0.057654      4.000000
  0.044036 -0.012329  0.057654      8.000000
  0.058715 -0.024657  0.057654      8.000000
 -0.029357  0.049315  0.057654      8.000000
 -0.014679  0.036986  0.057654      8.000000
  0.000000  0.024657  0.057654      4.000000
  0.058715 -0.000000  0.057654      4.000000
  0.073394 -0.012329  0.057654      8.000000
 -0.014679  0.061643  0.057654      8.000000
 -0.000000  0.049315  0.057654      4.000000
  0.088072 -0.000000  0.057654      4.000000
 -0.000000  0.073972  0.057654      4.000000
  0.000000  0.000000  0.076872      2.000000
  0.014679 -0.012329  0.076872      8.000000
  0.029357 -0.024657  0.076872      8.000000
  0.044036 -0.036986  0.076872      8.000000
  0.029357  0.000000  0.076872      4.000000
  0.044036 -0.012329  0.076872      8.000000
  0.058715 -0.024657  0.076872      8.000000
 -0.029357  0.049315  0.076872      8.000000
 -0.014679  0.036986  0.076872      8.000000
  0.000000  0.024657  0.076872      4.000000
  0.058715 -0.000000  0.076872      4.000000
  0.073394 -0.012329  0.076872      8.000000
 -0.014679  0.061643  0.076872      8.000000
 -0.000000  0.049315  0.076872      4.000000
  0.088072 -0.000000  0.076872      4.000000
 -0.000000  0.073972  0.076872      4.000000
 


--------------------------------------------------------------------------------------------------------




 Dimension of arrays:
   k-points           NKPTS =     80   k-points in BZ     NKDIM =     80   number of bands    NBANDS=    100
   number of dos      NEDOS =    301   number of ions     NIONS =     16
   non local maximal  LDIM  =      6   non local SUM 2l+1 LMDIM =     18
   total plane-waves  NPLWV = 172800
   max r-space proj   IRMAX =   6790   max aug-charges    IRDMAX=  23313
   dimension x,y,z NGX =    60 NGY =   60 NGZ =   48
   dimension x,y,z NGXF=   120 NGYF=  120 NGZF=   96
   support grid    NGXF=   120 NGYF=  120 NGZF=   96
   ions per type =               8   8
   NGX,Y,Z   is equivalent  to a cutoff of  13.18, 13.18, 13.80 a.u.
   NGXF,Y,Z  is equivalent  to a cutoff of  26.37, 26.37, 27.60 a.u.

 SYSTEM =  unknown system                          
 POSCAR =  Fe8 Se8                                 

 Startparameter for this run:
   NWRITE =      2    write-flag & timer
   PREC   = accura    normal or accurate (medium, high low for compatibility)
   ISTART =      0    job   : 0-new  1-cont  2-samecut
   ICHARG =      2    charge: 1-file 2-atom 10-const
   ISPIN  =      2    spin polarized calculation?
   LNONCOLLINEAR =      F non collinear calculations
   LSORBIT =      F    spin-orbit coupling
   INIWAV =      1    electr: 0-lowe 1-rand  2-diag
   LASPH  =      T    aspherical Exc in radial PAW
 Electronic Relaxation 1
   ENCUT  =  550.0 eV  40.42 Ry    6.36 a.u.  14.47 14.47 11.06*2*pi/ulx,y,z
   ENINI  =  550.0     initial cutoff
   ENAUG  =  578.3 eV  augmentation charge cutoff
   NELM   =    100;   NELMIN=  2; NELMDL=  0     # of ELM steps 
   EDIFF  = 0.2E-03   stopping-criterion for ELM
   LREAL  =      T    real-space projection
   NLSPLINE    = F    spline interpolate recip. space projectors
   LCOMPAT=      F    compatible to vasp.4.4
   GGA_COMPAT  = T    GGA compatible to vasp.4.4-vasp.4.6
   LMAXPAW     = -100 max onsite density
   LMAXMIX     =    4 max onsite mixed and CHGCAR
   VOSKOWN=      0    Vosko Wilk Nusair interpolation
   ROPT   =   -0.00025  -0.00025
 Ionic relaxation
   EDIFFG = 0.2E-02   stopping-criterion for IOM
   NSW    =      0    number of steps for IOM
   NBLOCK =      1;   KBLOCK =      1    inner block; outer block 
   IBRION =     -1    ionic relax: 0-MD 1-quasi-New 2-CG
   NFREE  =      0    steps in history (QN), initial steepest desc. (CG)
   ISIF   =      4    stress and relaxation
   IWAVPR =     10    prediction:  0-non 1-charg 2-wave 3-comb
   ISYM   =      2    0-nonsym 1-usesym 2-fastsym
   LCORR  =      T    Harris-Foulkes like correction to forces

   POTIM  = 0.5000    time-step for ionic-motion
   TEIN   =    0.0    initial temperature
   TEBEG  =    0.0;   TEEND  =   0.0 temperature during run
   SMASS  =  -3.00    Nose mass-parameter (am)
   estimated Nose-frequenzy (Omega)   =  0.10E-29 period in steps = 0.13E+47 mass=  -0.131E-26a.u.
   SCALEE = 1.0000    scale energy and forces
   NPACO  =    256;   APACO  = 10.0  distance and # of slots for P.C.
   PSTRESS=    0.0 pullay stress

  Mass of Ions in am
   POMASS =  55.85 78.96
  Ionic Valenz
   ZVAL   =  14.00  6.00
  Atomic Wigner-Seitz radii
   RWIGS  =  -1.00 -1.00
  virtual crystal weights 
   VCA    =   1.00  1.00
   NELECT =     160.0000    total number of electrons
   NUPDOWN=      -1.0000    fix difference up-down

 DOS related values:
   EMIN   =  10.00;   EMAX   =-10.00  energy-range for DOS
   EFERMI =   0.00;   METHOD = LEGACY      
   ISMEAR =    -5;   SIGMA  =   0.05  broadening in eV -4-tet -1-fermi 0-gaus

 Electronic relaxation 2 (details)
   IALGO  =     68    algorithm
   LDIAG  =      T    sub-space diagonalisation (order eigenvalues)
   LSUBROT=      F    optimize rotation matrix (better conditioning)
   TURBO    =      0    0=normal 1=particle mesh
   IRESTART =      0    0=no restart 2=restart with 2 vectors
   NREBOOT  =      0    no. of reboots
   NMIN     =      0    reboot dimension
   EREF     =   0.00    reference energy to select bands
   IMIX   =      4    mixing-type and parameters
     AMIX     =   0.40;   BMIX     =  1.00
     AMIX_MAG =   1.60;   BMIX_MAG =  1.00
     AMIN     =   0.10
     WC   =   100.;   INIMIX=   1;  MIXPRE=   1;  MAXMIX= -45

 Intra band minimization:
   WEIMIN = 0.0000     energy-eigenvalue tresh-hold
   EBREAK =  0.50E-06  absolut break condition
   DEPER  =   0.30     relativ break condition  

   TIME   =   0.40     timestep for ELM

  volume/ion in A,a.u.               =      20.37       137.50
  Fermi-wavevector in a.u.,A,eV,Ry     =   1.291345  2.440288 22.688694  1.667572
  Thomas-Fermi vector in A             =   2.423121
 
 Write flags
   LWAVE        =      F    write WAVECAR
   LDOWNSAMPLE  =      F    k-point downsampling of WAVECAR
   LCHARG       =      T    write CHGCAR
   LVTOT        =      F    write LOCPOT, total local potential
   LVHAR        =      F    write LOCPOT, Hartree potential only
   LELF         =      F    write electronic localiz. function (ELF)
   LORBIT       =     11    0 simple, 1 ext, 2 COOP (PROOUT), +10 PAW based schemes


 Dipole corrections
   LMONO  =      F    monopole corrections only (constant potential shift)
   LDIPOL =      F    correct potential (dipole corrections)
   IDIPOL =      0    1-x, 2-y, 3-z, 4-all directions 
   EPSILON=  1.0000000 bulk dielectric constant

 Exchange correlation treatment:
   GGA     =    --    GGA type
   LEXCH   =     8    internal setting for exchange type
   LIBXC   =     F    Libxc                    
   VOSKOWN =     0    Vosko Wilk Nusair interpolation
   LHFCALC =     F    Hartree Fock is set to
   LHFONE  =     F    Hartree Fock one center treatment
   AEXX    =    0.0000 exact exchange contribution

 Linear response parameters
   LEPSILON=     F    determine dielectric tensor
   LRPA    =     F    only Hartree local field effects (RPA)
   LNABLA  =     F    use nabla operator in PAW spheres
   LVEL    =     F    velocity operator in full k-point grid
   CSHIFT  =0.1000    complex shift for real part using Kramers Kronig
   OMEGAMAX=  -1.0    maximum frequency
   DEG_THRESHOLD= 0.2000000E-02 threshold for treating states as degnerate
   RTIME   =   -0.100 relaxation time in fs
  (WPLASMAI=    0.000 imaginary part of plasma frequency in eV, 0.658/RTIME)
   DFIELD  = 0.0000000 0.0000000 0.0000000 field for delta impulse in time
 
  Optional k-point grid parameters
   LKPOINTS_OPT  =     F    use optional k-point grid
   KPOINTS_OPT_MODE=     1    mode for optional k-point grid
 
 Orbital magnetization related:
   ORBITALMAG=     F  switch on orbital magnetization
   LCHIMAG   =     F  perturbation theory with respect to B field
   DQ        =  0.001000  dq finite difference perturbation B field
   LLRAUG    =     F  two centre corrections for induced B field
   LBONE     =     F  B-component reconstruction in AE one-centre
   LVGVCALC  =     T  calculate vGv susceptibility
   LVGVAPPL  =     F  apply vGv susceptibility instead of pGv for G=0

 Random number generation:
   RANDOM_GENERATOR = DEFAULT
   PCG_SEED         = not used


--------------------------------------------------------------------------------------------------------


 Static calculation
 charge density and potential will be updated during run
 spin polarized calculation
 RMM-DIIS sequential band-by-band and
  variant of blocked Davidson during initial phase
 perform sub-space diagonalisation
    before iterative eigenvector-optimisation
 modified Broyden-mixing scheme, WC =      100.0
 initial mixing is a Kerker type mixing with AMIX =  0.4000 and BMIX =      1.0000
 Hartree-type preconditioning will be used
 using additional bands           20
 real space projection scheme for non local part
 use partial core corrections
 calculate Harris-corrections to forces 
   (improved forces if not selfconsistent)
 use gradient corrections 
 use of overlap-Matrix (Vanderbilt PP)
 Fermi weights with tetrahedron method with Bloechl corrections


--------------------------------------------------------------------------------------------------------


  energy-cutoff  :      550.00
  volume of cell :      326.00
      direct lattice vectors                 reciprocal lattice vectors
     4.866131522 -5.793697392  0.000000000     0.102751025 -0.086300676  0.000000000
     4.866131522  5.793697392  0.000000000     0.102751025  0.086300676  0.000000000
     0.000000000  0.000000000  5.781598826     0.000000000  0.000000000  0.172962537

  length of vectors
     7.566119577  7.566119577  5.781598826     0.134184871  0.134184871  0.172962537


 
 k-points in units of 2pi/SCALE and weight: KPOINTS                                 
   0.00000000  0.00000000  0.00000000       0.002
   0.01467872 -0.01232867  0.00000000       0.009
   0.02935744 -0.02465734  0.00000000       0.009
   0.04403615 -0.03698600  0.00000000       0.009
   0.02935744 -0.00000000  0.00000000       0.005
   0.04403615 -0.01232867  0.00000000       0.009
   0.05871487 -0.02465734  0.00000000       0.009
  -0.02935744  0.04931467  0.00000000       0.009
  -0.01467872  0.03698600  0.00000000       0.009
  -0.00000000  0.02465734  0.00000000       0.005
   0.05871487  0.00000000  0.00000000       0.005
   0.07339359 -0.01232867  0.00000000       0.009
  -0.01467872  0.06164334  0.00000000       0.009
   0.00000000  0.04931467  0.00000000       0.005
   0.08807231  0.00000000  0.00000000       0.005
   0.00000000  0.07397201  0.00000000       0.005
   0.00000000  0.00000000  0.01921806       0.005
   0.01467872 -0.01232867  0.01921806       0.018
   0.02935744 -0.02465734  0.01921806       0.018
   0.04403615 -0.03698600  0.01921806       0.018
   0.02935744 -0.00000000  0.01921806       0.009
   0.04403615 -0.01232867  0.01921806       0.018
   0.05871487 -0.02465734  0.01921806       0.018
  -0.02935744  0.04931467  0.01921806       0.018
  -0.01467872  0.03698600  0.01921806       0.018
  -0.00000000  0.02465734  0.01921806       0.009
   0.05871487  0.00000000  0.01921806       0.009
   0.07339359 -0.01232867  0.01921806       0.018
  -0.01467872  0.06164334  0.01921806       0.018
   0.00000000  0.04931467  0.01921806       0.009
   0.08807231  0.00000000  0.01921806       0.009
   0.00000000  0.07397201  0.01921806       0.009
   0.00000000  0.00000000  0.03843612       0.005
   0.01467872 -0.01232867  0.03843612       0.018
   0.02935744 -0.02465734  0.03843612       0.018
   0.04403615 -0.03698600  0.03843612       0.018
   0.02935744 -0.00000000  0.03843612       0.009
   0.04403615 -0.01232867  0.03843612       0.018
   0.05871487 -0.02465734  0.03843612       0.018
  -0.02935744  0.04931467  0.03843612       0.018
  -0.01467872  0.03698600  0.03843612       0.018
  -0.00000000  0.02465734  0.03843612       0.009
   0.05871487  0.00000000  0.03843612       0.009
   0.07339359 -0.01232867  0.03843612       0.018
  -0.01467872  0.06164334  0.03843612       0.018
   0.00000000  0.04931467  0.03843612       0.009
   0.08807231  0.00000000  0.03843612       0.009
   0.00000000  0.07397201  0.03843612       0.009
   0.00000000  0.00000000  0.05765418       0.005
   0.01467872 -0.01232867  0.05765418       0.018
   0.02935744 -0.02465734  0.05765418       0.018
   0.04403615 -0.03698600  0.05765418       0.018
   0.02935744 -0.00000000  0.05765418       0.009
   0.04403615 -0.01232867  0.05765418       0.018
   0.05871487 -0.02465734  0.05765418       0.018
  -0.02935744  0.04931467  0.05765418       0.018
  -0.01467872  0.03698600  0.05765418       0.018
  -0.00000000  0.02465734  0.05765418       0.009
   0.05871487  0.00000000  0.05765418       0.009
   0.07339359 -0.01232867  0.05765418       0.018
  -0.01467872  0.06164334  0.05765418       0.018
   0.00000000  0.04931467  0.05765418       0.009
   0.08807231  0.00000000  0.05765418       0.009
   0.00000000  0.07397201  0.05765418       0.009
   0.00000000  0.00000000  0.07687224       0.005
   0.01467872 -0.01232867  0.07687224       0.018
   0.02935744 -0.02465734  0.07687224       0.018
   0.04403615 -0.03698600  0.07687224       0.018
   0.02935744 -0.00000000  0.07687224       0.009
   0.04403615 -0.01232867  0.07687224       0.018
   0.05871487 -0.02465734  0.07687224       0.018
  -0.02935744  0.04931467  0.07687224       0.018
  -0.01467872  0.03698600  0.07687224       0.018
  -0.00000000  0.02465734  0.07687224       0.009
   0.05871487  0.00000000  0.07687224       0.009
   0.07339359 -0.01232867  0.07687224       0.018
  -0.01467872  0.06164334  0.07687224       0.018
   0.00000000  0.04931467  0.07687224       0.009
   0.08807231  0.00000000  0.07687224       0.009
   0.00000000  0.07397201  0.07687224       0.009
 
 k-points in reciprocal lattice and weights: KPOINTS                                 
   0.00000000  0.00000000  0.00000000       0.002
   0.14285714  0.00000000  0.00000000       0.009
   0.28571429 -0.00000000  0.00000000       0.009
   0.42857143 -0.00000000  0.00000000       0.009
   0.14285714  0.14285714  0.00000000       0.005
   0.28571429  0.14285714  0.00000000       0.009
   0.42857143  0.14285714  0.00000000       0.009
  -0.42857143  0.14285714  0.00000000       0.009
  -0.28571429  0.14285714  0.00000000       0.009
  -0.14285714  0.14285714  0.00000000       0.005
   0.28571429  0.28571429  0.00000000       0.005
   0.42857143  0.28571429  0.00000000       0.009
  -0.42857143  0.28571429  0.00000000       0.009
  -0.28571429  0.28571429  0.00000000       0.005
   0.42857143  0.42857143  0.00000000       0.005
  -0.42857143  0.42857143  0.00000000       0.005
   0.00000000  0.00000000  0.11111111       0.005
   0.14285714  0.00000000  0.11111111       0.018
   0.28571429 -0.00000000  0.11111111       0.018
   0.42857143 -0.00000000  0.11111111       0.018
   0.14285714  0.14285714  0.11111111       0.009
   0.28571429  0.14285714  0.11111111       0.018
   0.42857143  0.14285714  0.11111111       0.018
  -0.42857143  0.14285714  0.11111111       0.018
  -0.28571429  0.14285714  0.11111111       0.018
  -0.14285714  0.14285714  0.11111111       0.009
   0.28571429  0.28571429  0.11111111       0.009
   0.42857143  0.28571429  0.11111111       0.018
  -0.42857143  0.28571429  0.11111111       0.018
  -0.28571429  0.28571429  0.11111111       0.009
   0.42857143  0.42857143  0.11111111       0.009
  -0.42857143  0.42857143  0.11111111       0.009
   0.00000000  0.00000000  0.22222222       0.005
   0.14285714  0.00000000  0.22222222       0.018
   0.28571429 -0.00000000  0.22222222       0.018
   0.42857143 -0.00000000  0.22222222       0.018
   0.14285714  0.14285714  0.22222222       0.009
   0.28571429  0.14285714  0.22222222       0.018
   0.42857143  0.14285714  0.22222222       0.018
  -0.42857143  0.14285714  0.22222222       0.018
  -0.28571429  0.14285714  0.22222222       0.018
  -0.14285714  0.14285714  0.22222222       0.009
   0.28571429  0.28571429  0.22222222       0.009
   0.42857143  0.28571429  0.22222222       0.018
  -0.42857143  0.28571429  0.22222222       0.018
  -0.28571429  0.28571429  0.22222222       0.009
   0.42857143  0.42857143  0.22222222       0.009
  -0.42857143  0.42857143  0.22222222       0.009
   0.00000000  0.00000000  0.33333333       0.005
   0.14285714  0.00000000  0.33333333       0.018
   0.28571429 -0.00000000  0.33333333       0.018
   0.42857143 -0.00000000  0.33333333       0.018
   0.14285714  0.14285714  0.33333333       0.009
   0.28571429  0.14285714  0.33333333       0.018
   0.42857143  0.14285714  0.33333333       0.018
  -0.42857143  0.14285714  0.33333333       0.018
  -0.28571429  0.14285714  0.33333333       0.018
  -0.14285714  0.14285714  0.33333333       0.009
   0.28571429  0.28571429  0.33333333       0.009
   0.42857143  0.28571429  0.33333333       0.018
  -0.42857143  0.28571429  0.33333333       0.018
  -0.28571429  0.28571429  0.33333333       0.009
   0.42857143  0.42857143  0.33333333       0.009
  -0.42857143  0.42857143  0.33333333       0.009
   0.00000000  0.00000000  0.44444444       0.005
   0.14285714  0.00000000  0.44444444       0.018
   0.28571429 -0.00000000  0.44444444       0.018
   0.42857143 -0.00000000  0.44444444       0.018
   0.14285714  0.14285714  0.44444444       0.009
   0.28571429  0.14285714  0.44444444       0.018
   0.42857143  0.14285714  0.44444444       0.018
  -0.42857143  0.14285714  0.44444444       0.018
  -0.28571429  0.14285714  0.44444444       0.018
  -0.14285714  0.14285714  0.44444444       0.009
   0.28571429  0.28571429  0.44444444       0.009
   0.42857143  0.28571429  0.44444444       0.018
  -0.42857143  0.28571429  0.44444444       0.018
  -0.28571429  0.28571429  0.44444444       0.009
   0.42857143  0.42857143  0.44444444       0.009
  -0.42857143  0.42857143  0.44444444       0.009
 
 position of ions in fractional coordinates (direct lattice) 
   0.00000000  0.00000000  0.00000000
   0.00000000  0.50000000  0.00000000
   0.50000000  0.00000000  0.00000000
   0.50000000  0.50000000  0.00000000
   0.25000000  0.25000000  0.00000000
   0.25000000  0.75000000  0.00000000
   0.75000000  0.25000000  0.00000000
   0.75000000  0.75000000  0.00000000
   0.37500000  0.12500000  0.69188879
   0.37500000  0.62500000  0.69188879
   0.87500000  0.12500000  0.69188879
   0.87500000  0.62500000  0.69188879
   0.12500000  0.37500000  0.30811121
   0.12500000  0.87500000  0.30811121
   0.62500000  0.37500000  0.30811121
   0.62500000  0.87500000  0.30811121
 
 position of ions in cartesian coordinates  (Angst):
   0.00000000  0.00000000  0.00000000
   2.43306576  2.89684870  0.00000000
   2.43306576 -2.89684870  0.00000000
   4.86613152  0.00000000  0.00000000
   2.43306576  0.00000000  0.00000000
   4.86613152  2.89684870  0.00000000
   4.86613152 -2.89684870  0.00000000
   7.29919728  0.00000000  0.00000000
   2.43306576 -1.44842435  4.00022343
   4.86613152  1.44842435  4.00022343
   4.86613152 -4.34527304  4.00022343
   7.29919728 -1.44842435  4.00022343
   2.43306576  1.44842435  1.78137539
   4.86613152  4.34527304  1.78137539
   4.86613152 -1.44842435  1.78137539
   7.29919728  1.44842435  1.78137539
 


--------------------------------------------------------------------------------------------------------


 k-point   1 :   0.0000 0.0000 0.0000  plane waves:    9515
 k-point   2 :   0.1429 0.0000 0.0000  plane waves:    9548
 k-point   3 :   0.2857-0.0000 0.0000  plane waves:    9545
 k-point   4 :   0.4286-0.0000 0.0000  plane waves:    9529
 k-point   5 :   0.1429 0.1429 0.0000  plane waves:    9571
 k-point   6 :   0.2857 0.1429 0.0000  plane waves:    9542
 k-point   7 :   0.4286 0.1429 0.0000  plane waves:    9524
 k-point   8 :  -0.4286 0.1429 0.0000  plane waves:    9541
 k-point   9 :  -0.2857 0.1429 0.0000  plane waves:    9553
 k-point  10 :  -0.1429 0.1429 0.0000  plane waves:    9538
 k-point  11 :   0.2857 0.2857 0.0000  plane waves:    9547
 k-point  12 :   0.4286 0.2857 0.0000  plane waves:    9523
 k-point  13 :  -0.4286 0.2857 0.0000  plane waves:    9525
 k-point  14 :  -0.2857 0.2857 0.0000  plane waves:    9550
 k-point  15 :   0.4286 0.4286 0.0000  plane waves:    9520
 k-point  16 :  -0.4286 0.4286 0.0000  plane waves:    9528
 k-point  17 :   0.0000 0.0000 0.1111  plane waves:    9548
 k-point  18 :   0.1429 0.0000 0.1111  plane waves:    9559
 k-point  19 :   0.2857-0.0000 0.1111  plane waves:    9544
 k-point  20 :   0.4286-0.0000 0.1111  plane waves:    9522
 k-point  21 :   0.1429 0.1429 0.1111  plane waves:    9547
 k-point  22 :   0.2857 0.1429 0.1111  plane waves:    9538
 k-point  23 :   0.4286 0.1429 0.1111  plane waves:    9527
 k-point  24 :  -0.4286 0.1429 0.1111  plane waves:    9540
 k-point  25 :  -0.2857 0.1429 0.1111  plane waves:    9547
 k-point  26 :  -0.1429 0.1429 0.1111  plane waves:    9552
 k-point  27 :   0.2857 0.2857 0.1111  plane waves:    9530
 k-point  28 :   0.4286 0.2857 0.1111  plane waves:    9524
 k-point  29 :  -0.4286 0.2857 0.1111  plane waves:    9544
 k-point  30 :  -0.2857 0.2857 0.1111  plane waves:    9557
 k-point  31 :   0.4286 0.4286 0.1111  plane waves:    9520
 k-point  32 :  -0.4286 0.4286 0.1111  plane waves:    9529
 k-point  33 :   0.0000 0.0000 0.2222  plane waves:    9548
 k-point  34 :   0.1429 0.0000 0.2222  plane waves:    9564
 k-point  35 :   0.2857-0.0000 0.2222  plane waves:    9552
 k-point  36 :   0.4286-0.0000 0.2222  plane waves:    9538
 k-point  37 :   0.1429 0.1429 0.2222  plane waves:    9565
 k-point  38 :   0.2857 0.1429 0.2222  plane waves:    9547
 k-point  39 :   0.4286 0.1429 0.2222  plane waves:    9544
 k-point  40 :  -0.4286 0.1429 0.2222  plane waves:    9544
 k-point  41 :  -0.2857 0.1429 0.2222  plane waves:    9561
 k-point  42 :  -0.1429 0.1429 0.2222  plane waves:    9565
 k-point  43 :   0.2857 0.2857 0.2222  plane waves:    9529
 k-point  44 :   0.4286 0.2857 0.2222  plane waves:    9528
 k-point  45 :  -0.4286 0.2857 0.2222  plane waves:    9552
 k-point  46 :  -0.2857 0.2857 0.2222  plane waves:    9570
 k-point  47 :   0.4286 0.4286 0.2222  plane waves:    9531
 k-point  48 :  -0.4286 0.4286 0.2222  plane waves:    9556
 k-point  49 :   0.0000 0.0000 0.3333  plane waves:    9552
 k-point  50 :   0.1429 0.0000 0.3333  plane waves:    9551
 k-point  51 :   0.2857-0.0000 0.3333  plane waves:    9569
 k-point  52 :   0.4286-0.0000 0.3333  plane waves:    9558
 k-point  53 :   0.1429 0.1429 0.3333  plane waves:    9549
 k-point  54 :   0.2857 0.1429 0.3333  plane waves:    9556
 k-point  55 :   0.4286 0.1429 0.3333  plane waves:    9544
 k-point  56 :  -0.4286 0.1429 0.3333  plane waves:    9551
 k-point  57 :  -0.2857 0.1429 0.3333  plane waves:    9558
 k-point  58 :  -0.1429 0.1429 0.3333  plane waves:    9551
 k-point  59 :   0.2857 0.2857 0.3333  plane waves:    9552
 k-point  60 :   0.4286 0.2857 0.3333  plane waves:    9541
 k-point  61 :  -0.4286 0.2857 0.3333  plane waves:    9565
 k-point  62 :  -0.2857 0.2857 0.3333  plane waves:    9564
 k-point  63 :   0.4286 0.4286 0.3333  plane waves:    9538
 k-point  64 :  -0.4286 0.4286 0.3333  plane waves:    9543
 k-point  65 :   0.0000 0.0000 0.4444  plane waves:    9608
 k-point  66 :   0.1429 0.0000 0.4444  plane waves:    9580
 k-point  67 :   0.2857-0.0000 0.4444  plane waves:    9557
 k-point  68 :   0.4286-0.0000 0.4444  plane waves:    9569
 k-point  69 :   0.1429 0.1429 0.4444  plane waves:    9578
 k-point  70 :   0.2857 0.1429 0.4444  plane waves:    9557
 k-point  71 :   0.4286 0.1429 0.4444  plane waves:    9557
 k-point  72 :  -0.4286 0.1429 0.4444  plane waves:    9561
 k-point  73 :  -0.2857 0.1429 0.4444  plane waves:    9551
 k-point  74 :  -0.1429 0.1429 0.4444  plane waves:    9583
 k-point  75 :   0.2857 0.2857 0.4444  plane waves:    9557
 k-point  76 :   0.4286 0.2857 0.4444  plane waves:    9545
 k-point  77 :  -0.4286 0.2857 0.4444  plane waves:    9548
 k-point  78 :  -0.2857 0.2857 0.4444  plane waves:    9543
 k-point  79 :   0.4286 0.4286 0.4444  plane waves:    9532
 k-point  80 :  -0.4286 0.4286 0.4444  plane waves:    9536

 maximum and minimum number of plane-waves per node :      9608     9515

 maximum number of plane-waves:      9608
 maximum index in each direction: 
   IXMAX=   14   IYMAX=   14   IZMAX=   11
   IXMIN=  -14   IYMIN=  -14   IZMIN=  -11


 serial   3D FFT for wavefunctions
 parallel 3D FFT for charge:
    minimum data exchange during FFTs selected (reduces bandwidth)


 total amount of memory used by VASP MPI-rank0   192930. kBytes
=======================================================================

   base      :      30000. kBytes
   nonlr-proj:      13325. kBytes
   fftplans  :       3084. kBytes
   grid      :      19560. kBytes
   one-center:        497. kBytes
   wavefun   :     126464. kBytes
 
     INWAV:  cpu time      0.0000: real time      0.0002
 Broyden mixing: mesh for mixing (old mesh)
   NGX = 29   NGY = 29   NGZ = 23
  (NGX  =120   NGY  =120   NGZ  = 96)
  gives a total of  19343 points

 initial charge density was supplied:
 charge density of overlapping atoms calculated
 number of electron     160.0000000 magnetization       0.0000000
 keeping initial charge density in first step


--------------------------------------------------------------------------------------------------------


 Maximum index for non-local projection operator         6529
 Maximum index for augmentation-charges         1138 (set IRDMAX)


--------------------------------------------------------------------------------------------------------


 First call to EWALD:  gamma=   0.258
 Maximum number of real-space cells 3x 3x 3
 Maximum number of reciprocal cells 3x 3x 2

    FEWALD:  cpu time      0.0017: real time      0.0018


--------------------------------------- Ionic step        1  -------------------------------------------




--------------------------------------- Iteration      1(   1)  ---------------------------------------


    POTLOK:  cpu time      0.0681: real time      0.0849
    SETDIJ:  cpu time      0.2778: real time      0.2790
     EDDAV:  cpu time     29.3747: real time     29.5263
 BZINTS: Fermi energy:   19.998235;  160.000000 electrons
         Band energy:-0.204270E+03;  BLOECHL correction:   -0.068685
       DOS:  cpu time      0.1458: real time      0.1463
    --------------------------------------------
      LOOP:  cpu time     29.8664: real time     30.0364

 eigenvalue-minimisations  : 35580
 total energy-change (2. order) : 0.1997731E+04  (-0.8893577E+04)
 number of electron     160.0000000 magnetization       0.0000000
 augmentation part      160.0000000 magnetization       0.0000000

 Free energy of the ion-electron system (eV)
  ---------------------------------------------------
  alpha Z        PSCENC =       778.99259288
  Ewald energy   TEWEN  =    -10934.52222025
  -Hartree energ DENC   =     -9321.95769057
  -exchange      EXHF   =         0.00000000
  -V(xc)+E(xc)   XCENC  =       564.41661535
  PAW double counting   =     15527.99206841   -16123.76158275
  entropy T*S    EENTRO =         0.00000000
  eigenvalues    EBANDS =      -204.27018040
  atomic energy  EATOM  =     21710.84102437
  Solvation  Ediel_sol  =         0.00000000
  ---------------------------------------------------
  free energy    TOTEN  =      1997.73062704 eV

  energy without entropy =     1997.73062704  energy(sigma->0) =     1997.73062704


--------------------------------------------------------------------------------------------------------




--------------------------------------- Iteration      1(   2)  ---------------------------------------


     EDDAV:  cpu time     27.5995: real time     27.7568
 BZINTS: Fermi energy:    6.590776;  160.000000 electrons
         Band energy:-0.208050E+04;  BLOECHL correction:   -0.026810
       DOS:  cpu time      0.1665: real time      0.1672
    --------------------------------------------
      LOOP:  cpu time     27.7660: real time     27.9240

 eigenvalue-minimisations  : 32000
 total energy-change (2. order) :-0.1876225E+04  (-0.1822648E+04)
 number of electron     160.0000000 magnetization       0.0000000
 augmentation part      160.0000000 magnetization       0.0000000

 Free energy of the ion-electron system (eV)
  ---------------------------------------------------
  alpha Z        PSCENC =       778.99259288
  Ewald energy   TEWEN  =    -10934.52222025
  -Hartree energ DENC   =     -9321.95769057
  -exchange      EXHF   =         0.00000000
  -V(xc)+E(xc)   XCENC  =       564.41661535
  PAW double counting   =     15527.99206841   -16123.76158275
  entropy T*S    EENTRO =         0.00000000
  eigenvalues    EBANDS =     -2080.49514065
  atomic energy  EATOM  =     21710.84102437
  Solvation  Ediel_sol  =         0.00000000
  ---------------------------------------------------
  free energy    TOTEN  =       121.50566679 eV

  energy without entropy =      121.50566679  energy(sigma->0) =      121.50566679


--------------------------------------------------------------------------------------------------------




--------------------------------------- Iteration      1(   3)  ---------------------------------------


     EDDAV:  cpu time     37.2440: real time     37.4766
 BZINTS: Fermi energy:    4.775170;  160.000000 electrons
         Band energy:-0.228748E+04;  BLOECHL correction:   -0.015307
       DOS:  cpu time      0.1671: real time      0.1678
    --------------------------------------------
      LOOP:  cpu time     37.4112: real time     37.6444

 eigenvalue-minimisations  : 46320
 total energy-change (2. order) :-0.2069846E+03  (-0.1840276E+03)
 number of electron     160.0000000 magnetization       0.0000000
 augmentation part      160.0000000 magnetization       0.0000000

 Free energy of the ion-electron system (eV)
  ---------------------------------------------------
  alpha Z        PSCENC =       778.99259288
  Ewald energy   TEWEN  =    -10934.52222025
  -Hartree energ DENC   =     -9321.95769057
  -exchange      EXHF   =         0.00000000
  -V(xc)+E(xc)   XCENC  =       564.41661535
  PAW double counting   =     15527.99206841   -16123.76158275
  entropy T*S    EENTRO =         0.00000000
  eigenvalues    EBANDS =     -2287.47970262
  atomic energy  EATOM  =     21710.84102437
  Solvation  Ediel_sol  =         0.00000000
  ---------------------------------------------------
  free energy    TOTEN  =       -85.47889518 eV

  energy without entropy =      -85.47889518  energy(sigma->0) =      -85.47889518


--------------------------------------------------------------------------------------------------------




--------------------------------------- Iteration      1(   4)  ---------------------------------------


     EDDAV:  cpu time     38.4356: real time     38.6372
 BZINTS: Fermi energy:    4.657752;  160.000000 electrons
         Band energy:-0.230213E+04;  BLOECHL correction:   -0.021987
       DOS:  cpu time      0.1572: real time      0.1578
    --------------------------------------------
      LOOP:  cpu time     38.5928: real time     38.7949

 eigenvalue-minimisations  : 47420
 total energy-change (2. order) :-0.1465523E+02  (-0.1431879E+02)
 number of electron     160.0000000 magnetization       0.0000000
 augmentation part      160.0000000 magnetization       0.0000000

 Free energy of the ion-electron system (eV)
  ---------------------------------------------------
  alpha Z        PSCENC =       778.99259288
  Ewald energy   TEWEN  =    -10934.52222025
  -Hartree energ DENC   =     -9321.95769057
  -exchange      EXHF   =         0.00000000
  -V(xc)+E(xc)   XCENC  =       564.41661535
  PAW double counting   =     15527.99206841   -16123.76158275
  entropy T*S    EENTRO =         0.00000000
  eigenvalues    EBANDS =     -2302.13493167
  atomic energy  EATOM  =     21710.84102437
  Solvation  Ediel_sol  =         0.00000000
  ---------------------------------------------------
  free energy    TOTEN  =      -100.13412423 eV

  energy without entropy =     -100.13412423  energy(sigma->0) =     -100.13412423


--------------------------------------------------------------------------------------------------------




--------------------------------------- Iteration      1(   5)  ---------------------------------------


     EDDAV:  cpu time     35.8244: real time     36.0404
 BZINTS: Fermi energy:    4.654184;  160.000000 electrons
         Band energy:-0.230247E+04;  BLOECHL correction:   -0.021855
       DOS:  cpu time      0.1507: real time      0.1513
    CHARGE:  cpu time      1.1194: real time      1.1260
    MIXING:  cpu time      0.0017: real time      0.0017
    --------------------------------------------
      LOOP:  cpu time     37.0962: real time     37.3194

 eigenvalue-minimisations  : 44660
 total energy-change (2. order) :-0.3357323E+00  (-0.3349137E+00)
 number of electron     160.0000061 magnetization      -0.0000000
 augmentation part       53.0014435 magnetization      -0.0000000

 Broyden mixing:
  rms(total) = 0.28053E+01    rms(broyden)= 0.28050E+01
  rms(prec ) = 0.43984E+01
  weight for this iteration     100.00

 Free energy of the ion-electron system (eV)
  ---------------------------------------------------
  alpha Z        PSCENC =       778.99259288
  Ewald energy   TEWEN  =    -10934.52222025
  -Hartree energ DENC   =     -9321.95769057
  -exchange      EXHF   =         0.00000000
  -V(xc)+E(xc)   XCENC  =       564.41661535
  PAW double counting   =     15527.99206841   -16123.76158275
  entropy T*S    EENTRO =         0.00000000
  eigenvalues    EBANDS =     -2302.47066398
  atomic energy  EATOM  =     21710.84102437
  Solvation  Ediel_sol  =         0.00000000
  ---------------------------------------------------
  free energy    TOTEN  =      -100.46985654 eV

  energy without entropy =     -100.46985654  energy(sigma->0) =     -100.46985654


--------------------------------------------------------------------------------------------------------




--------------------------------------- Iteration      1(   6)  ---------------------------------------


    POTLOK:  cpu time      0.0823: real time      0.1018
    SETDIJ:  cpu time      0.2722: real time      0.2737
    EDDIAG:  cpu time      4.6889: real time      4.7147
  RMM-DIIS:  cpu time     19.0835: real time     19.1744
    ORTHCH:  cpu time      0.5979: real time      0.6005
 BZINTS: Fermi energy:    1.604736;  160.000000 electrons
         Band energy:-0.280863E+04;  BLOECHL correction:   -0.028130
       DOS:  cpu time      0.1798: real time      0.1806
    CHARGE:  cpu time      1.0197: real time      1.0260
    MIXING:  cpu time      0.0017: real time      0.0017
    --------------------------------------------
      LOOP:  cpu time     25.9259: real time     26.0733

 eigenvalue-minimisations  : 34783
 total energy-change (2. order) :-0.1366902E+02  (-0.1799889E+02)
 number of electron     160.0000078 magnetization      -0.0000000
 augmentation part       70.6065947 magnetization      -0.0000000

 Broyden mixing:
  rms(total) = 0.55143E+01    rms(broyden)= 0.55142E+01
  rms(prec ) = 0.86992E+01
  weight for this iteration     100.00

 eigenvalues of (default mixing * dielectric matrix)
  average eigenvalue GAMMA=   0.2904
  0.2904

 Free energy of the ion-electron system (eV)
  ---------------------------------------------------
  alpha Z        PSCENC =       778.99259288
  Ewald energy   TEWEN  =    -10934.52222025
  -Hartree energ DENC   =     -8849.85169900
  -exchange      EXHF   =         0.00000000
  -V(xc)+E(xc)   XCENC  =       552.36187431
  PAW double counting   =     14951.85887867   -15515.19226549
  entropy T*S    EENTRO =         0.00000000
  eigenvalues    EBANDS =     -2808.62706327
  atomic energy  EATOM  =     21710.84102437
  Solvation  Ediel_sol  =         0.00000000
  ---------------------------------------------------
  free energy    TOTEN  =      -114.13887777 eV

  energy without entropy =     -114.13887777  energy(sigma->0) =     -114.13887777


--------------------------------------------------------------------------------------------------------




--------------------------------------- Iteration      1(   7)  ---------------------------------------


    POTLOK:  cpu time      0.0558: real time      0.1102
    SETDIJ:  cpu time      0.2726: real time      0.2738
    EDDIAG:  cpu time      4.4917: real time      4.5173
  RMM-DIIS:  cpu time     17.1963: real time     17.2831
    ORTHCH:  cpu time      0.6036: real time      0.6062
 BZINTS: Fermi energy:    3.530368;  160.000000 electrons
         Band energy:-0.246438E+04;  BLOECHL correction:   -0.016869
       DOS:  cpu time      0.1561: real time      0.1568
    CHARGE:  cpu time      1.0946: real time      1.1010
    MIXING:  cpu time      0.0017: real time      0.0017
    --------------------------------------------
      LOOP:  cpu time     23.8724: real time     24.0500

 eigenvalue-minimisations  : 32067
 total energy-change (2. order) : 0.2323383E+02  (-0.4684243E+01)
 number of electron     160.0000061 magnetization      -0.0000000
 augmentation part       57.7548879 magnetization      -0.0000000

 Broyden mixing:
  rms(total) = 0.11972E+01    rms(broyden)= 0.11965E+01
  rms(prec ) = 0.14318E+01
  weight for this iteration     100.00

 eigenvalues of (default mixing * dielectric matrix)
  average eigenvalue GAMMA=   0.4361
  0.6113  0.2608

 Free energy of the ion-electron system (eV)
  ---------------------------------------------------
  alpha Z        PSCENC =       778.99259288
  Ewald energy   TEWEN  =    -10934.52222025
  -Hartree energ DENC   =     -9142.00803020
  -exchange      EXHF   =         0.00000000
  -V(xc)+E(xc)   XCENC  =       557.50478696
  PAW double counting   =     15456.93403289   -16054.26895990
  entropy T*S    EENTRO =         0.00000000
  eigenvalues    EBANDS =     -2464.37827310
  atomic energy  EATOM  =     21710.84102437
  Solvation  Ediel_sol  =         0.00000000
  ---------------------------------------------------
  free energy    TOTEN  =       -90.90504635 eV

  energy without entropy =      -90.90504635  energy(sigma->0) =      -90.90504635


--------------------------------------------------------------------------------------------------------




--------------------------------------- Iteration      1(   8)  ---------------------------------------


    POTLOK:  cpu time      0.0574: real time      0.0579
    SETDIJ:  cpu time      0.2741: real time      0.2757
    EDDIAG:  cpu time      4.5864: real time      4.6077
  RMM-DIIS:  cpu time     24.7677: real time     24.8862
    ORTHCH:  cpu time      0.5997: real time      0.6032
 BZINTS: Fermi energy:    3.518182;  160.000000 electrons
         Band energy:-0.247055E+04;  BLOECHL correction:   -0.016463
       DOS:  cpu time      0.1781: real time      0.1788
    CHARGE:  cpu time      1.0591: real time      1.0657
    MIXING:  cpu time      0.0018: real time      0.0018
    --------------------------------------------
      LOOP:  cpu time     31.5242: real time     31.6769

 eigenvalue-minimisations  : 46139
 total energy-change (2. order) :-0.6713440E+00  (-0.3654039E+00)
 number of electron     160.0000059 magnetization       0.0000000
 augmentation part       58.2710015 magnetization       0.0000000

 Broyden mixing:
  rms(total) = 0.58535E+00    rms(broyden)= 0.58503E+00
  rms(prec ) = 0.76947E+00
  weight for this iteration     100.00

 eigenvalues of (default mixing * dielectric matrix)
  average eigenvalue GAMMA=   0.6187
  0.3029  0.7766  0.7766

 Free energy of the ion-electron system (eV)
  ---------------------------------------------------
  alpha Z        PSCENC =       778.99259288
  Ewald energy   TEWEN  =    -10934.52222025
  -Hartree energ DENC   =     -9130.23913270
  -exchange      EXHF   =         0.00000000
  -V(xc)+E(xc)   XCENC  =       557.97997406
  PAW double counting   =     15501.73217640   -16105.81180721
  entropy T*S    EENTRO =         0.00000000
  eigenvalues    EBANDS =     -2470.54899789
  atomic energy  EATOM  =     21710.84102437
  Solvation  Ediel_sol  =         0.00000000
  ---------------------------------------------------
  free energy    TOTEN  =       -91.57639033 eV

  energy without entropy =      -91.57639033  energy(sigma->0) =      -91.57639033


--------------------------------------------------------------------------------------------------------




--------------------------------------- Iteration      1(   9)  ---------------------------------------


    POTLOK:  cpu time      0.0679: real time      0.0766
    SETDIJ:  cpu time      0.2774: real time      0.2784
    EDDIAG:  cpu time      4.6109: real time      4.6353
  RMM-DIIS:  cpu time     26.3694: real time     26.5042
    ORTHCH:  cpu time      0.6119: real time      0.6144
 BZINTS: Fermi energy:    3.429546;  160.000000 electrons
         Band energy:-0.248155E+04;  BLOECHL correction:   -0.013647
       DOS:  cpu time      0.1679: real time      0.1687
    CHARGE:  cpu time      1.0672: real time      1.0730
    MIXING:  cpu time      0.0018: real time      0.0018
    --------------------------------------------
      LOOP:  cpu time     33.1744: real time     33.3524

 eigenvalue-minimisations  : 50499
 total energy-change (2. order) :-0.9961985E-01  (-0.9940045E-01)
 number of electron     160.0000058 magnetization       0.0000000
 augmentation part       58.7400073 magnetization       0.0000000

 Broyden mixing:
  rms(total) = 0.30970E+00    rms(broyden)= 0.30921E+00
  rms(prec ) = 0.37810E+00
  weight for this iteration     100.00

 eigenvalues of (default mixing * dielectric matrix)
  average eigenvalue GAMMA=   0.7788
  1.0667  1.0667  0.2970  0.6850

 Free energy of the ion-electron system (eV)
  ---------------------------------------------------
  alpha Z        PSCENC =       778.99259288
  Ewald energy   TEWEN  =    -10934.52222025
  -Hartree energ DENC   =     -9113.29411107
  -exchange      EXHF   =         0.00000000
  -V(xc)+E(xc)   XCENC  =       558.24804786
  PAW double counting   =     15575.42790890   -16185.82033643
  entropy T*S    EENTRO =         0.00000000
  eigenvalues    EBANDS =     -2481.54891644
  atomic energy  EATOM  =     21710.84102437
  Solvation  Ediel_sol  =         0.00000000
  ---------------------------------------------------
  free energy    TOTEN  =       -91.67601018 eV

  energy without entropy =      -91.67601018  energy(sigma->0) =      -91.67601018


--------------------------------------------------------------------------------------------------------




--------------------------------------- Iteration      1(  10)  ---------------------------------------


    POTLOK:  cpu time      0.0772: real time      0.0944
    SETDIJ:  cpu time      0.2769: real time      0.2780
    EDDIAG:  cpu time      4.6038: real time      4.6259
  RMM-DIIS:  cpu time     28.4149: real time     28.5541
    ORTHCH:  cpu time      0.6007: real time      0.6035
 BZINTS: Fermi energy:    3.386489;  160.000000 electrons
         Band energy:-0.248468E+04;  BLOECHL correction:   -0.012009
       DOS:  cpu time      0.1669: real time      0.1676
    CHARGE:  cpu time      1.0550: real time      1.0609
    MIXING:  cpu time      0.0020: real time      0.0020
    --------------------------------------------
      LOOP:  cpu time     35.1974: real time     35.3864

 eigenvalue-minimisations  : 52467
 total energy-change (2. order) :-0.3453129E-01  (-0.3022198E-01)
 number of electron     160.0000059 magnetization      -0.0000000
 augmentation part       58.9321784 magnetization      -0.0000000

 Broyden mixing:
  rms(total) = 0.19619E+00    rms(broyden)= 0.19599E+00
  rms(prec ) = 0.22743E+00
  weight for this iteration     100.00

 eigenvalues of (default mixing * dielectric matrix)
  average eigenvalue GAMMA=   1.0090
  1.6129  1.6129  0.2977  0.7608  0.7608

 Free energy of the ion-electron system (eV)
  ---------------------------------------------------
  alpha Z        PSCENC =       778.99259288
  Ewald energy   TEWEN  =    -10934.52222025
  -Hartree energ DENC   =     -9106.90843849
  -exchange      EXHF   =         0.00000000
  -V(xc)+E(xc)   XCENC  =       558.26703242
  PAW double counting   =     15621.96379875   -16235.66862901
  entropy T*S    EENTRO =         0.00000000
  eigenvalues    EBANDS =     -2484.67570215
  atomic energy  EATOM  =     21710.84102437
  Solvation  Ediel_sol  =         0.00000000
  ---------------------------------------------------
  free energy    TOTEN  =       -91.71054147 eV

  energy without entropy =      -91.71054147  energy(sigma->0) =      -91.71054147


--------------------------------------------------------------------------------------------------------




--------------------------------------- Iteration      1(  11)  ---------------------------------------


    POTLOK:  cpu time      0.0725: real time      0.0822
    SETDIJ:  cpu time      0.2763: real time      0.2773
    EDDIAG:  cpu time      4.5657: real time      4.5914
  RMM-DIIS:  cpu time     25.2468: real time     25.3703
    ORTHCH:  cpu time      0.6024: real time      0.6051
 BZINTS: Fermi energy:    3.390294;  160.000000 electrons
         Band energy:-0.248403E+04;  BLOECHL correction:   -0.011357
       DOS:  cpu time      0.1530: real time      0.1536
    CHARGE:  cpu time      1.0818: real time      1.0873
    MIXING:  cpu time      0.0017: real time      0.0017
    --------------------------------------------
      LOOP:  cpu time     32.0002: real time     32.1690

 eigenvalue-minimisations  : 47066
 total energy-change (2. order) : 0.6323125E-02  (-0.7620444E-02)
 number of electron     160.0000059 magnetization      -0.0000000
 augmentation part       58.9160436 magnetization      -0.0000000

 Broyden mixing:
  rms(total) = 0.80237E-01    rms(broyden)= 0.80158E-01
  rms(prec ) = 0.92593E-01
  weight for this iteration     100.00

 eigenvalues of (default mixing * dielectric matrix)
  average eigenvalue GAMMA=   1.0939
  1.8858  1.8858  0.2976  0.9052  0.9052  0.6836

 Free energy of the ion-electron system (eV)
  ---------------------------------------------------
  alpha Z        PSCENC =       778.99259288
  Ewald energy   TEWEN  =    -10934.52222025
  -Hartree energ DENC   =     -9104.29580776
  -exchange      EXHF   =         0.00000000
  -V(xc)+E(xc)   XCENC  =       558.39293069
  PAW double counting   =     15682.06471487   -16299.14384310
  entropy T*S    EENTRO =         0.00000000
  eigenvalues    EBANDS =     -2484.03361005
  atomic energy  EATOM  =     21710.84102437
  Solvation  Ediel_sol  =         0.00000000
  ---------------------------------------------------
  free energy    TOTEN  =       -91.70421834 eV

  energy without entropy =      -91.70421834  energy(sigma->0) =      -91.70421834


--------------------------------------------------------------------------------------------------------




--------------------------------------- Iteration      1(  12)  ---------------------------------------


    POTLOK:  cpu time      0.0576: real time      0.1039
    SETDIJ:  cpu time      0.2772: real time      0.2797
    EDDIAG:  cpu time      4.5659: real time      4.5872
  RMM-DIIS:  cpu time     26.6023: real time     26.7328
    ORTHCH:  cpu time      0.5976: real time      0.6003
 BZINTS: Fermi energy:    3.392538;  160.000000 electrons
         Band energy:-0.248476E+04;  BLOECHL correction:   -0.012061
       DOS:  cpu time      0.1622: real time      0.1629
    CHARGE:  cpu time      1.0446: real time      1.0502
    MIXING:  cpu time      0.0024: real time      0.0024
    --------------------------------------------
      LOOP:  cpu time     33.3099: real time     33.5195

 eigenvalue-minimisations  : 49417
 total energy-change (2. order) :-0.1164496E-01  (-0.2737755E-02)
 number of electron     160.0000059 magnetization      -0.0000000
 augmentation part       58.9521382 magnetization      -0.0000000

 Broyden mixing:
  rms(total) = 0.44790E-01    rms(broyden)= 0.44785E-01
  rms(prec ) = 0.53867E-01
  weight for this iteration     100.00

 eigenvalues of (default mixing * dielectric matrix)
  average eigenvalue GAMMA=   1.0807
  2.2615  1.3555  1.3555  0.2976  0.8118  0.8118  0.6714

 Free energy of the ion-electron system (eV)
  ---------------------------------------------------
  alpha Z        PSCENC =       778.99259288
  Ewald energy   TEWEN  =    -10934.52222025
  -Hartree energ DENC   =     -9103.02807037
  -exchange      EXHF   =         0.00000000
  -V(xc)+E(xc)   XCENC  =       558.42103357
  PAW double counting   =     15692.56565870   -16310.22321799
  entropy T*S    EENTRO =         0.00000000
  eigenvalues    EBANDS =     -2484.76266423
  atomic energy  EATOM  =     21710.84102437
  Solvation  Ediel_sol  =         0.00000000
  ---------------------------------------------------
  free energy    TOTEN  =       -91.71586331 eV

  energy without entropy =      -91.71586331  energy(sigma->0) =      -91.71586331


--------------------------------------------------------------------------------------------------------




--------------------------------------- Iteration      1(  13)  ---------------------------------------


    POTLOK:  cpu time      0.0714: real time      0.0816
    SETDIJ:  cpu time      0.2713: real time      0.2727
    EDDIAG:  cpu time      4.6406: real time      4.6662
  RMM-DIIS:  cpu time     25.9829: real time     26.1124
    ORTHCH:  cpu time      0.6129: real time      0.6156
 BZINTS: Fermi energy:    3.390451;  160.000000 electrons
         Band energy:-0.248532E+04;  BLOECHL correction:   -0.011899
       DOS:  cpu time      0.1650: real time      0.1657
    CHARGE:  cpu time      1.0969: real time      1.1025
    MIXING:  cpu time      0.0019: real time      0.0019
    --------------------------------------------
      LOOP:  cpu time     32.8430: real time     33.0184

 eigenvalue-minimisations  : 46292
 total energy-change (2. order) : 0.2283331E-03  (-0.7248701E-03)
 number of electron     160.0000059 magnetization      -0.0000000
 augmentation part       58.9764655 magnetization      -0.0000000

 Broyden mixing:
  rms(total) = 0.18529E-01    rms(broyden)= 0.18518E-01
  rms(prec ) = 0.22571E-01
  weight for this iteration     100.00

 eigenvalues of (default mixing * dielectric matrix)
  average eigenvalue GAMMA=   1.1155
  2.5783  1.4157  1.4157  0.2976  0.9270  0.9270  0.7193  0.6433

 Free energy of the ion-electron system (eV)
  ---------------------------------------------------
  alpha Z        PSCENC =       778.99259288
  Ewald energy   TEWEN  =    -10934.52222025
  -Hartree energ DENC   =     -9102.24533645
  -exchange      EXHF   =         0.00000000
  -V(xc)+E(xc)   XCENC  =       558.45863710
  PAW double counting   =     15696.09267858   -16314.01268115
  entropy T*S    EENTRO =         0.00000000
  eigenvalues    EBANDS =     -2485.32033007
  atomic energy  EATOM  =     21710.84102437
  Solvation  Ediel_sol  =         0.00000000
  ---------------------------------------------------
  free energy    TOTEN  =       -91.71563497 eV

  energy without entropy =      -91.71563497  energy(sigma->0) =      -91.71563497


--------------------------------------------------------------------------------------------------------




--------------------------------------- Iteration      1(  14)  ---------------------------------------


    POTLOK:  cpu time      0.0569: real time      0.0971
    SETDIJ:  cpu time      0.2774: real time      0.2784
    EDDIAG:  cpu time      4.6613: real time      4.6835
  RMM-DIIS:  cpu time     20.0579: real time     20.1600
    ORTHCH:  cpu time      0.5984: real time      0.6011
 BZINTS: Fermi energy:    3.388306;  160.000000 electrons
         Band energy:-0.248562E+04;  BLOECHL correction:   -0.011853
       DOS:  cpu time      0.1612: real time      0.1618
    CHARGE:  cpu time      1.0269: real time      1.0324
    MIXING:  cpu time      0.0018: real time      0.0018
    --------------------------------------------
      LOOP:  cpu time     26.8416: real time     27.0159

 eigenvalue-minimisations  : 37774
 total energy-change (2. order) : 0.2439290E-03  (-0.2376044E-03)
 number of electron     160.0000059 magnetization      -0.0000000
 augmentation part       58.9953525 magnetization      -0.0000000

 Broyden mixing:
  rms(total) = 0.90643E-02    rms(broyden)= 0.90595E-02
  rms(prec ) = 0.11136E-01
  weight for this iteration     100.00

 eigenvalues of (default mixing * dielectric matrix)
  average eigenvalue GAMMA=   1.1414
  2.5721  1.5544  1.3471  1.3471  0.2976  0.8900  0.8900  0.7482  0.6262

 Free energy of the ion-electron system (eV)
  ---------------------------------------------------
  alpha Z        PSCENC =       778.99259288
  Ewald energy   TEWEN  =    -10934.52222025
  -Hartree energ DENC   =     -9101.93714564
  -exchange      EXHF   =         0.00000000
  -V(xc)+E(xc)   XCENC  =       558.46543451
  PAW double counting   =     15695.94748229   -16313.88610160
  entropy T*S    EENTRO =         0.00000000
  eigenvalues    EBANDS =     -2485.61645760
  atomic energy  EATOM  =     21710.84102437
  Solvation  Ediel_sol  =         0.00000000
  ---------------------------------------------------
  free energy    TOTEN  =       -91.71539104 eV

  energy without entropy =      -91.71539104  energy(sigma->0) =      -91.71539104


--------------------------------------------------------------------------------------------------------




--------------------------------------- Iteration      1(  15)  ---------------------------------------


    POTLOK:  cpu time      0.1451: real time      0.2848
    SETDIJ:  cpu time      0.2715: real time      0.2725
    EDDIAG:  cpu time      4.4984: real time      4.5231
  RMM-DIIS:  cpu time     14.9605: real time     15.0335
    ORTHCH:  cpu time      0.6135: real time      0.6162
 BZINTS: Fermi energy:    3.389409;  160.000000 electrons
         Band energy:-0.248538E+04;  BLOECHL correction:   -0.011847
       DOS:  cpu time      0.1515: real time      0.1521
    --------------------------------------------
      LOOP:  cpu time     20.6404: real time     20.8821

 eigenvalue-minimisations  : 25930
 total energy-change (2. order) :-0.2981394E-04  (-0.4334875E-04)
 number of electron     160.0000059 magnetization      -0.0000000
 augmentation part       58.9953525 magnetization      -0.0000000

 Free energy of the ion-electron system (eV)
  ---------------------------------------------------
  alpha Z        PSCENC =       778.99259288
  Ewald energy   TEWEN  =    -10934.52222025
  -Hartree energ DENC   =     -9102.23585789
  -exchange      EXHF   =         0.00000000
  -V(xc)+E(xc)   XCENC  =       558.46417010
  PAW double counting   =     15696.55075376   -16314.42653357
  entropy T*S    EENTRO =         0.00000000
  eigenvalues    EBANDS =     -2485.37935026
  atomic energy  EATOM  =     21710.84102437
  Solvation  Ediel_sol  =         0.00000000
  ---------------------------------------------------
[...]
 -0.000   0.000   0.000   0.000  -0.000  -0.000  -0.026  -0.000
 -0.000  -0.000   0.000   0.000   0.000  -0.000  -0.000  -0.104
 -0.000   0.000  -0.000   0.000  -0.000   0.000   0.001   0.000
 -0.000  -0.000   0.000   0.000   0.000  -0.000   0.000  -0.051
  0.000  -0.000   0.000  -0.000   0.000  -0.000  -0.000   0.002
  0.000  -0.000  -0.000  -0.000   0.000   0.000   0.006   0.000
  0.000   0.000  -0.000  -0.000  -0.000   0.000   0.000   0.025
 -0.000  -0.000  -0.000   0.000   0.000   0.000   0.000  -0.014
  0.000   0.000   0.000  -0.000  -0.000  -0.000  -0.000   0.003
 pseudopotential strength for first ion, spin component:           2
-53.317   0.105  -0.000  26.930  -0.075   0.000   0.000   0.000
  0.105 -53.333  -0.000  -0.075  26.940   0.000  -0.000   0.000
 -0.000  -0.000 -53.307   0.000   0.000  26.915   0.000  -0.000
 26.930  -0.075   0.000  -9.104   0.056  -0.000  -0.000  -0.000
 -0.075  26.940   0.000   0.056  -9.113  -0.000   0.000  -0.000
  0.000   0.000  26.915  -0.000  -0.000  -9.097  -0.000   0.000
  0.000  -0.000   0.000  -0.000   0.000  -0.000  -7.006  -0.000
  0.000   0.000  -0.000  -0.000  -0.000   0.000  -0.000  -7.392
 -0.000   0.000  -0.000   0.000  -0.000   0.000   0.000   0.083
 -0.000   0.000   0.000   0.000  -0.000  -0.000   0.118  -0.000
 -0.000  -0.000   0.000   0.000   0.000  -0.000  -0.000   0.011
 -0.000   0.000  -0.000   0.000  -0.000   0.000  -0.508   0.000
 -0.000  -0.000   0.000   0.000   0.000  -0.000   0.000  -0.419
  0.000  -0.000   0.000  -0.000   0.000  -0.000  -0.000  -0.018
  0.000  -0.000  -0.000  -0.000   0.000   0.000  -0.026   0.000
  0.000   0.000  -0.000  -0.000  -0.000   0.000   0.000  -0.004
 -0.000  -0.000  -0.000   0.000   0.000   0.000   0.000  -0.012
  0.000   0.000   0.000  -0.000  -0.000  -0.000  -0.000   0.003
 total augmentation occupancy for first ion, spin component:           1
  2.009  -0.019  -0.000   0.055  -0.047   0.000  -0.000   0.000   0.000  -0.000   0.000  -0.000   0.000  -0.000   0.000  -0.000
 -0.019   2.012  -0.000  -0.047   0.063   0.000  -0.000   0.000  -0.000   0.000   0.000  -0.000   0.000  -0.000   0.000   0.000
  0.000  -0.000   2.008   0.000  -0.000   0.049   0.000  -0.000   0.000   0.000  -0.000  -0.000   0.000   0.000  -0.000   0.000
  0.055  -0.047   0.000   0.193  -0.114  -0.000   0.000   0.000   0.000   0.000   0.000   0.000  -0.000  -0.000   0.000   0.000
 -0.047   0.063   0.000  -0.114   0.212  -0.000  -0.000   0.000   0.000   0.000  -0.000  -0.000   0.000   0.000   0.000   0.000
  0.000   0.000   0.049  -0.000   0.000   0.172  -0.000   0.000   0.000   0.000  -0.000  -0.000  -0.000  -0.000  -0.000   0.000
 -0.000  -0.000  -0.000   0.000  -0.000   0.000   1.229   0.000   0.000  -0.095   0.000  -0.087  -0.000   0.000  -0.055  -0.000
  0.000   0.000  -0.000   0.000   0.000   0.000  -0.000   1.479   0.004   0.000  -0.096   0.000   0.079  -0.135  -0.000   0.102
 -0.000  -0.000   0.000  -0.000   0.000   0.000   0.000   0.004   1.301   0.000  -0.173   0.000  -0.137   0.032  -0.000  -0.087
 -0.000   0.000  -0.000   0.000   0.000   0.000  -0.095   0.000   0.000   1.201  -0.000  -0.056   0.000  -0.000  -0.067  -0.000
 -0.000   0.000  -0.000   0.000   0.000  -0.000   0.000  -0.096  -0.173  -0.000   1.506  -0.000   0.106  -0.085   0.000   0.127
 -0.000   0.000   0.000   0.000  -0.000   0.000  -0.087   0.000   0.000  -0.056   0.000   0.158   0.000   0.000  -0.028   0.000
 -0.000  -0.000   0.000   0.000   0.000  -0.000  -0.000   0.079  -0.137   0.000   0.106  -0.000   0.246  -0.068   0.000   0.089
  0.000   0.000   0.000   0.000   0.000  -0.000  -0.000  -0.135   0.032   0.000  -0.085  -0.000  -0.068   0.163  -0.000  -0.007
  0.000  -0.000   0.000   0.000   0.000   0.000  -0.055   0.000   0.000  -0.067  -0.000  -0.028   0.000   0.000   0.156  -0.000
  0.000  -0.000   0.000   0.000   0.000   0.000  -0.000   0.102  -0.087   0.000   0.127  -0.000   0.089  -0.007   0.000   0.136
  0.000   0.000   0.000  -0.000   0.000   0.000   0.000  -0.013  -0.028   0.000   0.087  -0.000  -0.334   0.031   0.000  -0.013
 -0.000   0.000   0.000   0.000   0.000   0.000   0.000  -0.001   0.018  -0.000  -0.017   0.000   0.021  -0.005  -0.000   0.004
 total augmentation occupancy for first ion, spin component:           2
 -0.006   0.000  -0.000  -0.002  -0.000   0.000  -0.000   0.000   0.000   0.000   0.000   0.000  -0.000  -0.000   0.000   0.000
  0.000  -0.008  -0.000  -0.000  -0.008   0.000   0.000  -0.000   0.000   0.000   0.000   0.000   0.000   0.000  -0.000  -0.000
  0.000   0.000  -0.008  -0.000   0.000  -0.006   0.000   0.000  -0.000   0.000  -0.000   0.000   0.000  -0.000   0.000   0.000
 -0.002  -0.000   0.000   0.015  -0.002   0.000   0.000   0.000  -0.000  -0.000   0.000   0.000  -0.000   0.000   0.000  -0.000
 -0.000  -0.008   0.000  -0.002   0.001   0.000   0.000  -0.000   0.000  -0.000   0.000  -0.000  -0.000   0.000   0.000   0.000
  0.000   0.000  -0.006  -0.000   0.000   0.009   0.000   0.000   0.000  -0.000  -0.000   0.000  -0.000   0.000  -0.000   0.000
 -0.000   0.000  -0.000   0.000  -0.000   0.000   0.726  -0.000   0.000   0.111   0.000  -0.273  -0.000  -0.000   0.010   0.000
 -0.000   0.000   0.000  -0.000  -0.000   0.000  -0.000   0.374   0.080   0.000   0.043   0.000  -0.206  -0.001  -0.000  -0.034
 -0.000   0.000  -0.000  -0.000  -0.000   0.000   0.000   0.080   0.558   0.000   0.224  -0.000  -0.003  -0.225  -0.000  -0.033
  0.000   0.000  -0.000  -0.000  -0.000  -0.000   0.111  -0.000   0.000   0.729   0.000   0.011   0.000   0.000  -0.271  -0.000
 -0.000  -0.000  -0.000  -0.000   0.000  -0.000  -0.000   0.043   0.224  -0.000   0.259   0.000  -0.019  -0.028   0.000  -0.158
  0.000  -0.000   0.000   0.000   0.000   0.000  -0.273   0.000   0.000   0.011   0.000   0.056   0.000  -0.000   0.005  -0.000
  0.000   0.000   0.000   0.000   0.000  -0.000  -0.000  -0.206  -0.003   0.000  -0.019   0.000   0.011   0.023  -0.000  -0.002
  0.000   0.000  -0.000  -0.000  -0.000   0.000  -0.000  -0.001  -0.225   0.000  -0.028  -0.000   0.023   0.019   0.000   0.013
  0.000  -0.000  -0.000   0.000   0.000  -0.000   0.010  -0.000   0.000  -0.271   0.000   0.005   0.000   0.000   0.043  -0.000
  0.000   0.000   0.000  -0.000  -0.000   0.000   0.000  -0.034  -0.033  -0.000  -0.158  -0.000  -0.002   0.013  -0.000  -0.008
  0.000   0.000   0.000   0.000   0.000   0.000  -0.000   0.128   0.016   0.000  -0.047   0.000  -0.038   0.004   0.000  -0.027
  0.000  -0.000   0.000   0.000   0.000   0.000  -0.000   0.011   0.018  -0.000  -0.021   0.000  -0.003  -0.002   0.000   0.000


------------------------ aborting loop because EDIFF is reached ----------------------------------------





 total charge

# of ion       s       p       d       tot
------------------------------------------
    1        0.340   6.290   6.050  12.680
    2        0.340   6.290   6.050  12.680
    3        0.340   6.290   6.050  12.680
    4        0.340   6.290   6.050  12.680
    5        0.340   6.290   6.050  12.680
    6        0.340   6.290   6.050  12.680
    7        0.340   6.290   6.050  12.680
    8        0.340   6.290   6.050  12.680
    9        1.486   2.270   0.049   3.805
   10        1.486   2.270   0.049   3.805
   11        1.486   2.270   0.049   3.805
   12        1.486   2.270   0.049   3.805
   13        1.486   2.270   0.049   3.805
   14        1.486   2.270   0.049   3.805
   15        1.486   2.270   0.049   3.805
   16        1.486   2.270   0.049   3.805
--------------------------------------------------
tot         14.605  68.483  48.794 131.882



 magnetization (x)

# of ion       s       p       d       tot
------------------------------------------
    1        0.029   0.012   2.580   2.621
    2       -0.029  -0.012  -2.580  -2.621
    3       -0.029  -0.012  -2.580  -2.621
    4        0.029   0.012   2.580   2.621
    5        0.029   0.012   2.580   2.621
    6       -0.029  -0.012  -2.580  -2.621
    7       -0.029  -0.012  -2.580  -2.621
    8        0.029   0.012   2.580   2.621
    9        0.000   0.000   0.000   0.000
   10        0.000   0.000   0.000   0.000
   11        0.000   0.000   0.000   0.000
   12        0.000   0.000   0.000   0.000
   13        0.000   0.000   0.000   0.000
   14        0.000   0.000   0.000   0.000
   15        0.000   0.000   0.000   0.000
   16        0.000   0.000   0.000   0.000
--------------------------------------------------
tot          0.000   0.000   0.000   0.000
 
    CHARGE:  cpu time      1.1063: real time      1.1126
    FORLOC:  cpu time      0.0032: real time      0.0032
    FORNL :  cpu time      7.1475: real time      7.1811
    STRESS:  cpu time     21.3936: real time     21.4928
    FORCOR:  cpu time      0.0514: real time      0.0516
    FORHAR:  cpu time      0.0075: real time      0.0075
    MIXING:  cpu time      0.0018: real time      0.0018
    OFIELD:  cpu time      0.0000: real time      0.0000
    FORVDW:  cpu time      0.7678: real time      0.7705

  FORCE on cell =-STRESS in cart. coord.  units (eV):
  Direction    XX          YY          ZZ          XY          YZ          ZX
  --------------------------------------------------------------------------------------
  Alpha Z   778.99259   778.99259   778.99259
  Ewald    -807.40808 -1582.87890 -8544.26145     0.00000     0.00000     0.00000
  Hartree  5627.18296  4878.54565 -1402.50946     0.00000     0.00000    -0.00000
  E(xc)    -896.35759  -898.22163  -897.54370     0.00000     0.00000    -0.00000
  Local   -6655.02464 -5132.76646  8129.30898     0.00000    -0.00000     0.00000
  n-local  -273.76278  -246.80235  -238.78753    -0.97495    -0.31972    -0.76946
  augment   530.73275   516.92550   514.97299     0.00000     0.00000     0.00000
  Kinetic  1698.73543  1688.87802  1662.11602     3.63157    -0.05504     0.23105
  Fock        0.00000     0.00000     0.00000     0.00000     0.00000     0.00000
  vdW        -6.08096    -6.16974    -6.32778     0.00000     0.00000     0.00000
  -------------------------------------------------------------------------------------
  Total      -2.99032    -3.49731    -4.03934     0.00000    -0.00000     0.00000
  in kB     -14.69641   -17.18809   -19.85197     0.00000    -0.00000     0.00000
  external pressure =      -17.25 kB  Pullay stress =        0.00 kB


 VOLUME and BASIS-vectors are now :
 -----------------------------------------------------------------------------
  energy-cutoff  :      550.00
  volume of cell :      326.00
      direct lattice vectors                 reciprocal lattice vectors
     4.866131522 -5.793697392  0.000000000     0.102751025 -0.086300676  0.000000000
     4.866131522  5.793697392  0.000000000     0.102751025  0.086300676  0.000000000
     0.000000000  0.000000000  5.781598826     0.000000000  0.000000000  0.172962537

  length of vectors
     7.566119577  7.566119577  5.781598826     0.134184871  0.134184871  0.172962537


 FORCES acting on ions
    electron-ion (+dipol)            ewald-force                    non-local-force                 convergence-correction
 -----------------------------------------------------------------------------------------------
   0.466E-13 -.864E-13 0.387E-13   -.163E-12 0.426E-13 -.142E-13   0.119E-21 -.137E-21 -.302E-21   0.166E-12 -.104E-12 -.372E-12
   0.724E-12 0.769E-12 0.564E-13   -.164E-12 0.426E-13 -.142E-13   0.171E-21 0.832E-22 0.126E-21   -.167E-12 0.929E-13 -.411E-12
   0.631E-12 -.154E-11 -.119E-10   -.163E-12 0.568E-13 0.284E-13   -.482E-21 -.298E-21 0.213E-21   0.366E-12 0.410E-12 -.270E-12
   -.499E-11 -.960E-11 -.886E-11   -.163E-12 0.462E-13 -.355E-14   -.272E-21 -.102E-21 0.251E-21   0.282E-13 -.390E-12 -.287E-12
   -.267E-11 -.394E-11 -.375E-11   0.179E-12 -.711E-14 0.275E-13   0.307E-21 0.807E-22 0.485E-21   0.168E-12 0.265E-12 -.143E-12
   0.437E-11 0.577E-11 -.439E-11   0.185E-12 0.142E-13 0.284E-13   0.590E-21 0.821E-22 0.329E-21   -.393E-12 0.366E-12 -.149E-12
   -.146E-10 -.294E-10 0.374E-10   0.171E-12 -.711E-14 -.107E-13   -.319E-21 0.558E-22 0.125E-22   0.532E-12 0.442E-12 -.553E-12
   0.952E-12 -.642E-11 0.355E-10   0.172E-12 0.000E+00 -.142E-13   0.357E-21 0.476E-21 -.524E-22   -.677E-13 -.529E-12 -.527E-12
   0.935E-07 0.641E-12 0.341E+03   0.673E-14 -.320E-13 -.342E+03   0.176E-17 -.166E-17 0.113E+01   0.121E-12 0.103E-12 -.152E-01
   0.935E-07 -.130E-11 0.341E+03   0.142E-13 -.281E-13 -.342E+03   -.195E-17 0.349E-17 0.113E+01   -.705E-13 -.159E-12 -.152E-01
   0.935E-07 0.108E-11 0.341E+03   0.711E-14 -.257E-13 -.342E+03   0.175E-17 -.395E-17 0.113E+01   0.585E-13 0.108E-12 -.152E-01
   0.935E-07 -.275E-13 0.341E+03   0.153E-13 -.355E-13 -.342E+03   -.144E-17 0.258E-17 0.113E+01   -.129E-12 0.250E-13 -.152E-01
   -.935E-07 -.189E-12 -.341E+03   -.302E-13 -.164E-13 0.342E+03   -.108E-18 0.842E-20 -.113E+01   0.204E-13 -.549E-13 0.152E-01
   -.935E-07 -.373E-12 -.341E+03   -.198E-13 -.446E-14 0.342E+03   -.138E-17 -.101E-17 -.113E+01   -.191E-13 -.411E-14 0.152E-01
   -.935E-07 -.119E-11 -.341E+03   -.229E-13 -.165E-13 0.342E+03   -.123E-20 0.130E-17 -.113E+01   0.119E-14 0.537E-13 0.152E-01
   -.935E-07 0.236E-11 -.341E+03   -.204E-13 -.191E-13 0.342E+03   0.206E-17 -.106E-17 -.113E+01   -.283E-13 -.797E-13 0.152E-01
 -----------------------------------------------------------------------------------------------
   -.176E-10 -.434E-10 0.365E-10   0.141E-14 0.106E-13 -.114E-12   0.703E-18 -.307E-18 -.155E-14   0.585E-12 0.548E-12 -.245E-11
 
 
 POSITION                                       TOTAL-FORCE (eV/Angst)
 -----------------------------------------------------------------------------------
      0.00000      0.00000      0.00000        -0.000000      0.000000      0.000000
      2.43307      2.89685      0.00000        -0.000000      0.000000      0.000000
      2.43307     -2.89685      0.00000        -0.000000      0.000000      0.000000
      4.86613      0.00000      0.00000        -0.000000      0.000000      0.000000
      2.43307      0.00000      0.00000        -0.000000      0.000000      0.000000
      4.86613      2.89685      0.00000        -0.000000      0.000000      0.000000
      4.86613     -2.89685      0.00000        -0.000000      0.000000      0.000000
      7.29920      0.00000      0.00000        -0.000000      0.000000      0.000000
      2.43307     -1.44842      4.00022         0.000000     -0.000000      0.029712
      4.86613      1.44842      4.00022        -0.000000      0.000000      0.029712
      4.86613     -4.34527      4.00022         0.000000     -0.000000      0.029712
      7.29920     -1.44842      4.00022        -0.000000     -0.000000      0.029712
      2.43307      1.44842      1.78138         0.000000      0.000000     -0.029712
      4.86613      4.34527      1.78138        -0.000000      0.000000     -0.029712
      4.86613     -1.44842      1.78138         0.000000     -0.000000     -0.029712
      7.29920      1.44842      1.78138        -0.000000     -0.000000     -0.029712
 -----------------------------------------------------------------------------------
    total drift:                               -0.000000     -0.000000      0.000000


--------------------------------------------------------------------------------------------------------



  FREE ENERGIE OF THE ION-ELECTRON SYSTEM (eV)
  ---------------------------------------------------
  free  energy   TOTEN  =       -98.20517664 eV

  energy  without entropy=      -98.20517664  energy(sigma->0) =      -98.20517664
 


--------------------------------------------------------------------------------------------------------


    POTLOK:  cpu time      0.3302: real time      0.3503


--------------------------------------------------------------------------------------------------------


     LOOP+:  cpu time    498.7708: real time    501.8820
 -----------------------------------------------------------------------------
|                                                                             |
|           W    W    AA    RRRRR   N    N  II  N    N   GGGG   !!!           |
|           W    W   A  A   R    R  NN   N  II  NN   N  G    G  !!!           |
|           W    W  A    A  R    R  N N  N  II  N N  N  G       !!!           |
|           W WW W  AAAAAA  RRRRR   N  N N  II  N  N N  G  GGG   !            |
|           WW  WW  A    A  R   R   N   NN  II  N   NN  G    G                |
|           W    W  A    A  R    R  N    N  II  N    N   GGGG   !!!           |
|                                                                             |
|     Tetrahedron method does not include variations of the Fermi             |
|     occupations, so forces and stress will be inaccurate. We suggest        |
|     using a different smearing scheme ISMEAR = 1 or 2 for metals in         |
|     relaxations.                                                            |
|                                                                             |
 -----------------------------------------------------------------------------

    4ORBIT:  cpu time      0.0000: real time      0.0000



 total charge

# of ion       s       p       d       tot
------------------------------------------
    1        0.340   6.290   6.050  12.680
    2        0.340   6.290   6.050  12.680
    3        0.340   6.290   6.050  12.680
    4        0.340   6.290   6.050  12.680
    5        0.340   6.290   6.050  12.680
    6        0.340   6.290   6.050  12.680
    7        0.340   6.290   6.050  12.680
    8        0.340   6.290   6.050  12.680
    9        1.486   2.270   0.049   3.805
   10        1.486   2.270   0.049   3.805
   11        1.486   2.270   0.049   3.805
   12        1.486   2.270   0.049   3.805
   13        1.486   2.270   0.049   3.805
   14        1.486   2.270   0.049   3.805
   15        1.486   2.270   0.049   3.805
   16        1.486   2.270   0.049   3.805
--------------------------------------------------
tot         14.605  68.483  48.794 131.882



 magnetization (x)

# of ion       s       p       d       tot
------------------------------------------
    1        0.029   0.012   2.580   2.621
    2       -0.029  -0.012  -2.580  -2.621
    3       -0.029  -0.012  -2.580  -2.621
    4        0.029   0.012   2.580   2.621
    5        0.029   0.012   2.580   2.621
    6       -0.029  -0.012  -2.580  -2.621
    7       -0.029  -0.012  -2.580  -2.621
    8        0.029   0.012   2.580   2.621
    9        0.000   0.000   0.000   0.000
   10        0.000   0.000   0.000   0.000
   11        0.000   0.000   0.000   0.000
   12        0.000   0.000   0.000   0.000
   13        0.000   0.000   0.000   0.000
   14        0.000   0.000   0.000   0.000
   15        0.000   0.000   0.000   0.000
   16        0.000   0.000   0.000   0.000
--------------------------------------------------
tot          0.000   0.000   0.000   0.000
 
 BZINTS: Fermi energy:    3.389409;  160.000000 electrons
         Band energy:-0.248538E+04;  BLOECHL correction:   -0.011847

 total amount of memory used by VASP MPI-rank0   192930. kBytes
=======================================================================

   base      :      30000. kBytes
   nonlr-proj:      13325. kBytes
   fftplans  :       3084. kBytes
   grid      :      19560. kBytes
   one-center:        497. kBytes
   wavefun   :     126464. kBytes
 
  
  
 General timing and accounting informations for this job:
 ========================================================
  
                  Total CPU time used (sec):      526.737
                            User time (sec):      524.414
                          System time (sec):        2.323
                         Elapsed time (sec):      530.985
  
                   Maximum memory used (kb):      483644.
                   Average memory used (kb):          N/A
  
                          Minor page faults:       204516
                          Major page faults:            0
                 Voluntary context switches:        36099
