 vasp.6.4.1 05Apr23 (build Jun 01 2023 13:46:15) complex                        
  
 executed on             LinuxIFC date 2023.12.16  20:33:40
 running   20 mpi-ranks, on    5 nodes
 distrk:  each k-point on   20 cores,    1 groups
 distr:  one band on NCORE=   1 cores,   20 groups


--------------------------------------------------------------------------------------------------------


 INCAR:
   ALGO = Fast
   EDIFF = 0.0002
   ENCUT = 550
   IBRION = 2
   ISIF = 4
   ISMEAR = 0
   ISPIN = 2
   IVDW = 13
   LASPH = True
   LMAXMIX = 4
   LORBIT = 11
   LREAL = Auto
   LWAVE = False
   MAGMOM = 1*2.641 2*-2.641 2*2.641 2*-2.641 1*2.641 8*0.0
   NELM = 100
   NSW = 99
   PREC = Accurate
   SIGMA = 0.05

 POTCAR:   PAW_PBE Fe_pv 06Sep2000                
 POTCAR:   PAW_PBE Se 06Sep2000                   
 -----------------------------------------------------------------------------
|                                                                             |
|           W    W    AA    RRRRR   N    N  II  N    N   GGGG   !!!           |
|           W    W   A  A   R    R  NN   N  II  NN   N  G    G  !!!           |
|           W    W  A    A  R    R  N N  N  II  N N  N  G       !!!           |
|           W WW W  AAAAAA  RRRRR   N  N N  II  N  N N  G  GGG   !            |
|           WW  WW  A    A  R   R   N   NN  II  N   NN  G    G                |
|           W    W  A    A  R    R  N    N  II  N    N   GGGG   !!!           |
|                                                                             |
|     For optimal performance we recommend to set                             |
|       NCORE = 2 up to number-of-cores-per-socket                            |
|     NCORE specifies how many cores store one orbital (NPAR=cpu/NCORE).      |
|     This setting can greatly improve the performance of VASP for DFT.       |
|     The default, NCORE=1 might be grossly inefficient on modern             |
|     multi-core architectures or massively parallel machines. Do your        |
|     own testing! More info at https://www.vasp.at/wiki/index.php/NCORE      |
|     Unfortunately you need to use the default for GW and RPA                |
|     calculations (for HF NCORE is supported but not extensively tested      |
|     yet).                                                                   |
|                                                                             |
 -----------------------------------------------------------------------------

 POTCAR:   PAW_PBE Fe_pv 06Sep2000                
   VRHFIN =Fe:  3pd7s1                                                                              
   LEXCH  = PE                                                                                      
   EATOM  =  2456.8974 eV,  180.5769 Ry                                                             
                                                                                                    
   TITEL  = PAW_PBE Fe_pv 06Sep2000                                                                 
   LULTRA =        F    use ultrasoft PP ?                                                          
   IUNSCR =        1    unscreen: 0-lin 1-nonlin 2-no                                               
   RPACOR =    1.750    partial core radius                                                         
   POMASS =   55.847; ZVAL   =   14.000    mass and valenz                                          
   RCORE  =    2.200    outmost cutoff radius                                                       
   RWIGS  =    2.200; RWIGS  =    1.164    wigner-seitz radius (au A)                               
   ENMAX  =  293.238; ENMIN  =  219.929 eV                                                          
   RCLOC  =    1.701    cutoff for local pot                                                        
   LCOR   =        T    correct aug charges                                                         
   LPAW   =        T    paw PP                                                                      
   EAUG   =  578.342                                                                                
   DEXC   =    -.002                                                                                
   RMAX   =    2.693    core radius for proj-oper                                                   
   RAUG   =    1.300    factor for augmentation sphere                                              
   RDEP   =    2.296    radius for radial grids                                                     
   QCUT   =   -4.642; QGAM   =    9.285    optimization parameters                                  
                                                                                                    
   Description                                                                                      
     l     E      TYP  RCUT    TYP  RCUT                                                            
     1   .000     23  2.000                                                                         
     1  -.400     23  2.000                                                                         
     2   .000     23  2.200                                                                         
     2   .000     23  2.200                                                                         
     0   .000     23  2.000                                                                         
     0  2.000     23  2.000                                                                         
     3   .000      7   .000                                                                         
  local pseudopotential read in
  partial core-charges read in
  atomic valenz-charges read in
  non local Contribution for L=           1  read in
    real space projection operators read in
  non local Contribution for L=           1  read in
    real space projection operators read in
  non local Contribution for L=           2  read in
    real space projection operators read in
  non local Contribution for L=           2  read in
    real space projection operators read in
  non local Contribution for L=           0  read in
    real space projection operators read in
  non local Contribution for L=           0  read in
    real space projection operators read in
    PAW grid and wavefunctions read in
 
   number of l-projection  operators is LMAX  =           6
   number of lm-projection operators is LMMAX =          18
 
 POTCAR:   PAW_PBE Se 06Sep2000                   
   VRHFIN =Se: s2p4                                                                                 
   LEXCH  = PE                                                                                      
   EATOM  =   256.9644 eV,   18.8864 Ry                                                             
                                                                                                    
   TITEL  = PAW_PBE Se 06Sep2000                                                                    
   LULTRA =        F    use ultrasoft PP ?                                                          
   IUNSCR =        1    unscreen: 0-lin 1-nonlin 2-no                                               
   RPACOR =    1.900    partial core radius                                                         
   POMASS =   78.960; ZVAL   =    6.000    mass and valenz                                          
   RCORE  =    2.100    outmost cutoff radius                                                       
   RWIGS  =    2.200; RWIGS  =    1.164    wigner-seitz radius (au A)                               
   ENMAX  =  211.534; ENMIN  =  158.651 eV                                                          
   ICORE  =        3    local potential                                                             
   LCOR   =        T    correct aug charges                                                         
   LPAW   =        T    paw PP                                                                      
   EAUG   =  446.842                                                                                
   DEXC   =    -.031                                                                                
   RMAX   =    3.170    core radius for proj-oper                                                   
   RAUG   =    1.300    factor for augmentation sphere                                              
   RDEP   =    2.177    radius for radial grids                                                     
   QCUT   =   -3.943; QGAM   =    7.886    optimization parameters                                  
                                                                                                    
   Description                                                                                      
     l     E      TYP  RCUT    TYP  RCUT                                                            
     0   .000     23  2.100                                                                         
     0   .000     23  2.100                                                                         
     1   .000     23  2.100                                                                         
     1   .000     23  2.100                                                                         
     2   .000     23  2.100                                                                         
     3  -.100      7  2.100                                                                         
  local pseudopotential read in
  partial core-charges read in
  atomic valenz-charges read in
  non local Contribution for L=           0  read in
    real space projection operators read in
  non local Contribution for L=           0  read in
    real space projection operators read in
  non local Contribution for L=           1  read in
    real space projection operators read in
  non local Contribution for L=           1  read in
    real space projection operators read in
  non local Contribution for L=           2  read in
    real space projection operators read in
    PAW grid and wavefunctions read in
 
   number of l-projection  operators is LMAX  =           5
   number of lm-projection operators is LMMAX =          13
 
 Optimization of the real space projectors (new method)

 maximal supplied QI-value         = 17.01
 optimisation between [QCUT,QGAM] = [ 11.91, 23.98] = [ 39.69,161.04] Ry 
 Optimized for a Real-space Cutoff    1.45 Angstroem

   l    n(q)    QCUT    max X(q) W(low)/X(q) W(high)/X(q)  e(spline) 
   1     10    11.905     4.550    0.27E-05    0.11E-05    0.28E-07
   1     10    11.905     5.234    0.10E-04    0.61E-04    0.17E-06
   2      9    11.905     3.960    0.19E-04    0.73E-05    0.50E-07
   2      9    11.905    29.565    0.24E-03    0.51E-04    0.27E-06
   0     10    11.905    23.582    0.17E-04    0.10E-05    0.14E-07
   0     10    11.905    39.747    0.23E-04    0.68E-05    0.74E-07
 Optimization of the real space projectors (new method)

 maximal supplied QI-value         = 17.95
 optimisation between [QCUT,QGAM] = [ 11.85, 23.88] = [ 39.31,159.64] Ry 
 Optimized for a Real-space Cutoff    1.18 Angstroem

   l    n(q)    QCUT    max X(q) W(low)/X(q) W(high)/X(q)  e(spline) 
   0      8    11.849     6.499    0.17E-04    0.94E-05    0.89E-08
   0      8    11.849    52.623    0.21E-03    0.78E-04    0.81E-07
   1      8    11.849     4.229    0.79E-04    0.83E-04    0.23E-07
   1      8    11.849    29.991    0.12E-03    0.43E-03    0.14E-06
   2      7    11.849     3.719    0.22E-03    0.64E-04    0.38E-07
 PAW_PBE Fe_pv 06Sep2000                :
 energy of atom  1       EATOM=-2456.8974
 kinetic energy error for atom=    0.0060 (will be added to EATOM!!)
 PAW_PBE Se 06Sep2000                   :
 energy of atom  2       EATOM= -256.9644
 kinetic energy error for atom=    0.0007 (will be added to EATOM!!)
 
 
 POSCAR: Fe8 Se8
  positions in direct lattice
  No initial velocities read in
 exchange correlation table for  LEXCH =        8
   RHO(1)=    0.500       N(1)  =     2000
   RHO(2)=  100.500       N(2)  =     4000
 


--------------------------------------------------------------------------------------------------------


 ion  position               nearest neighbor table
   1  0.000  0.000  0.000-  11 2.28  14 2.28   5 2.42   8 2.42
   2  0.000  0.500  0.000-  12 2.28  13 2.28   6 2.42   7 2.42
   3  0.500  0.000  0.000-   9 2.28  16 2.28   6 2.42   7 2.42
   4  0.500  0.500  0.000-  10 2.28  15 2.28   5 2.42   8 2.42
   5  0.250  0.250  0.000-   9 2.28  13 2.28   1 2.42   4 2.42
   6  0.250  0.750  0.000-  10 2.28  14 2.28   2 2.42   3 2.42
   7  0.750  0.250  0.000-  11 2.28  15 2.28   2 2.42   3 2.42
   8  0.750  0.750  0.000-  12 2.28  16 2.28   1 2.42   4 2.42
   9  0.375  0.125  0.697-   3 2.28   5 2.28
  10  0.375  0.625  0.697-   4 2.28   6 2.28
  11  0.875  0.125  0.697-   1 2.28   7 2.28
  12  0.875  0.625  0.697-   2 2.28   8 2.28
  13  0.125  0.375  0.303-   2 2.28   5 2.28
  14  0.125  0.875  0.303-   1 2.28   6 2.28
  15  0.625  0.375  0.303-   4 2.28   7 2.28
  16  0.625  0.875  0.303-   3 2.28   8 2.28
 
  LATTYP: Found a base centered orthorhombic cell.
 ALAT       =     9.6873490829
 B/A-ratio  =     1.1956935323
 C/A-ratio  =     0.5998088458
  
  Lattice vectors:
  
 A1 = (   4.8436745415,  -5.7915503216,   0.0000000000)
 A2 = (   4.8436745415,   5.7915503216,   0.0000000000)
 A3 = (   0.0000000000,   0.0000000000,   5.8105576721)


Analysis of symmetry for initial positions (statically):
=====================================================================
 Subroutine PRICEL returns following result:
 
  LATTYP: Found a base centered orthorhombic cell.
 ALAT       =     4.8436745415
 B/A-ratio  =     1.1956935323
 C/A-ratio  =     1.1996176916
  
  Lattice vectors:
  
 A1 = (   2.4218372707,  -2.8957751608,   0.0000000000)
 A2 = (   2.4218372707,   2.8957751608,   0.0000000000)
 A3 = (   0.0000000000,   0.0000000000,   5.8105576721)
 
   4 primitive cells build up your supercell.
 

 Routine SETGRP: Setting up the symmetry group for a 
 base centered orthorhombic supercell.


 Subroutine GETGRP returns: Found  8 space group operations
 (whereof  4 operations were pure point group operations)
 out of a pool of  8 trial point group operations.


The static configuration has the point symmetry C_2h.
 The point group associated with its full space group is D_2h.


Analysis of symmetry for dynamics (positions and initial velocities):
=====================================================================
 Subroutine PRICEL returns following result:
 
  LATTYP: Found a base centered orthorhombic cell.
 ALAT       =     4.8436745415
 B/A-ratio  =     1.1956935323
 C/A-ratio  =     1.1996176916
  
  Lattice vectors:
  
 A1 = (   2.4218372707,  -2.8957751608,   0.0000000000)
 A2 = (   2.4218372707,   2.8957751608,   0.0000000000)
 A3 = (   0.0000000000,   0.0000000000,   5.8105576721)
 
   4 primitive cells build up your supercell.
 

 Routine SETGRP: Setting up the symmetry group for a 
 base centered orthorhombic supercell.


 Subroutine GETGRP returns: Found  8 space group operations
 (whereof  4 operations were pure point group operations)
 out of a pool of  8 trial point group operations.


The dynamic configuration has the point symmetry C_2h.
 The point group associated with its full space group is D_2h.


Analysis of structural, dynamic, and magnetic symmetry:
=====================================================================
 Subroutine PRICEL returns following result:
 
  LATTYP: Found a base centered orthorhombic cell.
 ALAT       =     4.8436745415
 B/A-ratio  =     1.1956935323
 C/A-ratio  =     1.1996176916
  
  Lattice vectors:
  
 A1 = (   2.4218372707,  -2.8957751608,   0.0000000000)
 A2 = (   2.4218372707,   2.8957751608,   0.0000000000)
 A3 = (   0.0000000000,   0.0000000000,   5.8105576721)
 
   4 primitive cells build up your supercell.
 

 Routine SETGRP: Setting up the symmetry group for a 
 base centered orthorhombic supercell.


 Subroutine GETGRP returns: Found  8 space group operations
 (whereof  4 operations were pure point group operations)
 out of a pool of  8 trial point group operations.


The overall configuration has the point symmetry C_2h.
 The point group associated with its full space group is D_2h.


 Subroutine INISYM returns: Found  8 space group operations
 (whereof  4 operations are pure point group operations),
 and found     4 'primitive' translations


----------------------------------------------------------------------------------------

                                     Primitive cell                                     

  volume of cell :      81.5000

  direct lattice vectors                    reciprocal lattice vectors
     2.421837271 -2.895775161  0.000000000     0.206454829 -0.172665339  0.000000000
     2.421837271  2.895775161  0.000000000     0.206454829  0.172665339  0.000000000
     0.000000000  0.000000000  5.810557672     0.000000000  0.000000000  0.172100521

  length of vectors
     3.775024443  3.775024443  5.810557672     0.269141070  0.269141070  0.172100521

  position of ions in fractional coordinates (direct lattice)
     0.000000000  0.000000000  0.000000000
     0.500000000  0.500000000  0.000000000
     0.750000000  0.250000000  0.697143094
     0.250000000  0.750000000  0.302856906

  ion indices of the primitive-cell ions
   primitive index   ion index
                 1           1
                 2           5
                 3          11
                 4          14

----------------------------------------------------------------------------------------

 
 
 KPOINTS: KPOINTS                                 

Automatic generation of k-mesh.
 Grid dimensions read from file:
 generate k-points for:    7    7    9

 Generating k-lattice:

  Cartesian coordinates                     Fractional coordinates (reciprocal lattice)
     0.014746774 -0.012333239  0.000000000     0.142857143  0.000000000  0.000000000
     0.014746774  0.012333239  0.000000000     0.000000000  0.142857143  0.000000000
     0.000000000  0.000000000  0.019122280     0.000000000  0.000000000  0.111111111

  Length of vectors
     0.019224362  0.019224362  0.019122280

  Shift w.r.t. Gamma in fractional coordinates (k-lattice)
     0.000000000  0.000000000  0.000000000

 
 Subroutine IBZKPT returns following result:
 ===========================================
 
 Found     80 irreducible k-points:
 
 Following reciprocal coordinates:
            Coordinates               Weight
  0.000000  0.000000  0.000000      1.000000
  0.142857 -0.000000  0.000000      4.000000
  0.285714  0.000000  0.000000      4.000000
  0.428571  0.000000  0.000000      4.000000
  0.142857  0.142857  0.000000      2.000000
  0.285714  0.142857  0.000000      4.000000
  0.428571  0.142857  0.000000      4.000000
 -0.428571  0.142857  0.000000      4.000000
 -0.285714  0.142857  0.000000      4.000000
 -0.142857  0.142857  0.000000      2.000000
  0.285714  0.285714  0.000000      2.000000
  0.428571  0.285714  0.000000      4.000000
 -0.428571  0.285714  0.000000      4.000000
 -0.285714  0.285714  0.000000      2.000000
  0.428571  0.428571  0.000000      2.000000
 -0.428571  0.428571  0.000000      2.000000
  0.000000  0.000000  0.111111      2.000000
  0.142857 -0.000000  0.111111      8.000000
  0.285714  0.000000  0.111111      8.000000
  0.428571  0.000000  0.111111      8.000000
  0.142857  0.142857  0.111111      4.000000
  0.285714  0.142857  0.111111      8.000000
  0.428571  0.142857  0.111111      8.000000
 -0.428571  0.142857  0.111111      8.000000
 -0.285714  0.142857  0.111111      8.000000
 -0.142857  0.142857  0.111111      4.000000
  0.285714  0.285714  0.111111      4.000000
  0.428571  0.285714  0.111111      8.000000
 -0.428571  0.285714  0.111111      8.000000
 -0.285714  0.285714  0.111111      4.000000
  0.428571  0.428571  0.111111      4.000000
 -0.428571  0.428571  0.111111      4.000000
  0.000000  0.000000  0.222222      2.000000
  0.142857 -0.000000  0.222222      8.000000
  0.285714  0.000000  0.222222      8.000000
  0.428571  0.000000  0.222222      8.000000
  0.142857  0.142857  0.222222      4.000000
  0.285714  0.142857  0.222222      8.000000
  0.428571  0.142857  0.222222      8.000000
 -0.428571  0.142857  0.222222      8.000000
 -0.285714  0.142857  0.222222      8.000000
 -0.142857  0.142857  0.222222      4.000000
  0.285714  0.285714  0.222222      4.000000
  0.428571  0.285714  0.222222      8.000000
 -0.428571  0.285714  0.222222      8.000000
 -0.285714  0.285714  0.222222      4.000000
  0.428571  0.428571  0.222222      4.000000
 -0.428571  0.428571  0.222222      4.000000
  0.000000  0.000000  0.333333      2.000000
  0.142857 -0.000000  0.333333      8.000000
  0.285714  0.000000  0.333333      8.000000
  0.428571  0.000000  0.333333      8.000000
  0.142857  0.142857  0.333333      4.000000
  0.285714  0.142857  0.333333      8.000000
  0.428571  0.142857  0.333333      8.000000
 -0.428571  0.142857  0.333333      8.000000
 -0.285714  0.142857  0.333333      8.000000
 -0.142857  0.142857  0.333333      4.000000
  0.285714  0.285714  0.333333      4.000000
  0.428571  0.285714  0.333333      8.000000
 -0.428571  0.285714  0.333333      8.000000
 -0.285714  0.285714  0.333333      4.000000
  0.428571  0.428571  0.333333      4.000000
 -0.428571  0.428571  0.333333      4.000000
  0.000000  0.000000  0.444444      2.000000
  0.142857 -0.000000  0.444444      8.000000
  0.285714  0.000000  0.444444      8.000000
  0.428571  0.000000  0.444444      8.000000
  0.142857  0.142857  0.444444      4.000000
  0.285714  0.142857  0.444444      8.000000
  0.428571  0.142857  0.444444      8.000000
 -0.428571  0.142857  0.444444      8.000000
 -0.285714  0.142857  0.444444      8.000000
 -0.142857  0.142857  0.444444      4.000000
  0.285714  0.285714  0.444444      4.000000
  0.428571  0.285714  0.444444      8.000000
 -0.428571  0.285714  0.444444      8.000000
 -0.285714  0.285714  0.444444      4.000000
  0.428571  0.428571  0.444444      4.000000
 -0.428571  0.428571  0.444444      4.000000
 
 Following cartesian coordinates:
            Coordinates               Weight
  0.000000  0.000000  0.000000      1.000000
  0.014747 -0.012333  0.000000      4.000000
  0.029494 -0.024666  0.000000      4.000000
  0.044240 -0.037000  0.000000      4.000000
  0.029494 -0.000000  0.000000      2.000000
  0.044240 -0.012333  0.000000      4.000000
  0.058987 -0.024666  0.000000      4.000000
 -0.029494  0.049333  0.000000      4.000000
 -0.014747  0.037000  0.000000      4.000000
 -0.000000  0.024666  0.000000      2.000000
  0.058987  0.000000  0.000000      2.000000
  0.073734 -0.012333  0.000000      4.000000
 -0.014747  0.061666  0.000000      4.000000
 -0.000000  0.049333  0.000000      2.000000
  0.088481 -0.000000  0.000000      2.000000
  0.000000  0.073999  0.000000      2.000000
  0.000000  0.000000  0.019122      2.000000
  0.014747 -0.012333  0.019122      8.000000
  0.029494 -0.024666  0.019122      8.000000
  0.044240 -0.037000  0.019122      8.000000
  0.029494 -0.000000  0.019122      4.000000
  0.044240 -0.012333  0.019122      8.000000
  0.058987 -0.024666  0.019122      8.000000
 -0.029494  0.049333  0.019122      8.000000
 -0.014747  0.037000  0.019122      8.000000
 -0.000000  0.024666  0.019122      4.000000
  0.058987  0.000000  0.019122      4.000000
  0.073734 -0.012333  0.019122      8.000000
 -0.014747  0.061666  0.019122      8.000000
 -0.000000  0.049333  0.019122      4.000000
  0.088481 -0.000000  0.019122      4.000000
  0.000000  0.073999  0.019122      4.000000
  0.000000  0.000000  0.038245      2.000000
  0.014747 -0.012333  0.038245      8.000000
  0.029494 -0.024666  0.038245      8.000000
  0.044240 -0.037000  0.038245      8.000000
  0.029494 -0.000000  0.038245      4.000000
  0.044240 -0.012333  0.038245      8.000000
  0.058987 -0.024666  0.038245      8.000000
 -0.029494  0.049333  0.038245      8.000000
 -0.014747  0.037000  0.038245      8.000000
 -0.000000  0.024666  0.038245      4.000000
  0.058987  0.000000  0.038245      4.000000
  0.073734 -0.012333  0.038245      8.000000
 -0.014747  0.061666  0.038245      8.000000
 -0.000000  0.049333  0.038245      4.000000
  0.088481 -0.000000  0.038245      4.000000
  0.000000  0.073999  0.038245      4.000000
  0.000000  0.000000  0.057367      2.000000
  0.014747 -0.012333  0.057367      8.000000
  0.029494 -0.024666  0.057367      8.000000
  0.044240 -0.037000  0.057367      8.000000
  0.029494 -0.000000  0.057367      4.000000
  0.044240 -0.012333  0.057367      8.000000
  0.058987 -0.024666  0.057367      8.000000
 -0.029494  0.049333  0.057367      8.000000
 -0.014747  0.037000  0.057367      8.000000
 -0.000000  0.024666  0.057367      4.000000
  0.058987  0.000000  0.057367      4.000000
  0.073734 -0.012333  0.057367      8.000000
 -0.014747  0.061666  0.057367      8.000000
 -0.000000  0.049333  0.057367      4.000000
  0.088481 -0.000000  0.057367      4.000000
  0.000000  0.073999  0.057367      4.000000
  0.000000  0.000000  0.076489      2.000000
  0.014747 -0.012333  0.076489      8.000000
  0.029494 -0.024666  0.076489      8.000000
  0.044240 -0.037000  0.076489      8.000000
  0.029494 -0.000000  0.076489      4.000000
  0.044240 -0.012333  0.076489      8.000000
  0.058987 -0.024666  0.076489      8.000000
 -0.029494  0.049333  0.076489      8.000000
 -0.014747  0.037000  0.076489      8.000000
 -0.000000  0.024666  0.076489      4.000000
  0.058987  0.000000  0.076489      4.000000
  0.073734 -0.012333  0.076489      8.000000
 -0.014747  0.061666  0.076489      8.000000
 -0.000000  0.049333  0.076489      4.000000
  0.088481 -0.000000  0.076489      4.000000
  0.000000  0.073999  0.076489      4.000000
 


--------------------------------------------------------------------------------------------------------




 Dimension of arrays:
   k-points           NKPTS =     80   k-points in BZ     NKDIM =     80   number of bands    NBANDS=    100
   number of dos      NEDOS =    301   number of ions     NIONS =     16
   non local maximal  LDIM  =      6   non local SUM 2l+1 LMDIM =     18
   total plane-waves  NPLWV = 172800
   max r-space proj   IRMAX =   6790   max aug-charges    IRDMAX=  23313
   dimension x,y,z NGX =    60 NGY =   60 NGZ =   48
   dimension x,y,z NGXF=   120 NGYF=  120 NGZF=   96
   support grid    NGXF=   120 NGYF=  120 NGZF=   96
   ions per type =               8   8
   NGX,Y,Z   is equivalent  to a cutoff of  13.21, 13.21, 13.73 a.u.
   NGXF,Y,Z  is equivalent  to a cutoff of  26.42, 26.42, 27.47 a.u.

 SYSTEM =  unknown system                          
 POSCAR =  Fe8 Se8                                 

 Startparameter for this run:
   NWRITE =      2    write-flag & timer
   PREC   = accura    normal or accurate (medium, high low for compatibility)
   ISTART =      0    job   : 0-new  1-cont  2-samecut
   ICHARG =      2    charge: 1-file 2-atom 10-const
   ISPIN  =      2    spin polarized calculation?
   LNONCOLLINEAR =      F non collinear calculations
   LSORBIT =      F    spin-orbit coupling
   INIWAV =      1    electr: 0-lowe 1-rand  2-diag
   LASPH  =      T    aspherical Exc in radial PAW
 Electronic Relaxation 1
   ENCUT  =  550.0 eV  40.42 Ry    6.36 a.u.  14.44 14.44 11.11*2*pi/ulx,y,z
   ENINI  =  550.0     initial cutoff
   ENAUG  =  578.3 eV  augmentation charge cutoff
   NELM   =    100;   NELMIN=  2; NELMDL=  0     # of ELM steps 
   EDIFF  = 0.2E-03   stopping-criterion for ELM
   LREAL  =      T    real-space projection
   NLSPLINE    = F    spline interpolate recip. space projectors
   LCOMPAT=      F    compatible to vasp.4.4
   GGA_COMPAT  = T    GGA compatible to vasp.4.4-vasp.4.6
   LMAXPAW     = -100 max onsite density
   LMAXMIX     =    4 max onsite mixed and CHGCAR
   VOSKOWN=      0    Vosko Wilk Nusair interpolation
   ROPT   =   -0.00025  -0.00025
 Ionic relaxation
   EDIFFG = 0.2E-02   stopping-criterion for IOM
   NSW    =     99    number of steps for IOM
   NBLOCK =      1;   KBLOCK =     99    inner block; outer block 
   IBRION =      2    ionic relax: 0-MD 1-quasi-New 2-CG
   NFREE  =      1    steps in history (QN), initial steepest desc. (CG)
   ISIF   =      4    stress and relaxation
   IWAVPR =     11    prediction:  0-non 1-charg 2-wave 3-comb
   ISYM   =      2    0-nonsym 1-usesym 2-fastsym
   LCORR  =      T    Harris-Foulkes like correction to forces

   POTIM  = 0.5000    time-step for ionic-motion
   TEIN   =    0.0    initial temperature
   TEBEG  =    0.0;   TEEND  =   0.0 temperature during run
   SMASS  =  -3.00    Nose mass-parameter (am)
   estimated Nose-frequenzy (Omega)   =  0.10E-29 period in steps = 0.13E+47 mass=  -0.130E-26a.u.
   SCALEE = 1.0000    scale energy and forces
   NPACO  =    256;   APACO  = 10.0  distance and # of slots for P.C.
   PSTRESS=    0.0 pullay stress

  Mass of Ions in am
   POMASS =  55.85 78.96
  Ionic Valenz
   ZVAL   =  14.00  6.00
  Atomic Wigner-Seitz radii
   RWIGS  =  -1.00 -1.00
  virtual crystal weights 
   VCA    =   1.00  1.00
   NELECT =     160.0000    total number of electrons
   NUPDOWN=      -1.0000    fix difference up-down

 DOS related values:
   EMIN   =  10.00;   EMAX   =-10.00  energy-range for DOS
   EFERMI =   0.00;   METHOD = LEGACY      
   ISMEAR =     0;   SIGMA  =   0.05  broadening in eV -4-tet -1-fermi 0-gaus

 Electronic relaxation 2 (details)
   IALGO  =     68    algorithm
   LDIAG  =      T    sub-space diagonalisation (order eigenvalues)
   LSUBROT=      F    optimize rotation matrix (better conditioning)
   TURBO    =      0    0=normal 1=particle mesh
   IRESTART =      0    0=no restart 2=restart with 2 vectors
   NREBOOT  =      0    no. of reboots
   NMIN     =      0    reboot dimension
   EREF     =   0.00    reference energy to select bands
   IMIX   =      4    mixing-type and parameters
     AMIX     =   0.40;   BMIX     =  1.00
     AMIX_MAG =   1.60;   BMIX_MAG =  1.00
     AMIN     =   0.10
     WC   =   100.;   INIMIX=   1;  MIXPRE=   1;  MAXMIX= -45

 Intra band minimization:
   WEIMIN = 0.0010     energy-eigenvalue tresh-hold
   EBREAK =  0.50E-06  absolut break condition
   DEPER  =   0.30     relativ break condition  

   TIME   =   0.40     timestep for ELM

  volume/ion in A,a.u.               =      20.37       137.50
  Fermi-wavevector in a.u.,A,eV,Ry     =   1.291345  2.440288 22.688694  1.667572
  Thomas-Fermi vector in A             =   2.423121
 
 Write flags
   LWAVE        =      F    write WAVECAR
   LDOWNSAMPLE  =      F    k-point downsampling of WAVECAR
   LCHARG       =      T    write CHGCAR
   LVTOT        =      F    write LOCPOT, total local potential
   LVHAR        =      F    write LOCPOT, Hartree potential only
   LELF         =      F    write electronic localiz. function (ELF)
   LORBIT       =     11    0 simple, 1 ext, 2 COOP (PROOUT), +10 PAW based schemes


 Dipole corrections
   LMONO  =      F    monopole corrections only (constant potential shift)
   LDIPOL =      F    correct potential (dipole corrections)
   IDIPOL =      0    1-x, 2-y, 3-z, 4-all directions 
   EPSILON=  1.0000000 bulk dielectric constant

 Exchange correlation treatment:
   GGA     =    --    GGA type
   LEXCH   =     8    internal setting for exchange type
   LIBXC   =     F    Libxc                    
   VOSKOWN =     0    Vosko Wilk Nusair interpolation
   LHFCALC =     F    Hartree Fock is set to
   LHFONE  =     F    Hartree Fock one center treatment
   AEXX    =    0.0000 exact exchange contribution

 Linear response parameters
   LEPSILON=     F    determine dielectric tensor
   LRPA    =     F    only Hartree local field effects (RPA)
   LNABLA  =     F    use nabla operator in PAW spheres
   LVEL    =     F    velocity operator in full k-point grid
   CSHIFT  =0.1000    complex shift for real part using Kramers Kronig
   OMEGAMAX=  -1.0    maximum frequency
   DEG_THRESHOLD= 0.2000000E-02 threshold for treating states as degnerate
   RTIME   =   -0.100 relaxation time in fs
  (WPLASMAI=    0.000 imaginary part of plasma frequency in eV, 0.658/RTIME)
   DFIELD  = 0.0000000 0.0000000 0.0000000 field for delta impulse in time
 
  Optional k-point grid parameters
   LKPOINTS_OPT  =     F    use optional k-point grid
   KPOINTS_OPT_MODE=     1    mode for optional k-point grid
 
 Orbital magnetization related:
   ORBITALMAG=     F  switch on orbital magnetization
   LCHIMAG   =     F  perturbation theory with respect to B field
   DQ        =  0.001000  dq finite difference perturbation B field
   LLRAUG    =     F  two centre corrections for induced B field
   LBONE     =     F  B-component reconstruction in AE one-centre
   LVGVCALC  =     T  calculate vGv susceptibility
   LVGVAPPL  =     F  apply vGv susceptibility instead of pGv for G=0

 Random number generation:
   RANDOM_GENERATOR = DEFAULT
   PCG_SEED         = not used


--------------------------------------------------------------------------------------------------------


 conjugate gradient relaxation of ions
 charge density and potential will be updated during run
 spin polarized calculation
 RMM-DIIS sequential band-by-band and
  variant of blocked Davidson during initial phase
 perform sub-space diagonalisation
    before iterative eigenvector-optimisation
 modified Broyden-mixing scheme, WC =      100.0
 initial mixing is a Kerker type mixing with AMIX =  0.4000 and BMIX =      1.0000
 Hartree-type preconditioning will be used
 using additional bands           20
 real space projection scheme for non local part
 use partial core corrections
 calculate Harris-corrections to forces 
   (improved forces if not selfconsistent)
 use gradient corrections 
 use of overlap-Matrix (Vanderbilt PP)
 Gauss-broadening in eV      SIGMA  =   0.05


--------------------------------------------------------------------------------------------------------


  energy-cutoff  :      550.00
  volume of cell :      326.00
      direct lattice vectors                 reciprocal lattice vectors
     4.843674541 -5.791550322  0.000000000     0.103227415 -0.086332670  0.000000000
     4.843674541  5.791550322  0.000000000     0.103227415  0.086332670  0.000000000
     0.000000000  0.000000000  5.810557672     0.000000000  0.000000000  0.172100521

  length of vectors
     7.550048887  7.550048887  5.810557672     0.134570535  0.134570535  0.172100521


 
 k-points in units of 2pi/SCALE and weight: KPOINTS                                 
   0.00000000  0.00000000  0.00000000       0.002
   0.01474677 -0.01233324  0.00000000       0.009
   0.02949355 -0.02466648  0.00000000       0.009
   0.04424032 -0.03699972  0.00000000       0.009
   0.02949355 -0.00000000  0.00000000       0.005
   0.04424032 -0.01233324  0.00000000       0.009
   0.05898709 -0.02466648  0.00000000       0.009
  -0.02949355  0.04933295  0.00000000       0.009
  -0.01474677  0.03699972  0.00000000       0.009
   0.00000000  0.02466648  0.00000000       0.005
   0.05898709 -0.00000000  0.00000000       0.005
   0.07373387 -0.01233324  0.00000000       0.009
  -0.01474677  0.06166619  0.00000000       0.009
   0.00000000  0.04933295  0.00000000       0.005
   0.08848064  0.00000000  0.00000000       0.005
  -0.00000000  0.07399943  0.00000000       0.005
   0.00000000  0.00000000  0.01912228       0.005
   0.01474677 -0.01233324  0.01912228       0.018
   0.02949355 -0.02466648  0.01912228       0.018
   0.04424032 -0.03699972  0.01912228       0.018
   0.02949355 -0.00000000  0.01912228       0.009
   0.04424032 -0.01233324  0.01912228       0.018
   0.05898709 -0.02466648  0.01912228       0.018
  -0.02949355  0.04933295  0.01912228       0.018
  -0.01474677  0.03699972  0.01912228       0.018
   0.00000000  0.02466648  0.01912228       0.009
   0.05898709 -0.00000000  0.01912228       0.009
   0.07373387 -0.01233324  0.01912228       0.018
  -0.01474677  0.06166619  0.01912228       0.018
   0.00000000  0.04933295  0.01912228       0.009
   0.08848064  0.00000000  0.01912228       0.009
  -0.00000000  0.07399943  0.01912228       0.009
   0.00000000  0.00000000  0.03824456       0.005
   0.01474677 -0.01233324  0.03824456       0.018
   0.02949355 -0.02466648  0.03824456       0.018
   0.04424032 -0.03699972  0.03824456       0.018
   0.02949355 -0.00000000  0.03824456       0.009
   0.04424032 -0.01233324  0.03824456       0.018
   0.05898709 -0.02466648  0.03824456       0.018
  -0.02949355  0.04933295  0.03824456       0.018
  -0.01474677  0.03699972  0.03824456       0.018
   0.00000000  0.02466648  0.03824456       0.009
   0.05898709 -0.00000000  0.03824456       0.009
   0.07373387 -0.01233324  0.03824456       0.018
  -0.01474677  0.06166619  0.03824456       0.018
   0.00000000  0.04933295  0.03824456       0.009
   0.08848064  0.00000000  0.03824456       0.009
  -0.00000000  0.07399943  0.03824456       0.009
   0.00000000  0.00000000  0.05736684       0.005
   0.01474677 -0.01233324  0.05736684       0.018
   0.02949355 -0.02466648  0.05736684       0.018
   0.04424032 -0.03699972  0.05736684       0.018
   0.02949355 -0.00000000  0.05736684       0.009
   0.04424032 -0.01233324  0.05736684       0.018
   0.05898709 -0.02466648  0.05736684       0.018
  -0.02949355  0.04933295  0.05736684       0.018
  -0.01474677  0.03699972  0.05736684       0.018
   0.00000000  0.02466648  0.05736684       0.009
   0.05898709 -0.00000000  0.05736684       0.009
   0.07373387 -0.01233324  0.05736684       0.018
  -0.01474677  0.06166619  0.05736684       0.018
   0.00000000  0.04933295  0.05736684       0.009
   0.08848064  0.00000000  0.05736684       0.009
  -0.00000000  0.07399943  0.05736684       0.009
   0.00000000  0.00000000  0.07648912       0.005
   0.01474677 -0.01233324  0.07648912       0.018
   0.02949355 -0.02466648  0.07648912       0.018
   0.04424032 -0.03699972  0.07648912       0.018
   0.02949355 -0.00000000  0.07648912       0.009
   0.04424032 -0.01233324  0.07648912       0.018
   0.05898709 -0.02466648  0.07648912       0.018
  -0.02949355  0.04933295  0.07648912       0.018
  -0.01474677  0.03699972  0.07648912       0.018
   0.00000000  0.02466648  0.07648912       0.009
   0.05898709 -0.00000000  0.07648912       0.009
   0.07373387 -0.01233324  0.07648912       0.018
  -0.01474677  0.06166619  0.07648912       0.018
   0.00000000  0.04933295  0.07648912       0.009
   0.08848064  0.00000000  0.07648912       0.009
  -0.00000000  0.07399943  0.07648912       0.009
 
 k-points in reciprocal lattice and weights: KPOINTS                                 
   0.00000000  0.00000000  0.00000000       0.002
   0.14285714 -0.00000000  0.00000000       0.009
   0.28571429  0.00000000  0.00000000       0.009
   0.42857143  0.00000000  0.00000000       0.009
   0.14285714  0.14285714  0.00000000       0.005
   0.28571429  0.14285714  0.00000000       0.009
   0.42857143  0.14285714  0.00000000       0.009
  -0.42857143  0.14285714  0.00000000       0.009
  -0.28571429  0.14285714  0.00000000       0.009
  -0.14285714  0.14285714  0.00000000       0.005
   0.28571429  0.28571429  0.00000000       0.005
   0.42857143  0.28571429  0.00000000       0.009
  -0.42857143  0.28571429  0.00000000       0.009
  -0.28571429  0.28571429  0.00000000       0.005
   0.42857143  0.42857143  0.00000000       0.005
  -0.42857143  0.42857143  0.00000000       0.005
   0.00000000  0.00000000  0.11111111       0.005
   0.14285714 -0.00000000  0.11111111       0.018
   0.28571429  0.00000000  0.11111111       0.018
   0.42857143  0.00000000  0.11111111       0.018
   0.14285714  0.14285714  0.11111111       0.009
   0.28571429  0.14285714  0.11111111       0.018
   0.42857143  0.14285714  0.11111111       0.018
  -0.42857143  0.14285714  0.11111111       0.018
  -0.28571429  0.14285714  0.11111111       0.018
  -0.14285714  0.14285714  0.11111111       0.009
   0.28571429  0.28571429  0.11111111       0.009
   0.42857143  0.28571429  0.11111111       0.018
  -0.42857143  0.28571429  0.11111111       0.018
  -0.28571429  0.28571429  0.11111111       0.009
   0.42857143  0.42857143  0.11111111       0.009
  -0.42857143  0.42857143  0.11111111       0.009
   0.00000000  0.00000000  0.22222222       0.005
   0.14285714 -0.00000000  0.22222222       0.018
   0.28571429  0.00000000  0.22222222       0.018
   0.42857143  0.00000000  0.22222222       0.018
   0.14285714  0.14285714  0.22222222       0.009
   0.28571429  0.14285714  0.22222222       0.018
   0.42857143  0.14285714  0.22222222       0.018
  -0.42857143  0.14285714  0.22222222       0.018
  -0.28571429  0.14285714  0.22222222       0.018
  -0.14285714  0.14285714  0.22222222       0.009
   0.28571429  0.28571429  0.22222222       0.009
   0.42857143  0.28571429  0.22222222       0.018
  -0.42857143  0.28571429  0.22222222       0.018
  -0.28571429  0.28571429  0.22222222       0.009
   0.42857143  0.42857143  0.22222222       0.009
  -0.42857143  0.42857143  0.22222222       0.009
   0.00000000  0.00000000  0.33333333       0.005
   0.14285714 -0.00000000  0.33333333       0.018
   0.28571429  0.00000000  0.33333333       0.018
   0.42857143  0.00000000  0.33333333       0.018
   0.14285714  0.14285714  0.33333333       0.009
   0.28571429  0.14285714  0.33333333       0.018
   0.42857143  0.14285714  0.33333333       0.018
  -0.42857143  0.14285714  0.33333333       0.018
  -0.28571429  0.14285714  0.33333333       0.018
  -0.14285714  0.14285714  0.33333333       0.009
   0.28571429  0.28571429  0.33333333       0.009
   0.42857143  0.28571429  0.33333333       0.018
  -0.42857143  0.28571429  0.33333333       0.018
  -0.28571429  0.28571429  0.33333333       0.009
   0.42857143  0.42857143  0.33333333       0.009
  -0.42857143  0.42857143  0.33333333       0.009
   0.00000000  0.00000000  0.44444444       0.005
   0.14285714 -0.00000000  0.44444444       0.018
   0.28571429  0.00000000  0.44444444       0.018
   0.42857143  0.00000000  0.44444444       0.018
   0.14285714  0.14285714  0.44444444       0.009
   0.28571429  0.14285714  0.44444444       0.018
   0.42857143  0.14285714  0.44444444       0.018
  -0.42857143  0.14285714  0.44444444       0.018
  -0.28571429  0.14285714  0.44444444       0.018
  -0.14285714  0.14285714  0.44444444       0.009
   0.28571429  0.28571429  0.44444444       0.009
   0.42857143  0.28571429  0.44444444       0.018
  -0.42857143  0.28571429  0.44444444       0.018
  -0.28571429  0.28571429  0.44444444       0.009
   0.42857143  0.42857143  0.44444444       0.009
  -0.42857143  0.42857143  0.44444444       0.009
 
 position of ions in fractional coordinates (direct lattice) 
   0.00000000  0.00000000  0.00000000
   0.00000000  0.50000000  0.00000000
   0.50000000  0.00000000  0.00000000
   0.50000000  0.50000000  0.00000000
   0.25000000  0.25000000  0.00000000
   0.25000000  0.75000000  0.00000000
   0.75000000  0.25000000  0.00000000
   0.75000000  0.75000000  0.00000000
   0.37500000  0.12500000  0.69714309
   0.37500000  0.62500000  0.69714309
   0.87500000  0.12500000  0.69714309
   0.87500000  0.62500000  0.69714309
   0.12500000  0.37500000  0.30285691
   0.12500000  0.87500000  0.30285691
   0.62500000  0.37500000  0.30285691
   0.62500000  0.87500000  0.30285691
 
 position of ions in cartesian coordinates  (Angst):
   0.00000000  0.00000000  0.00000000
   2.42183727  2.89577516  0.00000000
   2.42183727 -2.89577516  0.00000000
   4.84367454  0.00000000  0.00000000
   2.42183727  0.00000000  0.00000000
   4.84367454  2.89577516  0.00000000
   4.84367454 -2.89577516  0.00000000
   7.26551181  0.00000000  0.00000000
   2.42183727 -1.44788758  4.05079015
   4.84367454  1.44788758  4.05079015
   4.84367454 -4.34366274  4.05079015
   7.26551181 -1.44788758  4.05079015
   2.42183727  1.44788758  1.75976752
   4.84367454  4.34366274  1.75976752
   4.84367454 -1.44788758  1.75976752
   7.26551181  1.44788758  1.75976752
 


--------------------------------------------------------------------------------------------------------


 k-point   1 :   0.0000 0.0000 0.0000  plane waves:    9543
 k-point   2 :   0.1429-0.0000 0.0000  plane waves:    9558
 k-point   3 :   0.2857 0.0000 0.0000  plane waves:    9564
 k-point   4 :   0.4286 0.0000 0.0000  plane waves:    9541
 k-point   5 :   0.1429 0.1429 0.0000  plane waves:    9565
 k-point   6 :   0.2857 0.1429 0.0000  plane waves:    9542
 k-point   7 :   0.4286 0.1429 0.0000  plane waves:    9539
 k-point   8 :  -0.4286 0.1429 0.0000  plane waves:    9538
 k-point   9 :  -0.2857 0.1429 0.0000  plane waves:    9555
 k-point  10 :  -0.1429 0.1429 0.0000  plane waves:    9556
 k-point  11 :   0.2857 0.2857 0.0000  plane waves:    9532
 k-point  12 :   0.4286 0.2857 0.0000  plane waves:    9523
 k-point  13 :  -0.4286 0.2857 0.0000  plane waves:    9534
 k-point  14 :  -0.2857 0.2857 0.0000  plane waves:    9540
 k-point  15 :   0.4286 0.4286 0.0000  plane waves:    9534
 k-point  16 :  -0.4286 0.4286 0.0000  plane waves:    9534
 k-point  17 :   0.0000 0.0000 0.1111  plane waves:    9540
 k-point  18 :   0.1429-0.0000 0.1111  plane waves:    9549
 k-point  19 :   0.2857 0.0000 0.1111  plane waves:    9539
 k-point  20 :   0.4286 0.0000 0.1111  plane waves:    9537
 k-point  21 :   0.1429 0.1429 0.1111  plane waves:    9545
 k-point  22 :   0.2857 0.1429 0.1111  plane waves:    9540
 k-point  23 :   0.4286 0.1429 0.1111  plane waves:    9517
 k-point  24 :  -0.4286 0.1429 0.1111  plane waves:    9539
 k-point  25 :  -0.2857 0.1429 0.1111  plane waves:    9549
 k-point  26 :  -0.1429 0.1429 0.1111  plane waves:    9557
 k-point  27 :   0.2857 0.2857 0.1111  plane waves:    9543
 k-point  28 :   0.4286 0.2857 0.1111  plane waves:    9521
 k-point  29 :  -0.4286 0.2857 0.1111  plane waves:    9544
 k-point  30 :  -0.2857 0.2857 0.1111  plane waves:    9557
 k-point  31 :   0.4286 0.4286 0.1111  plane waves:    9538
 k-point  32 :  -0.4286 0.4286 0.1111  plane waves:    9534
 k-point  33 :   0.0000 0.0000 0.2222  plane waves:    9546
 k-point  34 :   0.1429-0.0000 0.2222  plane waves:    9561
 k-point  35 :   0.2857 0.0000 0.2222  plane waves:    9540
 k-point  36 :   0.4286 0.0000 0.2222  plane waves:    9533
 k-point  37 :   0.1429 0.1429 0.2222  plane waves:    9550
 k-point  38 :   0.2857 0.1429 0.2222  plane waves:    9536
 k-point  39 :   0.4286 0.1429 0.2222  plane waves:    9541
 k-point  40 :  -0.4286 0.1429 0.2222  plane waves:    9541
 k-point  41 :  -0.2857 0.1429 0.2222  plane waves:    9555
 k-point  42 :  -0.1429 0.1429 0.2222  plane waves:    9560
 k-point  43 :   0.2857 0.2857 0.2222  plane waves:    9533
 k-point  44 :   0.4286 0.2857 0.2222  plane waves:    9537
 k-point  45 :  -0.4286 0.2857 0.2222  plane waves:    9557
 k-point  46 :  -0.2857 0.2857 0.2222  plane waves:    9581
 k-point  47 :   0.4286 0.4286 0.2222  plane waves:    9535
 k-point  48 :  -0.4286 0.4286 0.2222  plane waves:    9554
 k-point  49 :   0.0000 0.0000 0.3333  plane waves:    9580
 k-point  50 :   0.1429-0.0000 0.3333  plane waves:    9562
 k-point  51 :   0.2857 0.0000 0.3333  plane waves:    9559
 k-point  52 :   0.4286 0.0000 0.3333  plane waves:    9549
 k-point  53 :   0.1429 0.1429 0.3333  plane waves:    9557
 k-point  54 :   0.2857 0.1429 0.3333  plane waves:    9551
 k-point  55 :   0.4286 0.1429 0.3333  plane waves:    9537
 k-point  56 :  -0.4286 0.1429 0.3333  plane waves:    9541
 k-point  57 :  -0.2857 0.1429 0.3333  plane waves:    9553
 k-point  58 :  -0.1429 0.1429 0.3333  plane waves:    9566
 k-point  59 :   0.2857 0.2857 0.3333  plane waves:    9546
 k-point  60 :   0.4286 0.2857 0.3333  plane waves:    9545
 k-point  61 :  -0.4286 0.2857 0.3333  plane waves:    9554
 k-point  62 :  -0.2857 0.2857 0.3333  plane waves:    9554
 k-point  63 :   0.4286 0.4286 0.3333  plane waves:    9534
 k-point  64 :  -0.4286 0.4286 0.3333  plane waves:    9538
 k-point  65 :   0.0000 0.0000 0.4444  plane waves:    9592
 k-point  66 :   0.1429-0.0000 0.4444  plane waves:    9577
 k-point  67 :   0.2857 0.0000 0.4444  plane waves:    9563
 k-point  68 :   0.4286 0.0000 0.4444  plane waves:    9566
 k-point  69 :   0.1429 0.1429 0.4444  plane waves:    9577
 k-point  70 :   0.2857 0.1429 0.4444  plane waves:    9565
 k-point  71 :   0.4286 0.1429 0.4444  plane waves:    9555
 k-point  72 :  -0.4286 0.1429 0.4444  plane waves:    9555
 k-point  73 :  -0.2857 0.1429 0.4444  plane waves:    9555
 k-point  74 :  -0.1429 0.1429 0.4444  plane waves:    9577
 k-point  75 :   0.2857 0.2857 0.4444  plane waves:    9546
 k-point  76 :   0.4286 0.2857 0.4444  plane waves:    9551
 k-point  77 :  -0.4286 0.2857 0.4444  plane waves:    9543
 k-point  78 :  -0.2857 0.2857 0.4444  plane waves:    9538
 k-point  79 :   0.4286 0.4286 0.4444  plane waves:    9536
 k-point  80 :  -0.4286 0.4286 0.4444  plane waves:    9529

 maximum and minimum number of plane-waves per node :      9592     9517

 maximum number of plane-waves:      9592
 maximum index in each direction: 
   IXMAX=   14   IYMAX=   14   IZMAX=   11
   IXMIN=  -14   IYMIN=  -14   IZMIN=  -11


 serial   3D FFT for wavefunctions
 parallel 3D FFT for charge:
    minimum data exchange during FFTs selected (reduces bandwidth)


 total amount of memory used by VASP MPI-rank0   192682. kBytes
=======================================================================

   base      :      30000. kBytes
   nonlr-proj:      13333. kBytes
   fftplans  :       3084. kBytes
   grid      :      19560. kBytes
   one-center:        497. kBytes
   wavefun   :     126208. kBytes
 
     INWAV:  cpu time      0.0000: real time      0.0002
 Broyden mixing: mesh for mixing (old mesh)
   NGX = 29   NGY = 29   NGZ = 23
  (NGX  =120   NGY  =120   NGZ  = 96)
  gives a total of  19343 points

 initial charge density was supplied:
 charge density of overlapping atoms calculated
 number of electron     160.0000000 magnetization      -0.0000000
 keeping initial charge density in first step


--------------------------------------------------------------------------------------------------------


 Maximum index for non-local projection operator         6545
 Maximum index for augmentation-charges         1138 (set IRDMAX)


--------------------------------------------------------------------------------------------------------


 First call to EWALD:  gamma=   0.258
 Maximum number of real-space cells 3x 3x 3
 Maximum number of reciprocal cells 3x 3x 2

    FEWALD:  cpu time      0.0015: real time      0.0016


--------------------------------------- Ionic step        1  -------------------------------------------




--------------------------------------- Iteration      1(   1)  ---------------------------------------


    POTLOK:  cpu time      0.0677: real time      0.0748
    SETDIJ:  cpu time      0.2765: real time      0.2776
     EDDAV:  cpu time     31.0951: real time     31.2754
       DOS:  cpu time      0.0029: real time      0.0030
    --------------------------------------------
      LOOP:  cpu time     31.4422: real time     31.6308

 eigenvalue-minimisations  : 35640
 total energy-change (2. order) : 0.2003873E+04  (-0.8898507E+04)
 number of electron     160.0000000 magnetization      -0.0000000
 augmentation part      160.0000000 magnetization      -0.0000000

 Free energy of the ion-electron system (eV)
  ---------------------------------------------------
  alpha Z        PSCENC =       778.99259288
  Ewald energy   TEWEN  =    -10810.19956673
  -Hartree energ DENC   =     -9439.13315037
  -exchange      EXHF   =         0.00000000
  -V(xc)+E(xc)   XCENC  =       564.89708344
  PAW double counting   =     15527.92248475   -16123.68540829
  entropy T*S    EENTRO =        -0.00899209
  eigenvalues    EBANDS =      -205.75271969
  atomic energy  EATOM  =     21710.84102437
  Solvation  Ediel_sol  =         0.00000000
  ---------------------------------------------------
  free energy    TOTEN  =      2003.87334827 eV

  energy without entropy =     2003.88234036  energy(sigma->0) =     2003.87784432


--------------------------------------------------------------------------------------------------------




--------------------------------------- Iteration      1(   2)  ---------------------------------------


     EDDAV:  cpu time     28.0122: real time     28.2073
       DOS:  cpu time      0.0022: real time      0.0022
    --------------------------------------------
      LOOP:  cpu time     28.0143: real time     28.2095

 eigenvalue-minimisations  : 32000
 total energy-change (2. order) :-0.1881229E+04  (-0.1827831E+04)
 number of electron     160.0000000 magnetization      -0.0000000
 augmentation part      160.0000000 magnetization      -0.0000000

 Free energy of the ion-electron system (eV)
  ---------------------------------------------------
  alpha Z        PSCENC =       778.99259288
  Ewald energy   TEWEN  =    -10810.19956673
  -Hartree energ DENC   =     -9439.13315037
  -exchange      EXHF   =         0.00000000
  -V(xc)+E(xc)   XCENC  =       564.89708344
  PAW double counting   =     15527.92248475   -16123.68540829
  entropy T*S    EENTRO =        -0.01647928
  eigenvalues    EBANDS =     -2086.97411816
  atomic energy  EATOM  =     21710.84102437
  Solvation  Ediel_sol  =         0.00000000
  ---------------------------------------------------
  free energy    TOTEN  =       122.64446261 eV

  energy without entropy =      122.66094189  energy(sigma->0) =      122.65270225


--------------------------------------------------------------------------------------------------------




--------------------------------------- Iteration      1(   3)  ---------------------------------------


     EDDAV:  cpu time     37.2202: real time     37.4672
       DOS:  cpu time      0.0022: real time      0.0022
    --------------------------------------------
      LOOP:  cpu time     37.2224: real time     37.4695

 eigenvalue-minimisations  : 46220
 total energy-change (2. order) :-0.2079817E+03  (-0.1857239E+03)
 number of electron     160.0000000 magnetization      -0.0000000
 augmentation part      160.0000000 magnetization      -0.0000000

 Free energy of the ion-electron system (eV)
  ---------------------------------------------------
  alpha Z        PSCENC =       778.99259288
  Ewald energy   TEWEN  =    -10810.19956673
  -Hartree energ DENC   =     -9439.13315037
  -exchange      EXHF   =         0.00000000
  -V(xc)+E(xc)   XCENC  =       564.89708344
  PAW double counting   =     15527.92248475   -16123.68540829
  entropy T*S    EENTRO =        -0.02770042
  eigenvalues    EBANDS =     -2294.94456739
  atomic energy  EATOM  =     21710.84102437
  Solvation  Ediel_sol  =         0.00000000
  ---------------------------------------------------
  free energy    TOTEN  =       -85.33720777 eV

  energy without entropy =      -85.30950734  energy(sigma->0) =      -85.32335756


--------------------------------------------------------------------------------------------------------




--------------------------------------- Iteration      1(   4)  ---------------------------------------


     EDDAV:  cpu time     38.5215: real time     38.7471
       DOS:  cpu time      0.0023: real time      0.0023
    --------------------------------------------
      LOOP:  cpu time     38.5238: real time     38.7494

 eigenvalue-minimisations  : 47140
 total energy-change (2. order) :-0.1467659E+02  (-0.1435793E+02)
 number of electron     160.0000000 magnetization      -0.0000000
 augmentation part      160.0000000 magnetization      -0.0000000

 Free energy of the ion-electron system (eV)
  ---------------------------------------------------
  alpha Z        PSCENC =       778.99259288
  Ewald energy   TEWEN  =    -10810.19956673
  -Hartree energ DENC   =     -9439.13315037
  -exchange      EXHF   =         0.00000000
  -V(xc)+E(xc)   XCENC  =       564.89708344
  PAW double counting   =     15527.92248475   -16123.68540829
  entropy T*S    EENTRO =        -0.02992234
  eigenvalues    EBANDS =     -2309.61893135
  atomic energy  EATOM  =     21710.84102437
  Solvation  Ediel_sol  =         0.00000000
  ---------------------------------------------------
  free energy    TOTEN  =      -100.01379364 eV

  energy without entropy =      -99.98387130  energy(sigma->0) =      -99.99883247


--------------------------------------------------------------------------------------------------------




--------------------------------------- Iteration      1(   5)  ---------------------------------------


     EDDAV:  cpu time     35.7756: real time     36.0219
       DOS:  cpu time      0.0022: real time      0.0022
    CHARGE:  cpu time      1.1282: real time      1.1352
    MIXING:  cpu time      0.0014: real time      0.0014
    --------------------------------------------
      LOOP:  cpu time     36.9075: real time     37.1607

 eigenvalue-minimisations  : 44380
 total energy-change (2. order) :-0.3330064E+00  (-0.3322433E+00)
 number of electron     160.0000034 magnetization       0.0000000
 augmentation part       53.0780622 magnetization       0.0000000

 Broyden mixing:
  rms(total) = 0.27676E+01    rms(broyden)= 0.27672E+01
  rms(prec ) = 0.43444E+01
  weight for this iteration     100.00

 Free energy of the ion-electron system (eV)
  ---------------------------------------------------
  alpha Z        PSCENC =       778.99259288
  Ewald energy   TEWEN  =    -10810.19956673
  -Hartree energ DENC   =     -9439.13315037
  -exchange      EXHF   =         0.00000000
  -V(xc)+E(xc)   XCENC  =       564.89708344
  PAW double counting   =     15527.92248475   -16123.68540829
  entropy T*S    EENTRO =        -0.02985711
  eigenvalues    EBANDS =     -2309.95200299
  atomic energy  EATOM  =     21710.84102437
  Solvation  Ediel_sol  =         0.00000000
  ---------------------------------------------------
  free energy    TOTEN  =      -100.34680005 eV

  energy without entropy =     -100.31694294  energy(sigma->0) =     -100.33187150


--------------------------------------------------------------------------------------------------------




--------------------------------------- Iteration      1(   6)  ---------------------------------------


    POTLOK:  cpu time      0.0669: real time      0.0832
    SETDIJ:  cpu time      0.2691: real time      0.2701
    EDDIAG:  cpu time      4.6674: real time      4.6948
  RMM-DIIS:  cpu time     17.5869: real time     17.6759
    ORTHCH:  cpu time      0.6092: real time      0.6119
       DOS:  cpu time      0.0023: real time      0.0023
    CHARGE:  cpu time      1.1010: real time      1.1077
    MIXING:  cpu time      0.0017: real time      0.0017
    --------------------------------------------
      LOOP:  cpu time     24.3044: real time     24.4474

 eigenvalue-minimisations  : 32084
 total energy-change (2. order) :-0.1256665E+02  (-0.1746012E+02)
 number of electron     160.0000041 magnetization       0.0000000
 augmentation part       70.1703011 magnetization       0.0000000

 Broyden mixing:
  rms(total) = 0.53121E+01    rms(broyden)= 0.53120E+01
  rms(prec ) = 0.83972E+01
  weight for this iteration     100.00

 eigenvalues of (default mixing * dielectric matrix)
  average eigenvalue GAMMA=   0.2930
  0.2930

 Free energy of the ion-electron system (eV)
  ---------------------------------------------------
  alpha Z        PSCENC =       778.99259288
  Ewald energy   TEWEN  =    -10810.19956673
  -Hartree energ DENC   =     -8973.65857318
  -exchange      EXHF   =         0.00000000
  -V(xc)+E(xc)   XCENC  =       552.88307001
  PAW double counting   =     14977.59782062   -15541.51836889
  entropy T*S    EENTRO =        -0.03515168
  eigenvalues    EBANDS =     -2807.81629858
  atomic energy  EATOM  =     21710.84102437
  Solvation  Ediel_sol  =         0.00000000
  ---------------------------------------------------
  free energy    TOTEN  =      -112.91345118 eV

  energy without entropy =     -112.87829949  energy(sigma->0) =     -112.89587533


--------------------------------------------------------------------------------------------------------




--------------------------------------- Iteration      1(   7)  ---------------------------------------


    POTLOK:  cpu time      0.0546: real time      0.0920
    SETDIJ:  cpu time      0.2676: real time      0.2696
    EDDIAG:  cpu time      4.6968: real time      4.7207
  RMM-DIIS:  cpu time     16.7256: real time     16.8087
    ORTHCH:  cpu time      0.5968: real time      0.5994
       DOS:  cpu time      0.0021: real time      0.0022
    CHARGE:  cpu time      1.0357: real time      1.0415
    MIXING:  cpu time      0.0015: real time      0.0015
    --------------------------------------------
      LOOP:  cpu time     23.3807: real time     23.5355

 eigenvalue-minimisations  : 32025
 total energy-change (2. order) : 0.2192048E+02  (-0.4444441E+01)
 number of electron     160.0000032 magnetization       0.0000000
 augmentation part       57.7887239 magnetization       0.0000000

 Broyden mixing:
  rms(total) = 0.11491E+01    rms(broyden)= 0.11485E+01
  rms(prec ) = 0.13826E+01
  weight for this iteration     100.00

 eigenvalues of (default mixing * dielectric matrix)
  average eigenvalue GAMMA=   0.4459
  0.6252  0.2666

 Free energy of the ion-electron system (eV)
  ---------------------------------------------------
  alpha Z        PSCENC =       778.99259288
  Ewald energy   TEWEN  =    -10810.19956673
  -Hartree energ DENC   =     -9260.43103099
  -exchange      EXHF   =         0.00000000
  -V(xc)+E(xc)   XCENC  =       557.91713703
  PAW double counting   =     15475.41970271   -16072.83627795
  entropy T*S    EENTRO =        -0.03492413
  eigenvalues    EBANDS =     -2470.66163234
  atomic energy  EATOM  =     21710.84102437
  Solvation  Ediel_sol  =         0.00000000
  ---------------------------------------------------
  free energy    TOTEN  =       -90.99297515 eV

  energy without entropy =      -90.95805102  energy(sigma->0) =      -90.97551309


--------------------------------------------------------------------------------------------------------




--------------------------------------- Iteration      1(   8)  ---------------------------------------


    POTLOK:  cpu time      0.0545: real time      0.0550
    SETDIJ:  cpu time      0.2681: real time      0.2690
    EDDIAG:  cpu time      4.4955: real time      4.5204
  RMM-DIIS:  cpu time     21.6506: real time     21.7642
    ORTHCH:  cpu time      0.6096: real time      0.6123
       DOS:  cpu time      0.0021: real time      0.0021
    CHARGE:  cpu time      1.1090: real time      1.1146
    MIXING:  cpu time      0.0017: real time      0.0017
    --------------------------------------------
      LOOP:  cpu time     28.1910: real time     28.3394

 eigenvalue-minimisations  : 41157
 total energy-change (2. order) :-0.5797494E+00  (-0.3142498E+00)
 number of electron     160.0000030 magnetization       0.0000000
 augmentation part       58.3526806 magnetization       0.0000000

 Broyden mixing:
  rms(total) = 0.53434E+00    rms(broyden)= 0.53404E+00
  rms(prec ) = 0.70026E+00
  weight for this iteration     100.00

 eigenvalues of (default mixing * dielectric matrix)
  average eigenvalue GAMMA=   0.6281
  0.3064  0.7889  0.7889

 Free energy of the ion-electron system (eV)
  ---------------------------------------------------
  alpha Z        PSCENC =       778.99259288
  Ewald energy   TEWEN  =    -10810.19956673
  -Hartree energ DENC   =     -9248.52194430
  -exchange      EXHF   =         0.00000000
  -V(xc)+E(xc)   XCENC  =       558.38422036
  PAW double counting   =     15528.01819822   -16132.40256976
  entropy T*S    EENTRO =        -0.02720194
  eigenvalues    EBANDS =     -2476.65747763
  atomic energy  EATOM  =     21710.84102437
  Solvation  Ediel_sol  =         0.00000000
  ---------------------------------------------------
  free energy    TOTEN  =       -91.57272454 eV

  energy without entropy =      -91.54552260  energy(sigma->0) =      -91.55912357


--------------------------------------------------------------------------------------------------------




--------------------------------------- Iteration      1(   9)  ---------------------------------------


    POTLOK:  cpu time      0.0653: real time      0.0940
    SETDIJ:  cpu time      0.2680: real time      0.2689
    EDDIAG:  cpu time      4.6922: real time      4.7160
  RMM-DIIS:  cpu time     23.0948: real time     23.2178
    ORTHCH:  cpu time      0.6054: real time      0.6082
       DOS:  cpu time      0.0021: real time      0.0021
    CHARGE:  cpu time      1.0997: real time      1.1054
    MIXING:  cpu time      0.0023: real time      0.0023
    --------------------------------------------
      LOOP:  cpu time     29.8296: real time     30.0147

 eigenvalue-minimisations  : 44344
 total energy-change (2. order) :-0.1000374E+00  (-0.9242011E-01)
 number of electron     160.0000030 magnetization       0.0000000
 augmentation part       58.7736013 magnetization       0.0000000

 Broyden mixing:
  rms(total) = 0.28971E+00    rms(broyden)= 0.28923E+00
  rms(prec ) = 0.35215E+00
  weight for this iteration     100.00

 eigenvalues of (default mixing * dielectric matrix)
  average eigenvalue GAMMA=   0.8390
  1.1757  1.1757  0.3009  0.7037

 Free energy of the ion-electron system (eV)
  ---------------------------------------------------
  alpha Z        PSCENC =       778.99259288
  Ewald energy   TEWEN  =    -10810.19956673
  -Hartree energ DENC   =     -9232.96076190
  -exchange      EXHF   =         0.00000000
  -V(xc)+E(xc)   XCENC  =       558.61727657
  PAW double counting   =     15611.88131553   -16222.75981534
  entropy T*S    EENTRO =        -0.01813525
  eigenvalues    EBANDS =     -2486.06669209
  atomic energy  EATOM  =     21710.84102437
  Solvation  Ediel_sol  =         0.00000000
  ---------------------------------------------------
  free energy    TOTEN  =       -91.67276196 eV

  energy without entropy =      -91.65462671  energy(sigma->0) =      -91.66369433


--------------------------------------------------------------------------------------------------------




--------------------------------------- Iteration      1(  10)  ---------------------------------------


    POTLOK:  cpu time      0.0558: real time      0.0985
    SETDIJ:  cpu time      0.2684: real time      0.2695
    EDDIAG:  cpu time      4.4904: real time      4.5172
  RMM-DIIS:  cpu time     24.8212: real time     24.9511
    ORTHCH:  cpu time      0.6094: real time      0.6122
       DOS:  cpu time      0.0021: real time      0.0021
    CHARGE:  cpu time      1.0913: real time      1.0966
    MIXING:  cpu time      0.0017: real time      0.0017
    --------------------------------------------
      LOOP:  cpu time     31.3403: real time     31.5489

 eigenvalue-minimisations  : 46246
 total energy-change (2. order) :-0.1979110E-01  (-0.2907124E-01)
 number of electron     160.0000030 magnetization       0.0000000
 augmentation part       58.9620155 magnetization       0.0000000

 Broyden mixing:
  rms(total) = 0.16498E+00    rms(broyden)= 0.16478E+00
  rms(prec ) = 0.18921E+00
  weight for this iteration     100.00

 eigenvalues of (default mixing * dielectric matrix)
  average eigenvalue GAMMA=   1.0245
  1.6256  1.6256  0.3012  0.8384  0.7316

 Free energy of the ion-electron system (eV)
  ---------------------------------------------------
  alpha Z        PSCENC =       778.99259288
  Ewald energy   TEWEN  =    -10810.19956673
  -Hartree energ DENC   =     -9226.51434979
  -exchange      EXHF   =         0.00000000
  -V(xc)+E(xc)   XCENC  =       558.62931046
  PAW double counting   =     15667.56795756   -16282.19768165
  entropy T*S    EENTRO =        -0.01706779
  eigenvalues    EBANDS =     -2488.79477237
  atomic energy  EATOM  =     21710.84102437
  Solvation  Ediel_sol  =         0.00000000
  ---------------------------------------------------
  free energy    TOTEN  =       -91.69255306 eV

  energy without entropy =      -91.67548527  energy(sigma->0) =      -91.68401916


--------------------------------------------------------------------------------------------------------




--------------------------------------- Iteration      1(  11)  ---------------------------------------


    POTLOK:  cpu time      0.0783: real time      0.0892
    SETDIJ:  cpu time      0.2688: real time      0.2697
    EDDIAG:  cpu time      4.6595: real time      4.6830
  RMM-DIIS:  cpu time     22.2074: real time     22.3225
    ORTHCH:  cpu time      0.6095: real time      0.6121
       DOS:  cpu time      0.0020: real time      0.0020
    CHARGE:  cpu time      1.1025: real time      1.1087
    MIXING:  cpu time      0.0019: real time      0.0019
    --------------------------------------------
      LOOP:  cpu time     28.9299: real time     29.0891

 eigenvalue-minimisations  : 41095
 total energy-change (2. order) :-0.4418329E-04  (-0.6724911E-02)
 number of electron     160.0000030 magnetization       0.0000000
 augmentation part       58.9251962 magnetization       0.0000000

 Broyden mixing:
  rms(total) = 0.65308E-01    rms(broyden)= 0.65255E-01
  rms(prec ) = 0.75066E-01
  weight for this iteration     100.00

 eigenvalues of (default mixing * dielectric matrix)
  average eigenvalue GAMMA=   1.0965
  1.8855  1.8855  0.3012  0.9160  0.9160  0.6747

 Free energy of the ion-electron system (eV)
  ---------------------------------------------------
  alpha Z        PSCENC =       778.99259288
  Ewald energy   TEWEN  =    -10810.19956673
  -Hartree energ DENC   =     -9224.50737872
  -exchange      EXHF   =         0.00000000
  -V(xc)+E(xc)   XCENC  =       558.78808132
  PAW double counting   =     15725.97436753   -16343.71837210
  entropy T*S    EENTRO =        -0.01697512
  eigenvalues    EBANDS =     -2487.84637067
  atomic energy  EATOM  =     21710.84102437
  Solvation  Ediel_sol  =         0.00000000
  ---------------------------------------------------
  free energy    TOTEN  =       -91.69259724 eV

  energy without entropy =      -91.67562212  energy(sigma->0) =      -91.68410968


--------------------------------------------------------------------------------------------------------




--------------------------------------- Iteration      1(  12)  ---------------------------------------


    POTLOK:  cpu time      0.0571: real time      0.1079
    SETDIJ:  cpu time      0.2679: real time      0.2687
    EDDIAG:  cpu time      4.6558: real time      4.6815
  RMM-DIIS:  cpu time     22.9979: real time     23.1133
    ORTHCH:  cpu time      0.5999: real time      0.6024
       DOS:  cpu time      0.0022: real time      0.0022
    CHARGE:  cpu time      1.0747: real time      1.0806
    MIXING:  cpu time      0.0021: real time      0.0021
    --------------------------------------------
      LOOP:  cpu time     29.6576: real time     29.8587

 eigenvalue-minimisations  : 42907
 total energy-change (2. order) :-0.9476430E-02  (-0.2215754E-02)
 number of electron     160.0000030 magnetization       0.0000000
 augmentation part       58.9608502 magnetization       0.0000000

 Broyden mixing:
  rms(total) = 0.37106E-01    rms(broyden)= 0.37095E-01
  rms(prec ) = 0.44271E-01
  weight for this iteration     100.00

 eigenvalues of (default mixing * dielectric matrix)
  average eigenvalue GAMMA=   1.0825
  2.2047  1.3552  1.3552  0.3012  0.9310  0.7637  0.6662

 Free energy of the ion-electron system (eV)
  ---------------------------------------------------
  alpha Z        PSCENC =       778.99259288
  Ewald energy   TEWEN  =    -10810.19956673
  -Hartree energ DENC   =     -9223.61576217
  -exchange      EXHF   =         0.00000000
  -V(xc)+E(xc)   XCENC  =       558.79269009
  PAW double counting   =     15730.29747067   -16348.23192867
  entropy T*S    EENTRO =        -0.01760730
  eigenvalues    EBANDS =     -2488.56098679
  atomic energy  EATOM  =     21710.84102437
  Solvation  Ediel_sol  =         0.00000000
  ---------------------------------------------------
  free energy    TOTEN  =       -91.70207367 eV

  energy without entropy =      -91.68446637  energy(sigma->0) =      -91.69327002


--------------------------------------------------------------------------------------------------------




--------------------------------------- Iteration      1(  13)  ---------------------------------------


    POTLOK:  cpu time      0.0553: real time      0.0778
    SETDIJ:  cpu time      0.2682: real time      0.2691
    EDDIAG:  cpu time      4.6447: real time      4.6682
  RMM-DIIS:  cpu time     21.6498: real time     21.7603
    ORTHCH:  cpu time      0.5966: real time      0.5993
       DOS:  cpu time      0.0022: real time      0.0022
    CHARGE:  cpu time      1.1036: real time      1.1092
    MIXING:  cpu time      0.0023: real time      0.0023
    --------------------------------------------
      LOOP:  cpu time     28.3227: real time     28.4884

 eigenvalue-minimisations  : 39003
 total energy-change (2. order) : 0.2600369E-03  (-0.5585163E-03)
 number of electron     160.0000030 magnetization      -0.0000000
 augmentation part       58.9800600 magnetization      -0.0000000

 Broyden mixing:
  rms(total) = 0.14113E-01    rms(broyden)= 0.14105E-01
  rms(prec ) = 0.17024E-01
  weight for this iteration     100.00

 eigenvalues of (default mixing * dielectric matrix)
  average eigenvalue GAMMA=   1.1300
  2.6301  1.3948  1.3948  0.3012  1.1056  0.8544  0.7115  0.6475

 Free energy of the ion-electron system (eV)
  ---------------------------------------------------
  alpha Z        PSCENC =       778.99259288
  Ewald energy   TEWEN  =    -10810.19956673
  -Hartree energ DENC   =     -9223.24200781
  -exchange      EXHF   =         0.00000000
  -V(xc)+E(xc)   XCENC  =       558.82551215
  PAW double counting   =     15732.26738722   -16350.30441061
  entropy T*S    EENTRO =        -0.01747991
  eigenvalues    EBANDS =     -2488.86486519
  atomic energy  EATOM  =     21710.84102437
  Solvation  Ediel_sol  =         0.00000000
  ---------------------------------------------------
  free energy    TOTEN  =       -91.70181363 eV

  energy without entropy =      -91.68433372  energy(sigma->0) =      -91.69307368


--------------------------------------------------------------------------------------------------------




--------------------------------------- Iteration      1(  14)  ---------------------------------------


    POTLOK:  cpu time      0.0659: real time      0.0766
    SETDIJ:  cpu time      0.2689: real time      0.2698
    EDDIAG:  cpu time      4.6648: real time      4.6905
  RMM-DIIS:  cpu time     15.5937: real time     15.6767
    ORTHCH:  cpu time      0.6098: real time      0.6125
       DOS:  cpu time      0.0020: real time      0.0020
    --------------------------------------------
      LOOP:  cpu time     21.2051: real time     21.3282

 eigenvalue-minimisations  : 28378
 total energy-change (2. order) :-0.3062839E-04  (-0.1646455E-03)
 number of electron     160.0000030 magnetization      -0.0000000
 augmentation part       58.9800600 magnetization      -0.0000000

 Free energy of the ion-electron system (eV)
  ---------------------------------------------------
  alpha Z        PSCENC =       778.99259288
  Ewald energy   TEWEN  =    -10810.19956673
  -Hartree energ DENC   =     -9223.11167365
  -exchange      EXHF   =         0.00000000
  -V(xc)+E(xc)   XCENC  =       558.84152815
  PAW double counting   =     15733.66229203   -16351.72784202
  entropy T*S    EENTRO =        -0.01732478
  eigenvalues    EBANDS =     -2488.98287451
  atomic energy  EATOM  =     21710.84102437
  Solvation  Ediel_sol  =         0.00000000
  ---------------------------------------------------
  free energy    TOTEN  =       -91.70184426 eV

  energy without entropy =      -91.68451948  energy(sigma->0) =      -91.69318187


--------------------------------------------------------------------------------------------------------




 average (electrostatic) potential at core
  the test charge radii are     0.9500  1.0808
  (the norm of the test charge is              1.0000)
       1 -47.8195       2 -47.8195       3 -47.8195       4 -47.8195       5 -47.8195
       6 -47.8195       7 -47.8195       8 -47.8195       9 -55.2711      10 -55.2711
      11 -55.2711      12 -55.2711      13 -55.2711      14 -55.2711      15 -55.2711
      16 -55.2711
 
 
 
 E-fermi :   3.3915     XC(G=0): -10.1631     alpha+bet : -8.9256

 Fermi energy:         3.3914840496

 spin component 1

 k-point     1 :       0.0000    0.0000    0.0000
  band No.  band energies     occupation 
      1     -51.4708      1.00000
      2     -51.4644      1.00000
      3     -51.4644      1.00000
      4     -51.4605      1.00000
      5     -51.3274      1.00000
      6     -51.2653      1.00000
      7     -51.2611      1.00000
      8     -51.2611      1.00000
      9     -51.2548      1.00000
     10     -51.1699      1.00000
     11     -51.1699      1.00000
     12     -51.0099      1.00000
     13     -48.6087      1.00000
     14     -48.6072      1.00000
     15     -48.6072      1.00000
     16     -48.6072      1.00000
     17     -48.5759      1.00000
     18     -48.4009      1.00000
     19     -48.4009      1.00000
     20     -48.2434      1.00000
     21     -48.2434      1.00000
     22     -48.2430      1.00000
     23     -48.2416      1.00000
     24     -48.2229      1.00000
     25     -10.6815      1.00000
     26      -9.6727      1.00000
     27      -9.6727      1.00000
     28      -9.6562      1.00000
     29      -9.6562      1.00000
     30      -9.3720      1.00000
     31      -9.3130      1.00000
     32      -9.2374      1.00000
     33      -2.5903      1.00000
     34      -2.2667      1.00000
     35      -1.3081      1.00000
     36      -1.3081      1.00000
     37      -1.2524      1.00000
     38      -1.2524      1.00000
     39      -1.0517      1.00000
     40      -0.9299      1.00000
     41      -0.8573      1.00000
     42      -0.8573      1.00000
     43      -0.7007      1.00000
     44      -0.6276      1.00000
     45      -0.6082      1.00000
     46      -0.5868      1.00000
     47      -0.5868      1.00000
     48      -0.3730      1.00000
     49      -0.1002      1.00000
     50      -0.1002      1.00000
     51       0.0257      1.00000
     52       0.3155      1.00000
     53       0.3155      1.00000
     54       0.4806      1.00000
     55       0.6494      1.00000
     56       0.7252      1.00000
     57       0.9185      1.00000
     58       0.9185      1.00000
     59       1.0157      1.00000
     60       1.0157      1.00000
     61       1.1336      1.00000
     62       1.1467      1.00000
     63       1.2799      1.00000
     64       1.3847      1.00000
     65       1.5198      1.00000
     66       1.5660      1.00000
     67       1.5660      1.00000
     68       1.6388      1.00000
     69       1.7432      1.00000
     70       1.8546      1.00000
     71       1.8546      1.00000
     72       2.1538      1.00000
     73       2.5131      1.00000
     74       2.6278      1.00000
     75       2.6278      1.00000
     76       2.6922      1.00000
     77       2.6922      1.00000
     78       3.0781      1.00000
     79       3.1256      1.00000
     80       3.2011      1.00000
     81       3.3841      0.58317
     82       3.8361      0.00000
     83       3.8361      0.00000
     84       3.8998      0.00000
     85       3.9313      0.00000
     86       3.9313      0.00000
     87       3.9390      0.00000
     88       4.2157      0.00000
     89       4.2158      0.00000
     90       4.2239      0.00000
     91       4.2233      0.00000
     92       4.2233      0.00000
     93       4.7975      0.00000
[...]
         0         1         2         3         4         5         6         7         8         9
 total charge-density along one line
 
 soft charge-density along one line, spin component           2
         0         1         2         3         4         5         6         7         8         9
 total charge-density along one line
 
 pseudopotential strength for first ion, spin component:           1
-55.544   0.055  -0.000  28.632  -0.043   0.000  -0.000   0.000
  0.055 -55.602  -0.000  -0.043  28.675   0.000  -0.000   0.000
 -0.000  -0.000 -55.428   0.000   0.000  28.539   0.000  -0.000
 28.632  -0.043   0.000 -10.308   0.032  -0.000   0.000  -0.000
 -0.043  28.675   0.000   0.032 -10.339  -0.000   0.000  -0.000
  0.000   0.000  28.539  -0.000  -0.000 -10.246  -0.000   0.000
 -0.000  -0.000   0.000   0.000   0.000  -0.000  -9.192  -0.000
  0.000   0.000  -0.000  -0.000  -0.000   0.000  -0.000  -8.985
 -0.000   0.000   0.000   0.000  -0.000  -0.000   0.000  -0.011
 -0.000  -0.000   0.000   0.000   0.000  -0.000  -0.027  -0.000
 -0.000  -0.000  -0.000   0.000   0.000   0.000  -0.000  -0.098
  0.000   0.000  -0.000  -0.000  -0.000   0.000   0.001   0.000
 -0.000  -0.000   0.000   0.000   0.000  -0.000   0.000  -0.048
  0.000  -0.000  -0.000  -0.000   0.000   0.000  -0.000   0.003
  0.000   0.000  -0.000  -0.000  -0.000   0.000   0.006   0.000
  0.000   0.000   0.000  -0.000  -0.000  -0.000   0.000   0.023
 -0.000  -0.000   0.000   0.000   0.000  -0.000   0.000  -0.013
  0.000   0.000  -0.000  -0.000  -0.000   0.000  -0.000   0.002
 pseudopotential strength for first ion, spin component:           2
-53.333   0.105  -0.000  26.942  -0.075   0.000  -0.000   0.000
  0.105 -53.346  -0.000  -0.075  26.949   0.000  -0.000   0.000
 -0.000  -0.000 -53.322   0.000   0.000  26.925   0.000  -0.000
 26.942  -0.075   0.000  -9.113   0.056  -0.000   0.000  -0.000
 -0.075  26.949   0.000   0.056  -9.120  -0.000   0.000  -0.000
  0.000   0.000  26.925  -0.000  -0.000  -9.104  -0.000   0.000
 -0.000  -0.000   0.000   0.000   0.000  -0.000  -7.024  -0.000
  0.000   0.000  -0.000  -0.000  -0.000   0.000  -0.000  -7.401
 -0.000   0.000   0.000   0.000  -0.000  -0.000   0.000   0.083
 -0.000  -0.000   0.000   0.000   0.000  -0.000   0.115  -0.000
 -0.000  -0.000  -0.000   0.000   0.000   0.000  -0.000   0.007
  0.000   0.000  -0.000  -0.000  -0.000   0.000  -0.504   0.000
 -0.000  -0.000   0.000   0.000   0.000  -0.000   0.000  -0.417
  0.000  -0.000  -0.000  -0.000   0.000   0.000  -0.000  -0.018
  0.000   0.000  -0.000  -0.000  -0.000   0.000  -0.025   0.000
  0.000   0.000   0.000  -0.000  -0.000  -0.000   0.000  -0.003
 -0.000  -0.000   0.000   0.000   0.000  -0.000   0.000  -0.012
  0.000   0.000  -0.000  -0.000  -0.000   0.000  -0.000   0.003
 total augmentation occupancy for first ion, spin component:           1
  2.009  -0.019  -0.000   0.056  -0.047   0.000   0.000  -0.000  -0.000  -0.000   0.000   0.000   0.000  -0.000   0.000  -0.000
 -0.019   2.012   0.000  -0.047   0.064   0.000   0.000  -0.000   0.000  -0.000  -0.000   0.000   0.000  -0.000   0.000   0.000
 -0.000  -0.000   2.009  -0.000   0.000   0.051  -0.000   0.000  -0.000   0.000   0.000   0.000   0.000  -0.000  -0.000   0.000
  0.056  -0.047  -0.000   0.194  -0.115   0.000   0.000  -0.000   0.000  -0.000  -0.000   0.000   0.000   0.000  -0.000  -0.000
 -0.047   0.064  -0.000  -0.115   0.214   0.000   0.000  -0.000   0.000  -0.000   0.000   0.000  -0.000   0.000  -0.000  -0.000
 -0.000   0.000   0.051   0.000   0.000   0.176   0.000  -0.000  -0.000   0.000   0.000   0.000   0.000  -0.000  -0.000   0.000
  0.000   0.000   0.000   0.000   0.000   0.000   1.240   0.000   0.000  -0.094   0.000  -0.081  -0.000  -0.000  -0.055   0.000
  0.000   0.000   0.000   0.000  -0.000  -0.000  -0.000   1.471   0.004  -0.000  -0.090   0.000   0.085  -0.136  -0.000   0.104
  0.000  -0.000  -0.000   0.000  -0.000  -0.000  -0.000   0.004   1.302   0.000  -0.174   0.000  -0.138   0.037   0.000  -0.091
 -0.000  -0.000  -0.000  -0.000  -0.000  -0.000  -0.094   0.000   0.000   1.209   0.000  -0.056   0.000  -0.000  -0.062   0.000
 -0.000   0.000   0.000   0.000   0.000   0.000   0.000  -0.090  -0.174   0.000   1.503   0.000   0.108  -0.089   0.000   0.136
  0.000   0.000   0.000   0.000   0.000  -0.000  -0.081   0.000  -0.000  -0.056   0.000   0.162   0.000  -0.000  -0.028  -0.000
 -0.000  -0.000  -0.000   0.000   0.000   0.000   0.000   0.085  -0.138  -0.000   0.108  -0.000   0.248  -0.068  -0.000   0.090
 -0.000  -0.000  -0.000   0.000   0.000  -0.000  -0.000  -0.136   0.037  -0.000  -0.089  -0.000  -0.068   0.165   0.000  -0.008
  0.000  -0.000  -0.000  -0.000  -0.000   0.000  -0.055   0.000   0.000  -0.062   0.000  -0.028   0.000   0.000   0.161   0.000
  0.000  -0.000  -0.000  -0.000   0.000   0.000  -0.000   0.104  -0.091   0.000   0.136  -0.000   0.090  -0.008  -0.000   0.139
  0.000   0.000   0.000   0.000   0.000   0.000  -0.000  -0.017  -0.031   0.000   0.094  -0.000  -0.335   0.029  -0.000  -0.009
  0.000   0.000  -0.000   0.000   0.000  -0.000   0.000   0.002   0.015  -0.000  -0.016   0.000   0.022  -0.005   0.000   0.004
 total augmentation occupancy for first ion, spin component:           2
 -0.006   0.000  -0.000  -0.002  -0.000  -0.000   0.000   0.000   0.000  -0.000   0.000  -0.000   0.000   0.000   0.000   0.000
  0.000  -0.008  -0.000  -0.000  -0.008  -0.000   0.000   0.000   0.000   0.000  -0.000   0.000   0.000  -0.000  -0.000  -0.000
 -0.000  -0.000  -0.008   0.000  -0.000  -0.006  -0.000  -0.000   0.000  -0.000   0.000   0.000   0.000  -0.000   0.000  -0.000
 -0.002  -0.000   0.000   0.014  -0.002  -0.000   0.000  -0.000   0.000   0.000  -0.000   0.000   0.000  -0.000  -0.000  -0.000
 -0.000  -0.008   0.000  -0.002   0.001   0.000   0.000   0.000   0.000   0.000   0.000  -0.000   0.000  -0.000  -0.000   0.000
  0.000  -0.000  -0.006   0.000  -0.000   0.009  -0.000   0.000  -0.000   0.000   0.000   0.000   0.000  -0.000   0.000   0.000
  0.000   0.000   0.000   0.000   0.000  -0.000   0.717  -0.000  -0.000   0.110   0.000  -0.273  -0.000  -0.000   0.009  -0.000
 -0.000  -0.000  -0.000   0.000   0.000   0.000   0.000   0.379   0.082   0.000   0.035   0.000  -0.206  -0.002   0.000  -0.033
  0.000   0.000   0.000  -0.000  -0.000  -0.000  -0.000   0.082   0.557   0.000   0.225  -0.000  -0.004  -0.224   0.000  -0.033
 -0.000   0.000   0.000   0.000   0.000  -0.000   0.110  -0.000  -0.000   0.723  -0.000   0.011   0.000  -0.000  -0.272  -0.000
  0.000   0.000   0.000   0.000  -0.000   0.000   0.000   0.035   0.225   0.000   0.262  -0.000  -0.017  -0.028   0.000  -0.157
  0.000   0.000   0.000   0.000  -0.000  -0.000  -0.273   0.000  -0.000   0.011   0.000   0.056   0.000  -0.000   0.005  -0.000
 -0.000  -0.000   0.000  -0.000  -0.000   0.000  -0.000  -0.206  -0.004   0.000  -0.017  -0.000   0.009   0.023  -0.000  -0.002
  0.000  -0.000   0.000   0.000   0.000  -0.000  -0.000  -0.002  -0.224   0.000  -0.028   0.000   0.023   0.018   0.000   0.014
 -0.000   0.000   0.000  -0.000  -0.000   0.000   0.009  -0.000   0.000  -0.272   0.000   0.005  -0.000  -0.000   0.043  -0.000
  0.000   0.000  -0.000  -0.000  -0.000   0.000   0.000  -0.033  -0.033  -0.000  -0.157   0.000  -0.002   0.014   0.000  -0.010
  0.000   0.000   0.000  -0.000  -0.000   0.000   0.000   0.131   0.016  -0.000  -0.051   0.000  -0.037   0.004   0.000  -0.027
  0.000   0.000  -0.000   0.000   0.000  -0.000  -0.000   0.013   0.017  -0.000  -0.022   0.000  -0.004  -0.001   0.000   0.000


------------------------ aborting loop because EDIFF is reached ----------------------------------------





 total charge

# of ion       s       p       d       tot
------------------------------------------
    1        0.342   6.295   6.058  12.694
    2        0.342   6.295   6.058  12.694
    3        0.342   6.295   6.058  12.694
    4        0.342   6.295   6.058  12.694
    5        0.342   6.295   6.058  12.694
    6        0.342   6.295   6.058  12.694
    7        0.342   6.295   6.058  12.694
    8        0.342   6.295   6.058  12.694
    9        1.486   2.271   0.049   3.805
   10        1.486   2.271   0.049   3.805
   11        1.486   2.271   0.049   3.805
   12        1.486   2.271   0.049   3.805
   13        1.486   2.271   0.049   3.805
   14        1.486   2.271   0.049   3.805
   15        1.486   2.271   0.049   3.805
   16        1.486   2.271   0.049   3.805
--------------------------------------------------
tot         14.617  68.523  48.856 131.995



 magnetization (x)

# of ion       s       p       d       tot
------------------------------------------
    1        0.029   0.012   2.568   2.609
    2       -0.029  -0.012  -2.568  -2.609
    3       -0.029  -0.012  -2.568  -2.609
    4        0.029   0.012   2.568   2.609
    5        0.029   0.012   2.568   2.609
    6       -0.029  -0.012  -2.568  -2.609
    7       -0.029  -0.012  -2.568  -2.609
    8        0.029   0.012   2.568   2.609
    9        0.000   0.000   0.000   0.000
   10        0.000   0.000   0.000   0.000
   11        0.000   0.000   0.000   0.000
   12        0.000   0.000   0.000   0.000
   13        0.000   0.000   0.000   0.000
   14        0.000   0.000   0.000   0.000
   15        0.000   0.000   0.000   0.000
   16        0.000   0.000   0.000   0.000
--------------------------------------------------
tot          0.000   0.000   0.000   0.000
 
    CHARGE:  cpu time      1.0752: real time      1.0821
    FORLOC:  cpu time      0.0033: real time      0.0034
    FORNL :  cpu time      7.1420: real time      7.1784
    STRESS:  cpu time     21.4839: real time     21.5960
    FORCOR:  cpu time      0.0511: real time      0.0513
    FORHAR:  cpu time      0.0070: real time      0.0071
    MIXING:  cpu time      0.0015: real time      0.0015
    OFIELD:  cpu time      0.0000: real time      0.0000
    FORVDW:  cpu time      0.7555: real time      0.7582

  FORCE on cell =-STRESS in cart. coord.  units (eV):
  Direction    XX          YY          ZZ          XY          YZ          ZX
  --------------------------------------------------------------------------------------
  Alpha Z   778.99259   778.99259   778.99259
  Ewald    -625.93834 -1486.58147 -8715.84867     0.00000    -0.00000     0.00000
  Hartree  5778.88355  4974.71192 -1542.19828     0.00000    -0.00000    -0.00000
  E(xc)    -896.51483  -898.38441  -897.72491    -0.00000     0.00000     0.00000
  Local   -6988.06788 -5323.35359  8441.87854     0.00000     0.00000     0.00000
  n-local  -273.13447  -245.88692  -237.79564    -1.03048    -0.20903    -0.66670
  augment   530.93491   516.74575   515.20470     0.00000    -0.00000    -0.00000
  Kinetic  1700.28281  1689.14869  1662.88691     3.39649    -0.27909     0.12162
  Fock        0.00000     0.00000     0.00000     0.00000     0.00000     0.00000
  vdW        -6.09389    -6.17147    -6.30842    -0.00000    -0.00000     0.00000
  -------------------------------------------------------------------------------------
  Total      -0.65555    -0.77891    -0.91318     0.00000     0.00000     0.00000
  in kB      -3.22179    -3.82807    -4.48796     0.00000     0.00000     0.00000
  external pressure =       -3.85 kB  Pullay stress =        0.00 kB


 VOLUME and BASIS-vectors are now :
 -----------------------------------------------------------------------------
  energy-cutoff  :      550.00
  volume of cell :      326.00
      direct lattice vectors                 reciprocal lattice vectors
     4.830261980 -5.794146158 -0.000000000     0.103514054 -0.086293992 -0.000000000
     4.830261980  5.794146158  0.000000000     0.103514054  0.086293992  0.000000000
     0.000000000 -0.000000000  5.824081878     0.000000000 -0.000000000  0.171700883

  length of vectors
     7.543444870  7.543444870  5.824081878     0.134765769  0.134765769  0.171700883


 FORCES acting on ions
    electron-ion (+dipol)            ewald-force                    non-local-force                 convergence-correction
 -----------------------------------------------------------------------------------------------
   -.769E-14 -.101E-12 -.787E-14   -.142E-13 -.107E-12 -.355E-13   0.317E-22 0.273E-21 -.159E-21   0.175E-11 0.747E-12 0.115E-11
   0.625E-12 0.735E-12 0.858E-14   -.660E-14 -.924E-13 -.480E-13   0.281E-21 0.660E-22 0.191E-22   0.738E-12 -.286E-11 0.177E-11
   0.629E-12 -.157E-11 -.121E-10   -.207E-13 -.114E-12 -.568E-13   0.370E-21 0.234E-21 0.139E-21   0.124E-11 -.564E-12 0.225E-11
   -.499E-11 -.972E-11 -.905E-11   -.142E-13 -.103E-12 -.426E-13   -.223E-22 -.215E-22 0.185E-21   0.112E-11 -.347E-12 -.621E-13
   -.264E-11 -.403E-11 -.364E-11   -.153E-13 0.142E-13 0.142E-13   -.163E-22 0.110E-21 0.150E-21   -.141E-11 0.196E-11 0.147E-11
   0.430E-11 0.577E-11 -.430E-11   -.142E-13 0.142E-13 0.213E-13   -.346E-21 -.588E-21 -.339E-22   -.861E-12 0.869E-12 0.216E-11
   -.144E-10 -.297E-10 0.382E-10   -.711E-14 -.107E-13 0.213E-13   -.329E-21 -.148E-21 0.598E-22   -.590E-12 -.108E-11 0.487E-12
   0.971E-12 -.642E-11 0.363E-10   -.210E-13 0.000E+00 0.568E-13   -.278E-22 -.288E-21 0.445E-22   -.909E-12 0.170E-11 0.660E-12
   0.595E-07 -.642E-12 0.351E+03   0.213E-13 0.711E-13 -.352E+03   -.343E-17 -.439E-17 0.110E+01   0.151E-12 0.226E-12 -.781E-01
   0.595E-07 0.262E-12 0.351E+03   0.213E-13 0.497E-13 -.352E+03   0.309E-17 0.481E-17 0.110E+01   -.849E-13 -.268E-12 -.781E-01
   0.595E-07 0.705E-12 0.351E+03   0.213E-13 0.678E-13 -.352E+03   -.215E-17 -.330E-17 0.110E+01   0.490E-14 -.123E-14 -.781E-01
   0.595E-07 0.127E-12 0.351E+03   0.283E-13 0.604E-13 -.352E+03   0.178E-17 0.306E-17 0.110E+01   -.568E-13 0.118E-12 -.781E-01
   -.595E-07 -.174E-12 -.351E+03   0.575E-14 0.397E-13 0.352E+03   -.418E-17 -.520E-18 -.110E+01   0.331E-13 0.703E-13 0.781E-01
   -.595E-07 -.728E-12 -.351E+03   0.859E-14 0.258E-13 0.352E+03   -.224E-17 -.538E-18 -.110E+01   -.464E-13 -.179E-12 0.781E-01
   -.595E-07 -.231E-11 -.351E+03   0.557E-14 0.344E-13 0.352E+03   0.373E-17 -.137E-17 -.110E+01   0.819E-13 -.104E-12 0.781E-01
   -.595E-07 0.117E-11 -.351E+03   0.857E-14 0.243E-13 0.352E+03   0.283E-17 -.789E-18 -.110E+01   -.359E-13 0.137E-12 0.781E-01
 -----------------------------------------------------------------------------------------------
   -.149E-10 -.466E-10 0.341E-10   0.726E-14 -.247E-13 0.171E-12   -.569E-18 -.304E-17 0.666E-15   0.113E-11 0.429E-12 0.766E-11
 
 
 POSITION                                       TOTAL-FORCE (eV/Angst)
 -----------------------------------------------------------------------------------
      0.00000      0.00000      0.00000         0.000000     -0.000000      0.000000
      2.41513      2.89707      0.00000         0.000000     -0.000000      0.000000
      2.41513     -2.89707      0.00000         0.000000     -0.000000      0.000000
      4.83026     -0.00000      0.00000         0.000000     -0.000000      0.000000
      2.41513     -0.00000      0.00000         0.000000     -0.000000      0.000000
      4.83026      2.89707      0.00000         0.000000     -0.000000      0.000000
      4.83026     -2.89707      0.00000         0.000000     -0.000000      0.000000
      7.24539      0.00000      0.00000         0.000000     -0.000000      0.000000
      2.41513     -1.44854      4.04704         0.000000      0.000000     -0.023594
      4.83026      1.44854      4.04704         0.000000      0.000000     -0.023594
      4.83026     -4.34561      4.04704        -0.000000      0.000000     -0.023594
      7.24539     -1.44854      4.04704         0.000000      0.000000     -0.023594
      2.41513      1.44854      1.77704        -0.000000     -0.000000      0.023594
      4.83026      4.34561      1.77704        -0.000000     -0.000000      0.023594
      4.83026     -1.44854      1.77704        -0.000000     -0.000000      0.023594
      7.24539      1.44854      1.77704        -0.000000     -0.000000      0.023594
 -----------------------------------------------------------------------------------
    total drift:                               -0.000000     -0.000000      0.000000


--------------------------------------------------------------------------------------------------------



  FREE ENERGIE OF THE ION-ELECTRON SYSTEM (eV)
  ---------------------------------------------------
  free  energy   TOTEN  =       -98.20277593 eV

  energy  without entropy=      -98.18376430  energy(sigma->0) =      -98.19327012
 
 d Force = 0.9144907E-03[ 0.447E-03, 0.138E-02]  d Energy = 0.4650461E-03 0.449E-03
 d Force = 0.6674210E+01[ 0.667E+01, 0.668E+01]  d Ewald  = 0.3219997E+01 0.345E+01


--------------------------------------------------------------------------------------------------------


    POTLOK:  cpu time      0.3273: real time      0.3284


--------------------------------------------------------------------------------------------------------




--------------------------------------------------------------------------------------------------------


  
 reached required accuracy - stopping structural energy minimisation
     LOOP+:  cpu time    110.9117: real time    111.6166
    4ORBIT:  cpu time      0.0000: real time      0.0000



 total charge

# of ion       s       p       d       tot
------------------------------------------
    1        0.342   6.295   6.058  12.694
    2        0.342   6.295   6.058  12.694
    3        0.342   6.295   6.058  12.694
    4        0.342   6.295   6.058  12.694
    5        0.342   6.295   6.058  12.694
    6        0.342   6.295   6.058  12.694
    7        0.342   6.295   6.058  12.694
    8        0.342   6.295   6.058  12.694
    9        1.486   2.271   0.049   3.805
   10        1.486   2.271   0.049   3.805
   11        1.486   2.271   0.049   3.805
   12        1.486   2.271   0.049   3.805
   13        1.486   2.271   0.049   3.805
   14        1.486   2.271   0.049   3.805
   15        1.486   2.271   0.049   3.805
   16        1.486   2.271   0.049   3.805
--------------------------------------------------
tot         14.617  68.523  48.856 131.995



 magnetization (x)

# of ion       s       p       d       tot
------------------------------------------
    1        0.029   0.012   2.568   2.609
    2       -0.029  -0.012  -2.568  -2.609
    3       -0.029  -0.012  -2.568  -2.609
    4        0.029   0.012   2.568   2.609
    5        0.029   0.012   2.568   2.609
    6       -0.029  -0.012  -2.568  -2.609
    7       -0.029  -0.012  -2.568  -2.609
    8        0.029   0.012   2.568   2.609
    9        0.000   0.000   0.000   0.000
   10        0.000   0.000   0.000   0.000
   11        0.000   0.000   0.000   0.000
   12        0.000   0.000   0.000   0.000
   13        0.000   0.000   0.000   0.000
   14        0.000   0.000   0.000   0.000
   15        0.000   0.000   0.000   0.000
   16        0.000   0.000   0.000   0.000
--------------------------------------------------
tot          0.000   0.000   0.000   0.000
 

 total amount of memory used by VASP MPI-rank0   192682. kBytes
=======================================================================

   base      :      30000. kBytes
   nonlr-proj:      13333. kBytes
   fftplans  :       3084. kBytes
   grid      :      19560. kBytes
   one-center:        497. kBytes
   wavefun   :     126208. kBytes
 
  
  
 General timing and accounting informations for this job:
 ========================================================
  
                  Total CPU time used (sec):      769.497
                            User time (sec):      766.732
                          System time (sec):        2.765
                         Elapsed time (sec):      775.447
  
                   Maximum memory used (kb):      482236.
                   Average memory used (kb):          N/A
  
                          Minor page faults:       263764
                          Major page faults:            0
                 Voluntary context switches:        38949
