       N       E                     dE             d eps       ncg     rms          rms(c)
DAV:   1     0.195156316000E+04    0.19516E+04   -0.70228E+04 89736   0.192E+03
DAV:   2     0.162377005597E+03   -0.17892E+04   -0.16715E+04 80640   0.559E+02
DAV:   3    -0.814947296861E+02   -0.24387E+03   -0.20211E+03 82208   0.218E+02
DAV:   4    -0.939895722368E+02   -0.12495E+02   -0.12303E+02 89072   0.591E+01
DAV:   5    -0.941942913039E+02   -0.20472E+00   -0.20464E+00110120   0.727E+00    0.437E+01
DAV:   6    -0.952400034359E+02   -0.10457E+01   -0.37136E+01110648   0.853E+01    0.588E+01
DAV:   7    -0.839172047552E+02    0.11323E+02   -0.21482E+01 99864   0.634E+01    0.307E+01
DAV:   8    -0.903866815615E+02   -0.64695E+01   -0.18534E+01 99152   0.608E+01    0.415E+01
DAV:   9    -0.855423866891E+02    0.48443E+01   -0.10590E+01101960   0.445E+01    0.280E+01
DAV:  10    -0.859009865686E+02   -0.35860E+00   -0.42863E+00 97168   0.242E+01    0.237E+01
DAV:  11    -0.869733984295E+02   -0.10724E+01   -0.19163E+00 92192   0.203E+01    0.100E+01
DAV:  12    -0.869987949129E+02   -0.25396E-01   -0.10841E+00 92232   0.145E+01    0.690E+00
DAV:  13    -0.869468864574E+02    0.51908E-01   -0.47749E-01 95216   0.930E+00    0.346E+00
DAV:  14    -0.869034534084E+02    0.43433E-01   -0.15321E-01102848   0.484E+00    0.167E+00
DAV:  15    -0.868965854179E+02    0.68680E-02   -0.93583E-02 91720   0.330E+00    0.140E+00
DAV:  16    -0.868939071317E+02    0.26783E-02   -0.25971E-02 92048   0.252E+00    0.791E-01
DAV:  17    -0.868953411562E+02   -0.14340E-02   -0.16766E-02 99016   0.175E+00    0.770E-01
DAV:  18    -0.868939739316E+02    0.13672E-02   -0.97279E-03 93136   0.130E+00    0.320E-01
DAV:  19    -0.868934532841E+02    0.52065E-03   -0.20462E-03 93512   0.398E-01    0.116E-01
DAV:  20    -0.868937178747E+02   -0.26459E-03   -0.67492E-04 92136   0.262E-01    0.179E-01
DAV:  21    -0.868935574317E+02    0.16044E-03   -0.15479E-04 95984   0.146E-01    0.750E-02
DAV:  22    -0.868935269006E+02    0.30531E-04   -0.50266E-05 86456   0.677E-02    0.287E-02
DAV:  23    -0.868935103127E+02    0.16588E-04   -0.15758E-05 67592   0.310E-02    0.232E-02
DAV:  24    -0.868935104265E+02   -0.11380E-06   -0.14244E-06 45064   0.125E-02
   1 F= -.86893510E+02 E0= -.86893510E+02  d E =0.000000E+00  mag=    12.3213
