       N       E                     dE             d eps       ncg     rms          rms(c)
DAV:   1    -0.143860424543E+02   -0.14386E+02   -0.49769E+03  7168   0.741E+01
DAV:   2    -0.151467829325E+02   -0.76074E+00   -0.74994E+00  7552   0.280E+00
DAV:   3    -0.151469095976E+02   -0.12667E-03   -0.12408E-03  5888   0.408E-02
DAV:   4    -0.151469095999E+02   -0.23647E-08   -0.19887E-08  9472   0.143E-04
DAV:   5    -0.151469095995E+02    0.40126E-09   -0.32600E-12  5888   0.245E-08    0.260E+00
DAV:   6    -0.150958479385E+02    0.51062E-01   -0.64257E-03  6016   0.480E-02    0.151E+00
DAV:   7    -0.150585766617E+02    0.37271E-01   -0.18371E-02  6528   0.758E-02    0.269E-01
DAV:   8    -0.150584686917E+02    0.10797E-03   -0.30727E-05  6016   0.314E-03    0.379E-02
DAV:   9    -0.150584621554E+02    0.65363E-05   -0.37515E-06  8576   0.115E-03    0.129E-03
DAV:  10    -0.150584611837E+02    0.97167E-06   -0.60683E-09  6016   0.597E-05
   1 F= -.15058461E+02 E0= -.15058461E+02  d E =0.000000E+00
