 vasp.6.4.3 19Mar24 (build Mar 26 2024 14:05:37) complex                        
  
 executed on             LinuxIFC date 2025.01.02  09:29:06
 running  128 mpi-ranks, on    1 nodes
 distrk:  each k-point on  128 cores,    1 groups
 distr:  one band on NCORE=   1 cores,  128 groups


--------------------------------------------------------------------------------------------------------


 INCAR:
   EDIFF = 1e-06
   EDIFFG = -0.01
   ENCUT = 520
   GGA = Pe
   IBRION = -1
   ISIF = 2
   ISMEAR = -5
   LCHARG = False
   LREAL = False
   LWAVE = False
   NELM = 200
   NSW = 0
   PREC = Accurate
   SIGMA = 0.2

 POTCAR:    PAW_PBE Al 04Jan2001                  
 -----------------------------------------------------------------------------
|                                                                             |
|           W    W    AA    RRRRR   N    N  II  N    N   GGGG   !!!           |
|           W    W   A  A   R    R  NN   N  II  NN   N  G    G  !!!           |
|           W    W  A    A  R    R  N N  N  II  N N  N  G       !!!           |
|           W WW W  AAAAAA  RRRRR   N  N N  II  N  N N  G  GGG   !            |
|           WW  WW  A    A  R   R   N   NN  II  N   NN  G    G                |
|           W    W  A    A  R    R  N    N  II  N    N   GGGG   !!!           |
|                                                                             |
|     For optimal performance we recommend to set                             |
|       NCORE = 2 up to number-of-cores-per-socket                            |
|     NCORE specifies how many cores store one orbital (NPAR=cpu/NCORE).      |
|     This setting can greatly improve the performance of VASP for DFT.       |
|     The default, NCORE=1 might be grossly inefficient on modern             |
|     multi-core architectures or massively parallel machines. Do your        |
|     own testing! More info at https://www.vasp.at/wiki/index.php/NCORE      |
|     Unfortunately you need to use the default for GW and RPA                |
|     calculations (for HF NCORE is supported but not extensively tested      |
|     yet).                                                                   |
|                                                                             |
 -----------------------------------------------------------------------------

 POTCAR:    PAW_PBE Al 04Jan2001                  
   SHA256 =  17880443556af62b473fe41b62a467bd001ad55d2cabe504a3f22e34d4e9db96 Al/POTCAR             
   COPYR  = (c) Copyright 04Jan2001 Georg Kresse                                                    
   COPYR  = This file is part of the software VASP. Any use, copying, and all other rights are regul
   COPYR  = If you do not have a valid VASP license, you may not use, copy or distribute this file. 
   VRHFIN =Al: s2p1                                                                                 
   LEXCH  = PE                                                                                      
   EATOM  =    53.5387 eV,    3.9350 Ry                                                             
                                                                                                    
   TITEL  = PAW_PBE Al 04Jan2001                                                                    
   LULTRA =        F    use ultrasoft PP ?                                                          
   IUNSCR =        1    unscreen: 0-lin 1-nonlin 2-no                                               
   RPACOR =    1.500    partial core radius                                                         
   POMASS =   26.981; ZVAL   =    3.000    mass and valenz                                          
   RCORE  =    1.900    outmost cutoff radius                                                       
   RWIGS  =    2.650; RWIGS  =    1.402    wigner-seitz radius (au A)                               
   ENMAX  =  240.300; ENMIN  =  180.225 eV                                                          
   ICORE  =        2    local potential                                                             
   LCOR   =        T    correct aug charges                                                         
   LPAW   =        T    paw PP                                                                      
   EAUG   =  291.052                                                                                
   DEXC   =    0.000                                                                                
   RMAX   =    1.939    core radius for proj-oper                                                   
   RAUG   =    1.300    factor for augmentation sphere                                              
   RDEP   =    1.966    radius for radial grids                                                     
   RDEPT  =    1.856    core radius for aug-charge                                                  
                                                                                                    
   Atomic configuration                                                                             
    6 entries                                                                                       
     n  l   j            E        occ.                                                              
     1  0  0.50     -1511.1048   2.0000                                                             
     2  0  0.50      -108.1629   2.0000                                                             
     2  1  1.50       -69.6402   6.0000                                                             
     3  0  0.50        -7.7528   2.0000                                                             
     3  1  1.50        -2.7121   1.0000                                                             
     3  2  2.50        -2.7212   0.0000                                                             
   Description                                                                                      
     l       E           TYP  RCUT    TYP  RCUT                                                     
     0     -7.7528455     23  1.900                                                                 
     0     -3.3096929     23  1.900                                                                 
     1     -2.7120682     23  1.900                                                                 
     1     13.6058260     23  1.900                                                                 
     2     -2.7211652      7  1.900                                                                 
  local pseudopotential read in
  partial core-charges read in
  partial kinetic energy density read in
  atomic valenz-charges read in
  non local Contribution for L=           0  read in
    real space projection operators read in
  non local Contribution for L=           0  read in
    real space projection operators read in
  non local Contribution for L=           1  read in
    real space projection operators read in
  non local Contribution for L=           1  read in
    real space projection operators read in
    PAW grid and wavefunctions read in
 
   number of l-projection  operators is LMAX  =           4
   number of lm-projection operators is LMMAX =           8
 
  PAW_PBE Al 04Jan2001                  :
 energy of atom  1       EATOM=  -53.5387
 kinetic energy error for atom=    0.0002 (will be added to EATOM!!)
 
 
 POSCAR: Al4
  positions in direct lattice
  velocities in cartesian coordinates


 exchange-correlation table for PE
   RHO(1)=    0.500       N(1)  =     2000
   RHO(2)=  100.500       N(2)  =     4000
 


--------------------------------------------------------------------------------------------------------


 ion  position               nearest neighbor table
   1  0.000  0.000  0.000-   2 2.86   3 2.86   2 2.86   3 2.86   2 2.86   4 2.86   2 2.86   3 2.86
                             4 2.86   3 2.86   4 2.86   4 2.86
   2  0.000  0.500  0.500-   1 2.86   4 2.86   1 2.86   4 2.86   1 2.86   3 2.86   1 2.86   3 2.86
                             4 2.86   4 2.86   3 2.86   3 2.86
   3  0.500  0.000  0.500-   1 2.86   4 2.86   1 2.86   4 2.86   2 2.86   4 2.86   4 2.86   1 2.86
                             2 2.86   1 2.86   2 2.86   2 2.86
   4  0.500  0.500  0.000-   2 2.86   3 2.86   2 2.86   3 2.86   1 2.86   3 2.86   3 2.86   1 2.86
                             2 2.86   2 2.86   1 2.86   1 2.86
 
  LATTYP: Found a simple cubic cell.
 ALAT       =     4.0436897231
  
  Lattice vectors:
  
 A1 = (   4.0436897231,   0.0000000000,   0.0000000000)
 A2 = (   0.0000000000,   4.0436897231,   0.0000000000)
 A3 = (   0.0000000000,   0.0000000000,   4.0436897231)


Analysis of symmetry for initial positions (statically):
=====================================================================
 Subroutine PRICEL returns following result:
 
  LATTYP: Found a face centered cubic cell.
 ALAT       =     4.0436897231
  
  Lattice vectors:
  
 A1 = (   2.0218448615,  -2.0218448615,   0.0000000000)
 A2 = (   2.0218448615,   0.0000000000,   2.0218448615)
 A3 = (  -0.0000000000,  -2.0218448615,   2.0218448615)
 
   4 primitive cells build up your supercell.
 

 Routine SETGRP: Setting up the symmetry group for a 
 simple cubic supercell.


 Subroutine GETGRP returns: Found 48 space group operations
 (whereof 48 operations were pure point group operations)
 out of a pool of 48 trial point group operations.


The static configuration has the point symmetry O_h .


Analysis of symmetry for dynamics (positions and initial velocities):
=====================================================================
 Subroutine PRICEL returns following result:
 
  LATTYP: Found a face centered cubic cell.
 ALAT       =     4.0436897231
  
  Lattice vectors:
  
 A1 = (   2.0218448615,  -2.0218448615,   0.0000000000)
 A2 = (   2.0218448615,   0.0000000000,   2.0218448615)
 A3 = (  -0.0000000000,  -2.0218448615,   2.0218448615)
 
   4 primitive cells build up your supercell.
 

 Routine SETGRP: Setting up the symmetry group for a 
 simple cubic supercell.


 Subroutine GETGRP returns: Found 48 space group operations
 (whereof 48 operations were pure point group operations)
 out of a pool of 48 trial point group operations.


The dynamic configuration has the point symmetry O_h .


 Subroutine INISYM returns: Found 48 space group operations
 (whereof 48 operations are pure point group operations),
 and found     4 'primitive' translations


----------------------------------------------------------------------------------------

                                     Primitive cell                                     

  volume of cell :      16.5300

  direct lattice vectors                    reciprocal lattice vectors
     2.021844862 -2.021844862  0.000000000     0.247298895 -0.247298895 -0.247298895
     2.021844862  0.000000000  2.021844862     0.247298895  0.247298895  0.247298895
    -0.000000000 -2.021844862  2.021844862    -0.247298895 -0.247298895  0.247298895

  length of vectors
     2.859320424  2.859320424  2.859320424     0.428334251  0.428334251  0.428334251

  position of ions in fractional coordinates (direct lattice)
     0.000000000  0.000000000  0.000000000

  ion indices of the primitive-cell ions
   primitive index   ion index
                 1           1

----------------------------------------------------------------------------------------

 
 
 KPOINTS: pymatgen with grid density = 8000 / numb

Automatic generation of k-mesh.
 Grid dimensions read from file:
 generate k-points for:   12   12   12

 Generating k-lattice:

  Cartesian coordinates                     Fractional coordinates (reciprocal lattice)
     0.020608241 -0.000000000  0.000000000     0.083333333 -0.000000000  0.000000000
     0.000000000  0.020608241  0.000000000     0.000000000  0.083333333  0.000000000
    -0.000000000 -0.000000000  0.020608241     0.000000000  0.000000000  0.083333333

  Length of vectors
     0.020608241  0.020608241  0.020608241

  Shift w.r.t. Gamma in fractional coordinates (k-lattice)
     0.000000000  0.000000000  0.000000000

 TETIRR: Found    854 inequivalent tetrahedra from    10368
 
 Subroutine IBZKPT returns following result:
 ===========================================
 
 Found     84 irreducible k-points:
 
 Following reciprocal coordinates:
            Coordinates               Weight
  0.000000  0.000000  0.000000      1.000000
  0.083333  0.000000  0.000000      6.000000
  0.166667  0.000000  0.000000      6.000000
  0.250000  0.000000  0.000000      6.000000
  0.333333  0.000000  0.000000      6.000000
  0.416667  0.000000  0.000000      6.000000
  0.500000  0.000000  0.000000      3.000000
  0.083333  0.083333  0.000000     12.000000
  0.166667  0.083333  0.000000     24.000000
  0.250000  0.083333  0.000000     24.000000
  0.333333  0.083333  0.000000     24.000000
  0.416667  0.083333  0.000000     24.000000
  0.500000  0.083333  0.000000     12.000000
  0.166667  0.166667  0.000000     12.000000
  0.250000  0.166667  0.000000     24.000000
  0.333333  0.166667  0.000000     24.000000
  0.416667  0.166667  0.000000     24.000000
  0.500000  0.166667  0.000000     12.000000
  0.250000  0.250000  0.000000     12.000000
  0.333333  0.250000  0.000000     24.000000
  0.416667  0.250000  0.000000     24.000000
  0.500000  0.250000  0.000000     12.000000
  0.333333  0.333333  0.000000     12.000000
  0.416667  0.333333  0.000000     24.000000
  0.500000  0.333333  0.000000     12.000000
  0.416667  0.416667  0.000000     12.000000
  0.500000  0.416667  0.000000     12.000000
  0.500000  0.500000  0.000000      3.000000
  0.083333  0.083333  0.083333      8.000000
  0.166667  0.083333  0.083333     24.000000
  0.250000  0.083333  0.083333     24.000000
  0.333333  0.083333  0.083333     24.000000
  0.416667  0.083333  0.083333     24.000000
  0.500000  0.083333  0.083333     12.000000
  0.166667  0.166667  0.083333     24.000000
  0.250000  0.166667  0.083333     48.000000
  0.333333  0.166667  0.083333     48.000000
  0.416667  0.166667  0.083333     48.000000
  0.500000  0.166667  0.083333     24.000000
  0.250000  0.250000  0.083333     24.000000
  0.333333  0.250000  0.083333     48.000000
  0.416667  0.250000  0.083333     48.000000
  0.500000  0.250000  0.083333     24.000000
  0.333333  0.333333  0.083333     24.000000
  0.416667  0.333333  0.083333     48.000000
  0.500000  0.333333  0.083333     24.000000
  0.416667  0.416667  0.083333     24.000000
  0.500000  0.416667  0.083333     24.000000
  0.500000  0.500000  0.083333      6.000000
  0.166667  0.166667  0.166667      8.000000
  0.250000  0.166667  0.166667     24.000000
  0.333333  0.166667  0.166667     24.000000
  0.416667  0.166667  0.166667     24.000000
  0.500000  0.166667  0.166667     12.000000
  0.250000  0.250000  0.166667     24.000000
  0.333333  0.250000  0.166667     48.000000
  0.416667  0.250000  0.166667     48.000000
  0.500000  0.250000  0.166667     24.000000
  0.333333  0.333333  0.166667     24.000000
  0.416667  0.333333  0.166667     48.000000
  0.500000  0.333333  0.166667     24.000000
  0.416667  0.416667  0.166667     24.000000
  0.500000  0.416667  0.166667     24.000000
  0.500000  0.500000  0.166667      6.000000
  0.250000  0.250000  0.250000      8.000000
  0.333333  0.250000  0.250000     24.000000
  0.416667  0.250000  0.250000     24.000000
  0.500000  0.250000  0.250000     12.000000
  0.333333  0.333333  0.250000     24.000000
  0.416667  0.333333  0.250000     48.000000
  0.500000  0.333333  0.250000     24.000000
  0.416667  0.416667  0.250000     24.000000
  0.500000  0.416667  0.250000     24.000000
  0.500000  0.500000  0.250000      6.000000
  0.333333  0.333333  0.333333      8.000000
  0.416667  0.333333  0.333333     24.000000
  0.500000  0.333333  0.333333     12.000000
  0.416667  0.416667  0.333333     24.000000
  0.500000  0.416667  0.333333     24.000000
  0.500000  0.500000  0.333333      6.000000
  0.416667  0.416667  0.416667      8.000000
  0.500000  0.416667  0.416667     12.000000
  0.500000  0.500000  0.416667      6.000000
  0.500000  0.500000  0.500000      1.000000
 
 Following cartesian coordinates:
            Coordinates               Weight
  0.000000  0.000000  0.000000      1.000000
  0.020608  0.000000  0.000000      6.000000
  0.041216  0.000000  0.000000      6.000000
  0.061825  0.000000  0.000000      6.000000
  0.082433  0.000000  0.000000      6.000000
  0.103041  0.000000  0.000000      6.000000
  0.123649  0.000000  0.000000      3.000000
  0.020608  0.020608  0.000000     12.000000
  0.041216  0.020608  0.000000     24.000000
  0.061825  0.020608  0.000000     24.000000
  0.082433  0.020608  0.000000     24.000000
  0.103041  0.020608  0.000000     24.000000
  0.123649  0.020608  0.000000     12.000000
  0.041216  0.041216  0.000000     12.000000
  0.061825  0.041216  0.000000     24.000000
  0.082433  0.041216  0.000000     24.000000
  0.103041  0.041216  0.000000     24.000000
  0.123649  0.041216  0.000000     12.000000
  0.061825  0.061825  0.000000     12.000000
  0.082433  0.061825  0.000000     24.000000
  0.103041  0.061825  0.000000     24.000000
  0.123649  0.061825  0.000000     12.000000
  0.082433  0.082433  0.000000     12.000000
  0.103041  0.082433  0.000000     24.000000
  0.123649  0.082433  0.000000     12.000000
  0.103041  0.103041  0.000000     12.000000
  0.123649  0.103041  0.000000     12.000000
  0.123649  0.123649  0.000000      3.000000
  0.020608  0.020608  0.020608      8.000000
  0.041216  0.020608  0.020608     24.000000
  0.061825  0.020608  0.020608     24.000000
  0.082433  0.020608  0.020608     24.000000
  0.103041  0.020608  0.020608     24.000000
  0.123649  0.020608  0.020608     12.000000
  0.041216  0.041216  0.020608     24.000000
  0.061825  0.041216  0.020608     48.000000
  0.082433  0.041216  0.020608     48.000000
  0.103041  0.041216  0.020608     48.000000
  0.123649  0.041216  0.020608     24.000000
  0.061825  0.061825  0.020608     24.000000
  0.082433  0.061825  0.020608     48.000000
  0.103041  0.061825  0.020608     48.000000
  0.123649  0.061825  0.020608     24.000000
  0.082433  0.082433  0.020608     24.000000
  0.103041  0.082433  0.020608     48.000000
  0.123649  0.082433  0.020608     24.000000
  0.103041  0.103041  0.020608     24.000000
  0.123649  0.103041  0.020608     24.000000
  0.123649  0.123649  0.020608      6.000000
  0.041216  0.041216  0.041216      8.000000
  0.061825  0.041216  0.041216     24.000000
  0.082433  0.041216  0.041216     24.000000
  0.103041  0.041216  0.041216     24.000000
  0.123649  0.041216  0.041216     12.000000
  0.061825  0.061825  0.041216     24.000000
  0.082433  0.061825  0.041216     48.000000
  0.103041  0.061825  0.041216     48.000000
  0.123649  0.061825  0.041216     24.000000
  0.082433  0.082433  0.041216     24.000000
  0.103041  0.082433  0.041216     48.000000
  0.123649  0.082433  0.041216     24.000000
  0.103041  0.103041  0.041216     24.000000
  0.123649  0.103041  0.041216     24.000000
  0.123649  0.123649  0.041216      6.000000
  0.061825  0.061825  0.061825      8.000000
  0.082433  0.061825  0.061825     24.000000
  0.103041  0.061825  0.061825     24.000000
  0.123649  0.061825  0.061825     12.000000
  0.082433  0.082433  0.061825     24.000000
  0.103041  0.082433  0.061825     48.000000
  0.123649  0.082433  0.061825     24.000000
  0.103041  0.103041  0.061825     24.000000
  0.123649  0.103041  0.061825     24.000000
  0.123649  0.123649  0.061825      6.000000
  0.082433  0.082433  0.082433      8.000000
  0.103041  0.082433  0.082433     24.000000
  0.123649  0.082433  0.082433     12.000000
  0.103041  0.103041  0.082433     24.000000
  0.123649  0.103041  0.082433     24.000000
  0.123649  0.123649  0.082433      6.000000
  0.103041  0.103041  0.103041      8.000000
  0.123649  0.103041  0.103041     12.000000
  0.123649  0.123649  0.103041      6.000000
  0.123649  0.123649  0.123649      1.000000
 


--------------------------------------------------------------------------------------------------------




 Dimension of arrays:
   k-points           NKPTS =     84   k-points in BZ     NKDIM =     84   number of bands    NBANDS=    128
   number of dos      NEDOS =    301   number of ions     NIONS =      4
   non local maximal  LDIM  =      4   non local SUM 2l+1 LMDIM =      8
   total plane-waves  NPLWV =  27000
   max r-space proj   IRMAX =      1   max aug-charges    IRDMAX=  16090
   dimension x,y,z NGX =    30 NGY =   30 NGZ =   30
   dimension x,y,z NGXF=    60 NGYF=   60 NGZF=   60
   support grid    NGXF=    60 NGYF=   60 NGZF=   60
   ions per type =               4
   NGX,Y,Z   is equivalent  to a cutoff of  12.33, 12.33, 12.33 a.u.
   NGXF,Y,Z  is equivalent  to a cutoff of  24.67, 24.67, 24.67 a.u.

 SYSTEM =  unknown system                          
 POSCAR =  Al4                                     

 Startparameter for this run:
   NWRITE =      2    write-flag & timer
   PREC   = accura    normal or accurate (medium, high low for compatibility)
   ISTART =      0    job   : 0-new  1-cont  2-samecut
   ICHARG =      2    charge: 1-file 2-atom 10-const
   ISPIN  =      1    spin polarized calculation?
   LNONCOLLINEAR =      F non collinear calculations
   LSORBIT =      F    spin-orbit coupling
   INIWAV =      1    electr: 0-lowe 1-rand  2-diag
   LASPH  =      F    aspherical Exc in radial PAW
 Electronic Relaxation 1
   ENCUT  =  520.0 eV  38.22 Ry    6.18 a.u.   7.52  7.52  7.52*2*pi/ulx,y,z
   ENINI  =  520.0     initial cutoff
   ENAUG  =  291.1 eV  augmentation charge cutoff
   NELM   =    200;   NELMIN=  2; NELMDL=  0     # of ELM steps 
   EDIFF  = 0.1E-05   stopping-criterion for ELM
   LREAL  =      F    real-space projection
   NLSPLINE    = F    spline interpolate recip. space projectors
   LCOMPAT=      F    compatible to vasp.4.4
   GGA_COMPAT  = T    GGA compatible to vasp.4.4-vasp.4.6
   LMAXPAW     = -100 max onsite density
   LMAXMIX     =    2 max onsite mixed and CHGCAR
   VOSKOWN=      0    Vosko Wilk Nusair interpolation
   ROPT   =    0.00000
 Ionic relaxation
   EDIFFG = -.1E-01   stopping-criterion for IOM
   NSW    =      0    number of steps for IOM
   NBLOCK =      1;   KBLOCK =      1    inner block; outer block 
   IBRION =     -1    ionic relax: 0-MD 1-quasi-New 2-CG
   NFREE  =      0    steps in history (QN), initial steepest desc. (CG)
   ISIF   =      2    stress and relaxation
   IWAVPR =     10    prediction:  0-non 1-charg 2-wave 3-comb
   ISYM   =      2    0-nonsym 1-usesym 2-fastsym
   LCORR  =      T    Harris-Foulkes like correction to forces

   POTIM  = 0.5000    time-step for ionic-motion
   TEIN   =    0.0    initial temperature
   TEBEG  =    0.0;   TEEND  =   0.0 temperature during run
   SMASS  =  -3.00    Nose mass-parameter (am)
   estimated Nose-frequenzy (Omega)   =  0.10E-29 period in steps = 0.13E+47 mass=  -0.374E-27a.u.
   SCALEE = 1.0000    scale energy and forces
   NPACO  =    256;   APACO  = 10.0  distance and # of slots for P.C.
   PSTRESS=    0.0 pullay stress

  Mass of Ions in am
   POMASS =  26.98
  Ionic Valenz
   ZVAL   =   3.00
  Atomic Wigner-Seitz radii
   RWIGS  =  -1.00
  virtual crystal weights 
   VCA    =   1.00
   NELECT =      12.0000    total number of electrons
   NUPDOWN=      -1.0000    fix difference up-down

 DOS related values:
   EMIN   =  10.00;   EMAX   =-10.00  energy-range for DOS
   EFERMI =   0.00;   METHOD = LEGACY      
   ISMEAR =    -5;   SIGMA  =   0.20  broadening in eV -4-tet -1-fermi 0-gaus

 Electronic relaxation 2 (details)
   IALGO  =     38    algorithm
   LDIAG  =      T    sub-space diagonalisation (order eigenvalues)
   LSUBROT=      F    optimize rotation matrix (better conditioning)
   TURBO    =      0    0=normal 1=particle mesh
   IRESTART =      0    0=no restart 2=restart with 2 vectors
   NREBOOT  =      0    no. of reboots
   NMIN     =      0    reboot dimension
   EREF     =   0.00    reference energy to select bands
   IMIX   =      4    mixing-type and parameters
     AMIX     =   0.40;   BMIX     =  1.00
     AMIX_MAG =   1.60;   BMIX_MAG =  1.00
     AMIN     =   0.10
     WC   =   100.;   INIMIX=   1;  MIXPRE=   1;  MAXMIX= -45

 Intra band minimization:
   WEIMIN = 0.0000     energy-eigenvalue tresh-hold
   EBREAK =  0.20E-08  absolut break condition
   DEPER  =   0.30     relativ break condition  

   TIME   =   0.40     timestep for ELM

  volume/ion in A,a.u.               =      16.53       111.55
  Fermi-wavevector in a.u.,A,eV,Ry     =   0.926881  1.751552 11.688885  0.859109
  Thomas-Fermi vector in A             =   2.052891
 
 Write flags
   LWAVE        =      F    write WAVECAR
   LDOWNSAMPLE  =      F    k-point downsampling of WAVECAR
   LCHARG       =      F    write CHGCAR
   LVTOT        =      F    write LOCPOT, total local potential
   LVHAR        =      F    write LOCPOT, Hartree potential only
   WRT_POTENTIAL= false  ! write potential to hdf5 file
   LELF         =      F    write electronic localiz. function (ELF)
   LORBIT       =      0    0 simple, 1 ext, 2 COOP (PROOUT), +10 PAW based schemes


 Dipole corrections
   LMONO      =      F    monopole corrections only (constant potential shift)
   LDIPOL     =      F    correct potential (dipole corrections)
   IDIPOL     =      0    1-x, 2-y, 3-z, 4-all directions 
   EPSILON    =  1.0000000 bulk dielectric constant
   LVACPOTAV  =      F  vacuum potentials using an averaging scheme for the charge density
   VACPOTFLAT =  0.1000000 required flatness to determine vacuum potential
 Exchange correlation treatment:
   GGA     = PE    functional components
   XC_C    = 1    coefficients multiplying the functional components
   LIBXC   =     F    Libxc                    
   VOSKOWN =     0    Vosko Wilk Nusair interpolation
   LHFCALC =     F    Hartree Fock is set to
   LHFONE  =     F    Hartree Fock one center treatment
   AEXX    =    0.0000 exact exchange contribution

 Parameters of functionals:
   PE:
     No parameter
 
 Van der Waals corrections
   IVDW    =     0    specifies the selected vdW correction

 Linear response parameters
   LEPSILON=     F    determine dielectric tensor
   LRPA    =     F    only Hartree local field effects (RPA)
   LNABLA  =     F    use nabla operator in PAW spheres
   LVEL    =     F    velocity operator in full k-point grid
   CSHIFT  =0.1000    complex shift for real part using Kramers Kronig
   OMEGAMAX=  -1.0    maximum frequency
   DEG_THRESHOLD= 0.2000000E-02 threshold for treating states as degnerate
   RTIME   =   -0.100 relaxation time in fs
  (WPLASMAI=    0.000 imaginary part of plasma frequency in eV, 0.658/RTIME)
   DFIELD  = 0.0000000 0.0000000 0.0000000 field for delta impulse in time
 
  Optional k-point grid parameters
   LKPOINTS_OPT  =     F    use optional k-point grid
   KPOINTS_OPT_MODE=     1    mode for optional k-point grid
 
 Orbital magnetization related:
   ORBITALMAG=     F  switch on orbital magnetization
   LCHIMAG   =     F  perturbation theory with respect to B field
   DQ        =  0.001000  dq finite difference perturbation B field
   LLRAUG    =     F  two centre corrections for induced B field
   LBONE     =     F  B-component reconstruction in AE one-centre
   LVGVCALC  =     T  calculate vGv susceptibility
   LVGVAPPL  =     F  apply vGv susceptibility instead of pGv for G=0

 Random number generation:
   RANDOM_GENERATOR = DEFAULT
   PCG_SEED         = not used


--------------------------------------------------------------------------------------------------------


 Static calculation
 charge density and potential will be updated during run
 non-spin polarized calculation
 Variant of blocked Davidson
 Davidson routine will perform the subspace rotation
 perform sub-space diagonalisation
    after iterative eigenvector-optimisation
 modified Broyden-mixing scheme, WC =      100.0
 initial mixing is a Kerker type mixing with AMIX =  0.4000 and BMIX =      1.0000
 Hartree-type preconditioning will be used
 using additional bands          122
 reciprocal scheme for non local part
 use partial core corrections
 calculate Harris-corrections to forces 
   (improved forces if not selfconsistent)
 use gradient corrections 
 use of overlap-Matrix (Vanderbilt PP)
 Fermi weights with tetrahedron method with Bloechl corrections


--------------------------------------------------------------------------------------------------------


  energy-cutoff  :      520.00
  volume of cell :       66.12
      direct lattice vectors                 reciprocal lattice vectors
     4.043689723  0.000000000  0.000000000     0.247298895 -0.000000000  0.000000000
     0.000000000  4.043689723  0.000000000     0.000000000  0.247298895  0.000000000
     0.000000000  0.000000000  4.043689723    -0.000000000 -0.000000000  0.247298895

  length of vectors
     4.043689723  4.043689723  4.043689723     0.247298895  0.247298895  0.247298895


 
 k-points in units of 2pi/SCALE and weight: pymatgen with grid density = 8000 / numb
   0.00000000  0.00000000  0.00000000       0.001
   0.02060824  0.00000000  0.00000000       0.003
   0.04121648  0.00000000  0.00000000       0.003
   0.06182472  0.00000000  0.00000000       0.003
   0.08243296  0.00000000  0.00000000       0.003
   0.10304121  0.00000000  0.00000000       0.003
   0.12364945  0.00000000  0.00000000       0.002
   0.02060824  0.02060824  0.00000000       0.007
   0.04121648  0.02060824  0.00000000       0.014
   0.06182472  0.02060824  0.00000000       0.014
   0.08243296  0.02060824  0.00000000       0.014
   0.10304121  0.02060824  0.00000000       0.014
   0.12364945  0.02060824  0.00000000       0.007
   0.04121648  0.04121648  0.00000000       0.007
   0.06182472  0.04121648  0.00000000       0.014
   0.08243296  0.04121648  0.00000000       0.014
   0.10304121  0.04121648  0.00000000       0.014
   0.12364945  0.04121648  0.00000000       0.007
   0.06182472  0.06182472  0.00000000       0.007
   0.08243296  0.06182472  0.00000000       0.014
   0.10304121  0.06182472  0.00000000       0.014
   0.12364945  0.06182472  0.00000000       0.007
   0.08243296  0.08243296  0.00000000       0.007
   0.10304121  0.08243296  0.00000000       0.014
   0.12364945  0.08243296  0.00000000       0.007
   0.10304121  0.10304121  0.00000000       0.007
   0.12364945  0.10304121  0.00000000       0.007
   0.12364945  0.12364945  0.00000000       0.002
   0.02060824  0.02060824  0.02060824       0.005
   0.04121648  0.02060824  0.02060824       0.014
   0.06182472  0.02060824  0.02060824       0.014
   0.08243296  0.02060824  0.02060824       0.014
   0.10304121  0.02060824  0.02060824       0.014
   0.12364945  0.02060824  0.02060824       0.007
   0.04121648  0.04121648  0.02060824       0.014
   0.06182472  0.04121648  0.02060824       0.028
   0.08243296  0.04121648  0.02060824       0.028
   0.10304121  0.04121648  0.02060824       0.028
   0.12364945  0.04121648  0.02060824       0.014
   0.06182472  0.06182472  0.02060824       0.014
   0.08243296  0.06182472  0.02060824       0.028
   0.10304121  0.06182472  0.02060824       0.028
   0.12364945  0.06182472  0.02060824       0.014
   0.08243296  0.08243296  0.02060824       0.014
   0.10304121  0.08243296  0.02060824       0.028
   0.12364945  0.08243296  0.02060824       0.014
   0.10304121  0.10304121  0.02060824       0.014
   0.12364945  0.10304121  0.02060824       0.014
   0.12364945  0.12364945  0.02060824       0.003
   0.04121648  0.04121648  0.04121648       0.005
   0.06182472  0.04121648  0.04121648       0.014
   0.08243296  0.04121648  0.04121648       0.014
   0.10304121  0.04121648  0.04121648       0.014
   0.12364945  0.04121648  0.04121648       0.007
   0.06182472  0.06182472  0.04121648       0.014
   0.08243296  0.06182472  0.04121648       0.028
   0.10304121  0.06182472  0.04121648       0.028
   0.12364945  0.06182472  0.04121648       0.014
   0.08243296  0.08243296  0.04121648       0.014
   0.10304121  0.08243296  0.04121648       0.028
   0.12364945  0.08243296  0.04121648       0.014
   0.10304121  0.10304121  0.04121648       0.014
   0.12364945  0.10304121  0.04121648       0.014
   0.12364945  0.12364945  0.04121648       0.003
   0.06182472  0.06182472  0.06182472       0.005
   0.08243296  0.06182472  0.06182472       0.014
   0.10304121  0.06182472  0.06182472       0.014
   0.12364945  0.06182472  0.06182472       0.007
   0.08243296  0.08243296  0.06182472       0.014
   0.10304121  0.08243296  0.06182472       0.028
   0.12364945  0.08243296  0.06182472       0.014
   0.10304121  0.10304121  0.06182472       0.014
   0.12364945  0.10304121  0.06182472       0.014
   0.12364945  0.12364945  0.06182472       0.003
   0.08243296  0.08243296  0.08243296       0.005
   0.10304121  0.08243296  0.08243296       0.014
   0.12364945  0.08243296  0.08243296       0.007
   0.10304121  0.10304121  0.08243296       0.014
   0.12364945  0.10304121  0.08243296       0.014
   0.12364945  0.12364945  0.08243296       0.003
   0.10304121  0.10304121  0.10304121       0.005
   0.12364945  0.10304121  0.10304121       0.007
   0.12364945  0.12364945  0.10304121       0.003
   0.12364945  0.12364945  0.12364945       0.001
 
 k-points in reciprocal lattice and weights: pymatgen with grid density = 8000 / numb
   0.00000000  0.00000000  0.00000000       0.001
   0.08333333  0.00000000  0.00000000       0.003
   0.16666667  0.00000000  0.00000000       0.003
   0.25000000  0.00000000  0.00000000       0.003
   0.33333333  0.00000000  0.00000000       0.003
   0.41666667  0.00000000  0.00000000       0.003
   0.50000000  0.00000000  0.00000000       0.002
   0.08333333  0.08333333  0.00000000       0.007
   0.16666667  0.08333333  0.00000000       0.014
   0.25000000  0.08333333  0.00000000       0.014
   0.33333333  0.08333333  0.00000000       0.014
   0.41666667  0.08333333  0.00000000       0.014
   0.50000000  0.08333333  0.00000000       0.007
   0.16666667  0.16666667  0.00000000       0.007
   0.25000000  0.16666667  0.00000000       0.014
   0.33333333  0.16666667  0.00000000       0.014
   0.41666667  0.16666667  0.00000000       0.014
   0.50000000  0.16666667  0.00000000       0.007
   0.25000000  0.25000000  0.00000000       0.007
   0.33333333  0.25000000  0.00000000       0.014
   0.41666667  0.25000000  0.00000000       0.014
   0.50000000  0.25000000  0.00000000       0.007
   0.33333333  0.33333333  0.00000000       0.007
   0.41666667  0.33333333  0.00000000       0.014
   0.50000000  0.33333333  0.00000000       0.007
   0.41666667  0.41666667  0.00000000       0.007
   0.50000000  0.41666667  0.00000000       0.007
   0.50000000  0.50000000  0.00000000       0.002
   0.08333333  0.08333333  0.08333333       0.005
   0.16666667  0.08333333  0.08333333       0.014
   0.25000000  0.08333333  0.08333333       0.014
   0.33333333  0.08333333  0.08333333       0.014
   0.41666667  0.08333333  0.08333333       0.014
   0.50000000  0.08333333  0.08333333       0.007
   0.16666667  0.16666667  0.08333333       0.014
   0.25000000  0.16666667  0.08333333       0.028
   0.33333333  0.16666667  0.08333333       0.028
   0.41666667  0.16666667  0.08333333       0.028
   0.50000000  0.16666667  0.08333333       0.014
   0.25000000  0.25000000  0.08333333       0.014
   0.33333333  0.25000000  0.08333333       0.028
   0.41666667  0.25000000  0.08333333       0.028
   0.50000000  0.25000000  0.08333333       0.014
   0.33333333  0.33333333  0.08333333       0.014
   0.41666667  0.33333333  0.08333333       0.028
   0.50000000  0.33333333  0.08333333       0.014
   0.41666667  0.41666667  0.08333333       0.014
   0.50000000  0.41666667  0.08333333       0.014
   0.50000000  0.50000000  0.08333333       0.003
   0.16666667  0.16666667  0.16666667       0.005
   0.25000000  0.16666667  0.16666667       0.014
   0.33333333  0.16666667  0.16666667       0.014
   0.41666667  0.16666667  0.16666667       0.014
   0.50000000  0.16666667  0.16666667       0.007
   0.25000000  0.25000000  0.16666667       0.014
   0.33333333  0.25000000  0.16666667       0.028
   0.41666667  0.25000000  0.16666667       0.028
   0.50000000  0.25000000  0.16666667       0.014
   0.33333333  0.33333333  0.16666667       0.014
   0.41666667  0.33333333  0.16666667       0.028
   0.50000000  0.33333333  0.16666667       0.014
   0.41666667  0.41666667  0.16666667       0.014
   0.50000000  0.41666667  0.16666667       0.014
   0.50000000  0.50000000  0.16666667       0.003
   0.25000000  0.25000000  0.25000000       0.005
   0.33333333  0.25000000  0.25000000       0.014
   0.41666667  0.25000000  0.25000000       0.014
   0.50000000  0.25000000  0.25000000       0.007
   0.33333333  0.33333333  0.25000000       0.014
   0.41666667  0.33333333  0.25000000       0.028
   0.50000000  0.33333333  0.25000000       0.014
   0.41666667  0.41666667  0.25000000       0.014
   0.50000000  0.41666667  0.25000000       0.014
   0.50000000  0.50000000  0.25000000       0.003
   0.33333333  0.33333333  0.33333333       0.005
   0.41666667  0.33333333  0.33333333       0.014
   0.50000000  0.33333333  0.33333333       0.007
   0.41666667  0.41666667  0.33333333       0.014
   0.50000000  0.41666667  0.33333333       0.014
   0.50000000  0.50000000  0.33333333       0.003
   0.41666667  0.41666667  0.41666667       0.005
   0.50000000  0.41666667  0.41666667       0.007
   0.50000000  0.50000000  0.41666667       0.003
   0.50000000  0.50000000  0.50000000       0.001
 
 position of ions in fractional coordinates (direct lattice) 
   0.00000000  0.00000000  0.00000000
   0.00000000  0.50000000  0.50000000
   0.50000000  0.00000000  0.50000000
   0.50000000  0.50000000  0.00000000
 
 position of ions in cartesian coordinates  (Angst):
   0.00000000  0.00000000  0.00000000
   0.00000000  2.02184486  2.02184486
   2.02184486  0.00000000  2.02184486
   2.02184486  2.02184486  0.00000000
 


--------------------------------------------------------------------------------------------------------


 k-point     1 :   0.0000 0.0000 0.0000  plane waves:    1791
 k-point     2 :   0.0833 0.0000 0.0000  plane waves:    1791
 k-point     3 :   0.1667 0.0000 0.0000  plane waves:    1795
 k-point     4 :   0.2500 0.0000 0.0000  plane waves:    1779
 k-point     5 :   0.3333 0.0000 0.0000  plane waves:    1783
 k-point     6 :   0.4167 0.0000 0.0000  plane waves:    1787
 k-point     7 :   0.5000 0.0000 0.0000  plane waves:    1800
 k-point     8 :   0.0833 0.0833 0.0000  plane waves:    1793
 k-point     9 :   0.1667 0.0833 0.0000  plane waves:    1790
 k-point    10 :   0.2500 0.0833 0.0000  plane waves:    1789
 k-point    11 :   0.3333 0.0833 0.0000  plane waves:    1780
 k-point    12 :   0.4167 0.0833 0.0000  plane waves:    1781
 k-point    13 :   0.5000 0.0833 0.0000  plane waves:    1794
 k-point    14 :   0.1667 0.1667 0.0000  plane waves:    1789
 k-point    15 :   0.2500 0.1667 0.0000  plane waves:    1784
 k-point    16 :   0.3333 0.1667 0.0000  plane waves:    1789
 k-point    17 :   0.4167 0.1667 0.0000  plane waves:    1781
 k-point    18 :   0.5000 0.1667 0.0000  plane waves:    1786
 k-point    19 :   0.2500 0.2500 0.0000  plane waves:    1771
 k-point    20 :   0.3333 0.2500 0.0000  plane waves:    1787
 k-point    21 :   0.4167 0.2500 0.0000  plane waves:    1781
 k-point    22 :   0.5000 0.2500 0.0000  plane waves:    1776
 k-point    23 :   0.3333 0.3333 0.0000  plane waves:    1774
 k-point    24 :   0.4167 0.3333 0.0000  plane waves:    1778
 k-point    25 :   0.5000 0.3333 0.0000  plane waves:    1772
 k-point    26 :   0.4167 0.4167 0.0000  plane waves:    1774
 k-point    27 :   0.5000 0.4167 0.0000  plane waves:    1760
 k-point    28 :   0.5000 0.5000 0.0000  plane waves:    1772
 k-point    29 :   0.0833 0.0833 0.0833  plane waves:    1803
 k-point    30 :   0.1667 0.0833 0.0833  plane waves:    1796
 k-point    31 :   0.2500 0.0833 0.0833  plane waves:    1784
 k-point    32 :   0.3333 0.0833 0.0833  plane waves:    1779
 k-point    33 :   0.4167 0.0833 0.0833  plane waves:    1791
 k-point    34 :   0.5000 0.0833 0.0833  plane waves:    1786
 k-point    35 :   0.1667 0.1667 0.0833  plane waves:    1793
 k-point    36 :   0.2500 0.1667 0.0833  plane waves:    1789
 k-point    37 :   0.3333 0.1667 0.0833  plane waves:    1789
 k-point    38 :   0.4167 0.1667 0.0833  plane waves:    1779
 k-point    39 :   0.5000 0.1667 0.0833  plane waves:    1778
 k-point    40 :   0.2500 0.2500 0.0833  plane waves:    1786
 k-point    41 :   0.3333 0.2500 0.0833  plane waves:    1792
 k-point    42 :   0.4167 0.2500 0.0833  plane waves:    1778
 k-point    43 :   0.5000 0.2500 0.0833  plane waves:    1778
 k-point    44 :   0.3333 0.3333 0.0833  plane waves:    1780
 k-point    45 :   0.4167 0.3333 0.0833  plane waves:    1775
 k-point    46 :   0.5000 0.3333 0.0833  plane waves:    1762
 k-point    47 :   0.4167 0.4167 0.0833  plane waves:    1778
 k-point    48 :   0.5000 0.4167 0.0833  plane waves:    1764
 k-point    49 :   0.5000 0.5000 0.0833  plane waves:    1760
 k-point    50 :   0.1667 0.1667 0.1667  plane waves:    1791
 k-point    51 :   0.2500 0.1667 0.1667  plane waves:    1787
 k-point    52 :   0.3333 0.1667 0.1667  plane waves:    1790
 k-point    53 :   0.4167 0.1667 0.1667  plane waves:    1776
 k-point    54 :   0.5000 0.1667 0.1667  plane waves:    1774
 k-point    55 :   0.2500 0.2500 0.1667  plane waves:    1789
 k-point    56 :   0.3333 0.2500 0.1667  plane waves:    1781
 k-point    57 :   0.4167 0.2500 0.1667  plane waves:    1777
 k-point    58 :   0.5000 0.2500 0.1667  plane waves:    1772
 k-point    59 :   0.3333 0.3333 0.1667  plane waves:    1774
 k-point    60 :   0.4167 0.3333 0.1667  plane waves:    1778
 k-point    61 :   0.5000 0.3333 0.1667  plane waves:    1766
 k-point    62 :   0.4167 0.4167 0.1667  plane waves:    1772
 k-point    63 :   0.5000 0.4167 0.1667  plane waves:    1770
 k-point    64 :   0.5000 0.5000 0.1667  plane waves:    1784
 k-point    65 :   0.2500 0.2500 0.2500  plane waves:    1791
 k-point    66 :   0.3333 0.2500 0.2500  plane waves:    1775
 k-point    67 :   0.4167 0.2500 0.2500  plane waves:    1776
 k-point    68 :   0.5000 0.2500 0.2500  plane waves:    1784
 k-point    69 :   0.3333 0.3333 0.2500  plane waves:    1777
 k-point    70 :   0.4167 0.3333 0.2500  plane waves:    1773
 k-point    71 :   0.5000 0.3333 0.2500  plane waves:    1772
 k-point    72 :   0.4167 0.4167 0.2500  plane waves:    1771
 k-point    73 :   0.5000 0.4167 0.2500  plane waves:    1774
 k-point    74 :   0.5000 0.5000 0.2500  plane waves:    1764
 k-point    75 :   0.3333 0.3333 0.3333  plane waves:    1770
 k-point    76 :   0.4167 0.3333 0.3333  plane waves:    1774
 k-point    77 :   0.5000 0.3333 0.3333  plane waves:    1784
 k-point    78 :   0.4167 0.4167 0.3333  plane waves:    1776
 k-point    79 :   0.5000 0.4167 0.3333  plane waves:    1770
 k-point    80 :   0.5000 0.5000 0.3333  plane waves:    1780
 k-point    81 :   0.4167 0.4167 0.4167  plane waves:    1790
 k-point    82 :   0.5000 0.4167 0.4167  plane waves:    1788
 k-point    83 :   0.5000 0.5000 0.4167  plane waves:    1788
 k-point    84 :   0.5000 0.5000 0.5000  plane waves:    1736

 maximum and minimum number of plane-waves per node :      1803     1736

 maximum number of plane-waves:      1803
 maximum index in each direction: 
   IXMAX=    7   IYMAX=    7   IZMAX=    7
   IXMIN=   -8   IYMIN=   -8   IZMIN=   -7


 serial   3D FFT for wavefunctions
 parallel 3D FFT for charge:
    minimum data exchange during FFTs selected (reduces bandwidth)


 total amount of memory used by VASP MPI-rank0    44735. kBytes
=======================================================================

   base      :      30000. kBytes
   nonl-proj :      10444. kBytes
   fftplans  :        256. kBytes
   grid      :       1271. kBytes
   one-center:         12. kBytes
   wavefun   :       2752. kBytes
 
     INWAV:  cpu time      0.0000: real time      0.0000
 Broyden mixing: mesh for mixing (old mesh)
   NGX = 15   NGY = 15   NGZ = 15
  (NGX  = 60   NGY  = 60   NGZ  = 60)
  gives a total of   3375 points

 initial charge density was supplied:
 charge density of overlapping atoms calculated
 number of electron      12.0000000 magnetization 
 keeping initial charge density in first step


--------------------------------------------------------------------------------------------------------


 Maximum index for augmentation-charges          749 (set IRDMAX)


--------------------------------------------------------------------------------------------------------


 First call to EWALD:  gamma=   0.438
 Maximum number of real-space cells 3x 3x 3
 Maximum number of reciprocal cells 3x 3x 3

    FEWALD:  cpu time      0.0030: real time      0.0031


--------------------------------------- Ionic step        1  -------------------------------------------




--------------------------------------- Iteration      1(   1)  ---------------------------------------


    POTLOK:  cpu time      0.0196: real time      0.0232
    SETDIJ:  cpu time      0.0061: real time      0.0063
     EDDAV:  cpu time     47.4159: real time     47.6630
 BZINTS: Fermi energy:    8.093338;   12.000000 electrons
         Band energy: 0.437945E+02;  BLOECHL correction:   -0.178186
       DOS:  cpu time      0.0604: real time      0.0612
    --------------------------------------------
      LOOP:  cpu time     47.5021: real time     47.7536

 eigenvalue-minimisations  : 29824
 total energy-change (2. order) :-0.1431141E+02  (-0.4672726E+03)
 number of electron      12.0000000 magnetization 
 augmentation part       12.0000000 magnetization 

 Free energy of the ion-electron system (eV)
  ---------------------------------------------------
  alpha Z        PSCENC =        -0.81277799
  Ewald energy   TEWEN  =      -293.88473869
  -Hartree energ DENC   =        -0.40832449
  -exchange      EXHF   =         0.00000000
  -V(xc)+E(xc)   XCENC  =      -104.97206531
  PAW double counting   =       264.80062850     -136.98248303
  entropy T*S    EENTRO =         0.00000000
  eigenvalues    EBANDS =        43.79452297
  atomic energy  EATOM  =       214.15382826
  Solvation  Ediel_sol  =         0.00000000
  ---------------------------------------------------
  free energy    TOTEN  =       -14.31140978 eV

  energy without entropy =      -14.31140978  energy(sigma->0) =      -14.31140978


--------------------------------------------------------------------------------------------------------




--------------------------------------- Iteration      1(   2)  ---------------------------------------


     EDDAV:  cpu time     66.0542: real time     66.3991
 BZINTS: Fermi energy:    7.982202;   12.000000 electrons
         Band energy: 0.430352E+02;  BLOECHL correction:   -0.179892
       DOS:  cpu time      0.0452: real time      0.0455
    --------------------------------------------
      LOOP:  cpu time     66.0994: real time     66.4446

 eigenvalue-minimisations  : 33408
 total energy-change (2. order) :-0.7593276E+00  (-0.7543532E+00)
 number of electron      12.0000000 magnetization 
 augmentation part       12.0000000 magnetization 

 Free energy of the ion-electron system (eV)
  ---------------------------------------------------
  alpha Z        PSCENC =        -0.81277799
  Ewald energy   TEWEN  =      -293.88473869
  -Hartree energ DENC   =        -0.40832449
  -exchange      EXHF   =         0.00000000
  -V(xc)+E(xc)   XCENC  =      -104.97206531
  PAW double counting   =       264.80062850     -136.98248303
  entropy T*S    EENTRO =         0.00000000
  eigenvalues    EBANDS =        43.03519536
  atomic energy  EATOM  =       214.15382826
  Solvation  Ediel_sol  =         0.00000000
  ---------------------------------------------------
  free energy    TOTEN  =       -15.07073739 eV

  energy without entropy =      -15.07073739  energy(sigma->0) =      -15.07073739


--------------------------------------------------------------------------------------------------------




--------------------------------------- Iteration      1(   3)  ---------------------------------------


     EDDAV:  cpu time     34.4345: real time     34.6164
 BZINTS: Fermi energy:    7.982184;   12.000000 electrons
         Band energy: 0.430351E+02;  BLOECHL correction:   -0.179893
       DOS:  cpu time      0.0443: real time      0.0448
    --------------------------------------------
      LOOP:  cpu time     34.4788: real time     34.6612

 eigenvalue-minimisations  : 23936
 total energy-change (2. order) :-0.1153593E-03  (-0.1143495E-03)
 number of electron      12.0000000 magnetization 
 augmentation part       12.0000000 magnetization 

 Free energy of the ion-electron system (eV)
  ---------------------------------------------------
  alpha Z        PSCENC =        -0.81277799
  Ewald energy   TEWEN  =      -293.88473869
  -Hartree energ DENC   =        -0.40832449
  -exchange      EXHF   =         0.00000000
  -V(xc)+E(xc)   XCENC  =      -104.97206531
  PAW double counting   =       264.80062850     -136.98248303
  entropy T*S    EENTRO =         0.00000000
  eigenvalues    EBANDS =        43.03508000
  atomic energy  EATOM  =       214.15382826
  Solvation  Ediel_sol  =         0.00000000
  ---------------------------------------------------
  free energy    TOTEN  =       -15.07085275 eV

  energy without entropy =      -15.07085275  energy(sigma->0) =      -15.07085275


--------------------------------------------------------------------------------------------------------




--------------------------------------- Iteration      1(   4)  ---------------------------------------


     EDDAV:  cpu time     99.2910: real time     99.7665
 BZINTS: Fermi energy:    7.982184;   12.000000 electrons
         Band energy: 0.430351E+02;  BLOECHL correction:   -0.179893
       DOS:  cpu time      0.0439: real time      0.0443
    --------------------------------------------
      LOOP:  cpu time     99.3348: real time     99.8108

 eigenvalue-minimisations  : 40448
 total energy-change (2. order) :-0.2747072E-08  (-0.2100652E-08)
 number of electron      12.0000000 magnetization 
 augmentation part       12.0000000 magnetization 

 Free energy of the ion-electron system (eV)
  ---------------------------------------------------
  alpha Z        PSCENC =        -0.81277799
  Ewald energy   TEWEN  =      -293.88473869
  -Hartree energ DENC   =        -0.40832449
  -exchange      EXHF   =         0.00000000
  -V(xc)+E(xc)   XCENC  =      -104.97206531
  PAW double counting   =       264.80062850     -136.98248303
  entropy T*S    EENTRO =         0.00000000
  eigenvalues    EBANDS =        43.03507999
  atomic energy  EATOM  =       214.15382826
  Solvation  Ediel_sol  =         0.00000000
  ---------------------------------------------------
  free energy    TOTEN  =       -15.07085275 eV

  energy without entropy =      -15.07085275  energy(sigma->0) =      -15.07085275


--------------------------------------------------------------------------------------------------------




--------------------------------------- Iteration      1(   5)  ---------------------------------------


     EDDAV:  cpu time     36.4509: real time     36.6460
 BZINTS: Fermi energy:    7.982184;   12.000000 electrons
         Band energy: 0.430351E+02;  BLOECHL correction:   -0.179893
       DOS:  cpu time      0.0437: real time      0.0442
    CHARGE:  cpu time      0.0474: real time      0.0484
    MIXING:  cpu time      0.0085: real time      0.0088
    --------------------------------------------
      LOOP:  cpu time     36.5505: real time     36.7474

 eigenvalue-minimisations  : 23808
 total energy-change (2. order) : 0.9485461E-09  ( 0.7847717E-13)
 number of electron      12.0000000 magnetization 
 augmentation part       -0.1474827 magnetization 

 Broyden mixing:
  rms(total) = 0.26099E+00    rms(broyden)= 0.26099E+00
  rms(prec ) = 0.47261E+00
  weight for this iteration     100.00

 Free energy of the ion-electron system (eV)
  ---------------------------------------------------
  alpha Z        PSCENC =        -0.81277799
  Ewald energy   TEWEN  =      -293.88473869
  -Hartree energ DENC   =        -0.40832449
  -exchange      EXHF   =         0.00000000
  -V(xc)+E(xc)   XCENC  =      -104.97206531
  PAW double counting   =       264.80062850     -136.98248303
  entropy T*S    EENTRO =         0.00000000
  eigenvalues    EBANDS =        43.03508000
  atomic energy  EATOM  =       214.15382826
  Solvation  Ediel_sol  =         0.00000000
  ---------------------------------------------------
  free energy    TOTEN  =       -15.07085275 eV

  energy without entropy =      -15.07085275  energy(sigma->0) =      -15.07085275


--------------------------------------------------------------------------------------------------------




--------------------------------------- Iteration      1(   6)  ---------------------------------------


    POTLOK:  cpu time      0.0216: real time      0.0283
    SETDIJ:  cpu time      0.0011: real time      0.0011
     EDDAV:  cpu time     46.4626: real time     46.6910
 BZINTS: Fermi energy:    7.968385;   12.000000 electrons
         Band energy: 0.428904E+02;  BLOECHL correction:   -0.179992
       DOS:  cpu time      0.0435: real time      0.0440
    CHARGE:  cpu time      0.0367: real time      0.0369
    MIXING:  cpu time      0.0037: real time      0.0039
    --------------------------------------------
      LOOP:  cpu time     46.5692: real time     46.8053

 eigenvalue-minimisations  : 27136
 total energy-change (2. order) : 0.5244403E-01  (-0.6815608E-03)
 number of electron      12.0000000 magnetization 
 augmentation part       -0.1496444 magnetization 

 Broyden mixing:
  rms(total) = 0.15182E+00    rms(broyden)= 0.15182E+00
  rms(prec ) = 0.28949E+00
  weight for this iteration     100.00

 eigenvalues of (default mixing * dielectric matrix)
  average eigenvalue GAMMA=   2.3358
  2.3358

 Free energy of the ion-electron system (eV)
  ---------------------------------------------------
  alpha Z        PSCENC =        -0.81277799
  Ewald energy   TEWEN  =      -293.88473869
  -Hartree energ DENC   =        -0.34095029
  -exchange      EXHF   =         0.00000000
  -V(xc)+E(xc)   XCENC  =      -104.83113768
  PAW double counting   =       378.89324328     -251.08627742
  entropy T*S    EENTRO =         0.00000000
  eigenvalues    EBANDS =        42.89040182
  atomic energy  EATOM  =       214.15382826
  Solvation  Ediel_sol  =         0.00000000
  ---------------------------------------------------
  free energy    TOTEN  =       -15.01840872 eV

  energy without entropy =      -15.01840872  energy(sigma->0) =      -15.01840872


--------------------------------------------------------------------------------------------------------




--------------------------------------- Iteration      1(   7)  ---------------------------------------


    POTLOK:  cpu time      0.0225: real time      0.0279
    SETDIJ:  cpu time      0.0010: real time      0.0011
     EDDAV:  cpu time     58.1328: real time     58.4246
 BZINTS: Fermi energy:    7.952715;   12.000000 electrons
         Band energy: 0.427379E+02;  BLOECHL correction:   -0.180366
       DOS:  cpu time      0.0429: real time      0.0435
    CHARGE:  cpu time      0.0368: real time      0.0370
    MIXING:  cpu time      0.0028: real time      0.0028
    --------------------------------------------
      LOOP:  cpu time     58.2389: real time     58.5369

 eigenvalue-minimisations  : 30976
 total energy-change (2. order) : 0.3788729E-01  (-0.1939536E-02)
 number of electron      12.0000000 magnetization 
 augmentation part       -0.1537490 magnetization 

 Broyden mixing:
  rms(total) = 0.27009E-01    rms(broyden)= 0.27009E-01
  rms(prec ) = 0.29269E-01
  weight for this iteration     100.00

 eigenvalues of (default mixing * dielectric matrix)
  average eigenvalue GAMMA=   2.8555
  2.8555  2.8555

 Free energy of the ion-electron system (eV)
  ---------------------------------------------------
  alpha Z        PSCENC =        -0.81277799
  Ewald energy   TEWEN  =      -293.88473869
  -Hartree energ DENC   =        -0.40203425
  -exchange      EXHF   =         0.00000000
  -V(xc)+E(xc)   XCENC  =      -104.55523529
  PAW double counting   =       605.26674491     -477.48416273
  entropy T*S    EENTRO =         0.00000000
  eigenvalues    EBANDS =        42.73785436
  atomic energy  EATOM  =       214.15382826
  Solvation  Ediel_sol  =         0.00000000
  ---------------------------------------------------
  free energy    TOTEN  =       -14.98052143 eV

  energy without entropy =      -14.98052143  energy(sigma->0) =      -14.98052143


--------------------------------------------------------------------------------------------------------




--------------------------------------- Iteration      1(   8)  ---------------------------------------


    POTLOK:  cpu time      0.0220: real time      0.0276
    SETDIJ:  cpu time      0.0010: real time      0.0010
     EDDAV:  cpu time     43.6747: real time     43.8910
 BZINTS: Fermi energy:    7.953251;   12.000000 electrons
         Band energy: 0.427457E+02;  BLOECHL correction:   -0.180403
       DOS:  cpu time      0.0433: real time      0.0438
    CHARGE:  cpu time      0.0375: real time      0.0377
    MIXING:  cpu time      0.0004: real time      0.0004
    --------------------------------------------
      LOOP:  cpu time     43.7789: real time     44.0017

 eigenvalue-minimisations  : 26496
 total energy-change (2. order) : 0.8883152E-04  (-0.2876611E-05)
 number of electron      12.0000000 magnetization 
 augmentation part       -0.1540211 magnetization 

 Broyden mixing:
  rms(total) = 0.40847E-02    rms(broyden)= 0.40847E-02
  rms(prec ) = 0.52610E-02
  weight for this iteration     100.00

 eigenvalues of (default mixing * dielectric matrix)
  average eigenvalue GAMMA=   2.1082
  1.0642  2.5305  2.7300

 Free energy of the ion-electron system (eV)
  ---------------------------------------------------
  alpha Z        PSCENC =        -0.81277799
  Ewald energy   TEWEN  =      -293.88473869
  -Hartree energ DENC   =        -0.41653433
  -exchange      EXHF   =         0.00000000
  -V(xc)+E(xc)   XCENC  =      -104.53652083
  PAW double counting   =       553.14192884     -425.37134646
  entropy T*S    EENTRO =         0.00000000
  eigenvalues    EBANDS =        42.74572861
  atomic energy  EATOM  =       214.15382826
  Solvation  Ediel_sol  =         0.00000000
  ---------------------------------------------------
  free energy    TOTEN  =       -14.98043259 eV

  energy without entropy =      -14.98043259  energy(sigma->0) =      -14.98043259


--------------------------------------------------------------------------------------------------------




--------------------------------------- Iteration      1(   9)  ---------------------------------------


    POTLOK:  cpu time      0.0219: real time      0.0276
    SETDIJ:  cpu time      0.0011: real time      0.0011
     EDDAV:  cpu time     82.4109: real time     82.8054
 BZINTS: Fermi energy:    7.953003;   12.000000 electrons
         Band energy: 0.427432E+02;  BLOECHL correction:   -0.180409
       DOS:  cpu time      0.0434: real time      0.0439
    CHARGE:  cpu time      0.0369: real time      0.0371
    MIXING:  cpu time      0.0004: real time      0.0004
    --------------------------------------------
      LOOP:  cpu time     82.5146: real time     82.9155

 eigenvalue-minimisations  : 35968
 total energy-change (2. order) : 0.2919203E-05  (-0.4335298E-06)
 number of electron      12.0000000 magnetization 
 augmentation part       -0.1540715 magnetization 

 Broyden mixing:
  rms(total) = 0.12584E-03    rms(broyden)= 0.12583E-03
  rms(prec ) = 0.16103E-03
  weight for this iteration     100.00

 eigenvalues of (default mixing * dielectric matrix)
  average eigenvalue GAMMA=   2.2148
  0.9983  2.6691  2.6691  2.5226

 Free energy of the ion-electron system (eV)
  ---------------------------------------------------
  alpha Z        PSCENC =        -0.81277799
  Ewald energy   TEWEN  =      -293.88473869
  -Hartree energ DENC   =        -0.41826457
  -exchange      EXHF   =         0.00000000
  -V(xc)+E(xc)   XCENC  =      -104.53288803
  PAW double counting   =       560.21402871     -432.44284091
  entropy T*S    EENTRO =         0.00000000
  eigenvalues    EBANDS =        42.74322356
  atomic energy  EATOM  =       214.15382826
  Solvation  Ediel_sol  =         0.00000000
  ---------------------------------------------------
  free energy    TOTEN  =       -14.98042968 eV

  energy without entropy =      -14.98042968  energy(sigma->0) =      -14.98042968


--------------------------------------------------------------------------------------------------------




--------------------------------------- Iteration      1(  10)  ---------------------------------------


    POTLOK:  cpu time      0.0223: real time      0.0285
    SETDIJ:  cpu time      0.0010: real time      0.0011
     EDDAV:  cpu time     46.4358: real time     46.6611
 BZINTS: Fermi energy:    7.952981;   12.000000 electrons
         Band energy: 0.427429E+02;  BLOECHL correction:   -0.180409
       DOS:  cpu time      0.0434: real time      0.0439
    --------------------------------------------
      LOOP:  cpu time     46.5025: real time     46.7345

 eigenvalue-minimisations  : 25728
 total energy-change (2. order) : 0.9907872E-06  (-0.6158787E-09)
 number of electron      12.0000000 magnetization 
 augmentation part       -0.1540715 magnetization 

 Free energy of the ion-electron system (eV)
  ---------------------------------------------------
  alpha Z        PSCENC =        -0.81277799
  Ewald energy   TEWEN  =      -293.88473869
  -Hartree energ DENC   =        -0.41823151
  -exchange      EXHF   =         0.00000000
  -V(xc)+E(xc)   XCENC  =      -104.53295941
  PAW double counting   =       560.19448260     -432.42297678
  entropy T*S    EENTRO =         0.00000000
  eigenvalues    EBANDS =        42.74294484
  atomic energy  EATOM  =       214.15382826
  Solvation  Ediel_sol  =         0.00000000
  ---------------------------------------------------
  free energy    TOTEN  =       -14.98042868 eV

  energy without entropy =      -14.98042868  energy(sigma->0) =      -14.98042868


--------------------------------------------------------------------------------------------------------




 average (electrostatic) potential at core
  the test charge radii are     1.0406
  (the norm of the test charge is              1.0000)
       1 -72.6548       2 -72.6548       3 -72.6548       4 -72.6548
 
 
 
 E-fermi :   7.9530     XC(G=0): -10.1903     alpha+bet :-14.8493

 val. band max:        8.1198336076   @ k =   0.4167   0.1667   0.0000
 cond. band min:       7.7430606614   @ k =   0.3333   0.3333   0.1667
 fundamental gap:     -0.3767729462
 Fermi energy:         7.9529808576

 k-point     1 :       0.0000    0.0000    0.0000
  band No.  band energies     occupation 
      1      -3.1410      2.00000
      2       5.0615      2.00000
      3       5.0615      2.00000
      4       5.0615      2.00000
      5       6.3805      2.00000
      6       6.3805      2.00000
      7       6.3805      2.00000
      8      13.2385      0.00000
      9      13.2385      0.00000
     10      13.2385      0.00000
     11      13.5667      0.00000
     12      13.5667      0.00000
     13      13.5667      0.00000
     14      13.5667      0.00000
     15      13.5667      0.00000
     16      13.5667      0.00000
     17      17.0320      0.00000
     18      17.0320      0.00000
     19      17.0320      0.00000
     20      20.5899      0.00000
     21      20.5899      0.00000
     22      20.5899      0.00000
     23      22.0675      0.00000
     24      22.0675      0.00000
     25      22.0675      0.00000
     26      24.4337      0.00000
     27      27.3791      0.00000
     28      27.3791      0.00000
     29      30.2400      0.00000
     30      32.5917      0.00000
     31      32.5917      0.00000
     32      32.5917      0.00000
     33      33.3587      0.00000
     34      33.3587      0.00000
     35      33.3587      0.00000
     36      34.8673      0.00000
     37      34.8673      0.00000
     38      34.8673      0.00000
     39      34.8673      0.00000
     40      34.8673      0.00000
     41      34.8673      0.00000
     42      40.5323      0.00000
     43      40.5323      0.00000
     44      40.5323      0.00000
     45      41.1845      0.00000
     46      41.3346      0.00000
     47      41.3346      0.00000
     48      41.3346      0.00000
     49      41.3346      0.00000
     50      41.3346      0.00000
     51      41.3346      0.00000
     52      41.7455      0.00000
     53      41.7455      0.00000
     54      41.7455      0.00000
     55      42.6773      0.00000
     56      42.6773      0.00000
     57      42.6773      0.00000
     58      48.4096      0.00000
     59      48.4096      0.00000
     60      48.4096      0.00000
     61      48.4096      0.00000
     62      48.4096      0.00000
     63      48.4096      0.00000
     64      49.0190      0.00000
     65      49.0190      0.00000
     66      49.0190      0.00000
     67      49.4075      0.00000
     68      49.4075      0.00000
     69      49.4075      0.00000
     70      49.4075      0.00000
     71      49.4075      0.00000
     72      49.4075      0.00000
     73      50.3767      0.00000
     74      50.3767      0.00000
     75      50.3767      0.00000
     76      50.5629      0.00000
     77      50.5629      0.00000
     78      50.5629      0.00000
     79      52.5730      0.00000
     80      52.5730      0.00000
     81      52.5730      0.00000
     82      56.0630      0.00000
     83      56.0630      0.00000
     84      56.0630      0.00000
     85      56.1001      0.00000
     86      57.0515      0.00000
     87      57.0515      0.00000
     88      57.0515      0.00000
     89      57.0515      0.00000
     90      57.0515      0.00000
     91      57.0515      0.00000
     92      59.3517      0.00000
     93      59.3517      0.00000
     94      59.3517      0.00000
     95      59.5245      0.00000
     96      59.5245      0.00000
     97      59.5245      0.00000
     98      59.7925      0.00000
     99      59.7925      0.00000
    100      59.7925      0.00000
    101      62.9784      0.00000
    102      62.9784      0.00000
    103      63.9526      0.00000
    104      63.9526      0.00000
    105      63.9526      0.00000
    106      65.2201      0.00000
    107      65.2201      0.00000
    108      65.2201      0.00000
    109      72.1717      0.00000
    110      72.1717      0.00000
    111      72.1717      0.00000
    112      73.3525      0.00000
    113      73.3525      0.00000
    114      73.3525      0.00000
    115      75.2729      0.00000
    116      75.2729      0.00000
    117      75.2729      0.00000
    118      75.4152      0.00000
    119      75.4152      0.00000
    120      75.4152      0.00000
    121      75.4152      0.00000
    122      75.4152      0.00000
    123      75.4152      0.00000
    124      76.2583      0.00000
    125      76.2583      0.00000
    126      76.2583      0.00000
    127      77.0489      0.00000
    128      77.0489      0.00000

 k-point     2 :       0.0833    0.0000    0.0000
  band No.  band energies     occupation 
      1      -3.0781      2.00000
      2       4.1934      2.00000
      3       5.1190      2.00000
      4       5.1190      2.00000
      5       6.4413      2.00000
      6       6.4413      2.00000
      7       7.3574      1.78570
      8      12.0565      0.00000
      9      12.0565      0.00000
     10      13.1301      0.00000
     11      13.1301      0.00000
     12      13.3005      0.00000
     13      13.6200      0.00000
     14      13.6200      0.00000
     15      14.8648      0.00000
     16      14.8648      0.00000
     17      17.0895      0.00000
     18      17.5624      0.00000
     19      17.5624      0.00000
     20      19.9037      0.00000
     21      19.9037      0.00000
     22      20.1241      0.00000
     23      21.9129      0.00000
     24      22.8463      0.00000
     25      22.8463      0.00000
     26      25.0251      0.00000
     27      26.5618      0.00000
     28      27.4373      0.00000
     29      30.1873      0.00000
     30      32.6631      0.00000
     31      32.6631      0.00000
     32      33.0174      0.00000
     33      33.0174      0.00000
     34      33.1153      0.00000
     35      33.5881      0.00000
     36      34.0586      0.00000
     37      34.0586      0.00000
     38      34.6508      0.00000
     39      34.6508      0.00000
     40      34.8810      0.00000
     41      34.8810      0.00000
     42      40.8067      0.00000
     43      40.8067      0.00000
     44      40.8851      0.00000
     45      40.8851      0.00000
     46      40.8990      0.00000
     47      40.9135      0.00000
     48      41.3680      0.00000
     49      41.3680      0.00000
     50      41.4471      0.00000
     51      41.4639      0.00000
     52      41.4639      0.00000
     53      42.0233      0.00000
     54      42.0233      0.00000
     55      43.2015      0.00000
     56      43.3154      0.00000
     57      43.3154      0.00000
     58      46.4931      0.00000
     59      46.4931      0.00000
     60      46.7414      0.00000
     61      47.8313      0.00000
     62      47.8313      0.00000
     63      47.9457      0.00000
     64      47.9457      0.00000
     65      48.2635      0.00000
     66      48.2635      0.00000
     67      49.6192      0.00000
     68      49.6192      0.00000
     69      50.5621      0.00000
     70      50.5621      0.00000
     71      50.6241      0.00000
     72      51.1263      0.00000
     73      51.1263      0.00000
     74      51.1369      0.00000
     75      51.1369      0.00000
     76      51.6168      0.00000
     77      51.6168      0.00000
     78      52.6812      0.00000
     79      52.6812      0.00000
     80      52.7275      0.00000
     81      52.8154      0.00000
     82      55.8237      0.00000
     83      55.9622      0.00000
     84      55.9622      0.00000
     85      56.3363      0.00000
     86      56.8754      0.00000
     87      56.8754      0.00000
     88      56.9506      0.00000
     89      56.9506      0.00000
     90      57.0631      0.00000
     91      57.0631      0.00000
     92      58.7579      0.00000
     93      58.7579      0.00000
     94      59.1201      0.00000
     95      59.3935      0.00000
     96      59.5163      0.00000
     97      59.5163      0.00000
     98      60.0759      0.00000
     99      60.0759      0.00000
    100      60.0882      0.00000
    101      61.0706      0.00000
    102      62.9728      0.00000
    103      63.8281      0.00000
    104      63.8281      0.00000
    105      63.9012      0.00000
    106      65.8996      0.00000
    107      65.8996      0.00000
    108      67.2151      0.00000
    109      70.3061      0.00000
    110      72.2152      0.00000
    111      72.2152      0.00000
    112      72.5901      0.00000
    113      72.8788      0.00000
    114      72.8788      0.00000
    115      73.0658      0.00000
    116      73.0658      0.00000
    117      73.4106      0.00000
    118      73.4106      0.00000
    119      75.1293      0.00000
    120      75.1293      0.00000
    121      75.1936      0.00000
    122      75.1936      0.00000
    123      76.4469      0.00000
    124      76.8885      0.00000
    125      77.0934      0.00000
    126      77.2735      0.00000
    127      77.2735      0.00000
    128      78.1013      0.00000

 k-point     3 :       0.1667    0.0000    0.0000
  band No.  band energies     occupation 
      1      -2.8897      2.00000
      2       2.9905      2.00000
      3       5.2917      2.00000
      4       5.2917      2.00000
      5       6.6228      2.00000
      6       6.6228      2.00000
      7       8.8869     -0.03425
      8      10.8418      0.00000
      9      10.8418      0.00000
     10      12.2312      0.00000
     11      12.2312      0.00000
     12      13.4864      0.00000
     13      13.7802      0.00000
     14      13.7802      0.00000
     15      16.4278      0.00000
     16      16.4278      0.00000
     17      17.2611      0.00000
     18      18.7417      0.00000
     19      18.7417      0.00000
     20      18.8707      0.00000
     21      18.8707      0.00000
     22      19.1660      0.00000
     23      21.4958      0.00000
     24      24.1523      0.00000
     25      24.1523      0.00000
     26      24.7280      0.00000
     27      26.3599      0.00000
     28      27.6117      0.00000
     29      30.5589      0.00000
     30      32.0598      0.00000
     31      32.0598      0.00000
     32      32.2757      0.00000
     33      32.2757      0.00000
     34      32.5030      0.00000
     35      32.8812      0.00000
     36      32.8812      0.00000
     37      34.0747      0.00000
     38      34.0747      0.00000
     39      34.9191      0.00000
     40      34.9191      0.00000
     41      35.3399      0.00000
     42      39.6270      0.00000
     43      40.2277      0.00000
     44      40.2277      0.00000
     45      41.3069      0.00000
     46      41.3069      0.00000
     47      41.4269      0.00000
     48      41.4269      0.00000
     49      41.4677      0.00000
     50      41.4677      0.00000
     51      41.8811      0.00000
     52      42.2740      0.00000
     53      42.7245      0.00000
     54      42.7245      0.00000
     55      43.5309      0.00000
     56      44.0006      0.00000
     57      44.0484      0.00000
     58      44.0484      0.00000
     59      44.9234      0.00000
     60      44.9234      0.00000
     61      46.7962      0.00000
     62      46.7962      0.00000
     63      46.9283      0.00000
     64      46.9283      0.00000
     65      48.3038      0.00000
     66      48.3038      0.00000
     67      50.4109      0.00000
     68      50.4109      0.00000
     69      50.9575      0.00000
     70      51.9389      0.00000
     71      51.9389      0.00000
     72      52.4978      0.00000
     73      52.4978      0.00000
     74      52.5466      0.00000
     75      52.5466      0.00000
     76      52.9664      0.00000
     77      52.9664      0.00000
     78      53.4364      0.00000
     79      54.3695      0.00000
     80      54.3695      0.00000
     81      55.4508      0.00000
     82      55.4508      0.00000
     83      55.5325      0.00000
     84      55.6493      0.00000
     85      56.4894      0.00000
     86      56.4894      0.00000
     87      56.5531      0.00000
     88      56.6590      0.00000
     89      56.6590      0.00000
     90      57.1560      0.00000
     91      57.1560      0.00000
     92      57.7154      0.00000
     93      57.7154      0.00000
     94      58.4590      0.00000
     95      58.5552      0.00000
     96      59.4932      0.00000
     97      59.4932      0.00000
     98      59.5177      0.00000
     99      60.2270      0.00000
    100      60.7537      0.00000
    101      60.7537      0.00000
    102      62.9215      0.00000
    103      63.5133      0.00000
    104      63.5133      0.00000
    105      63.8066      0.00000
    106      67.3410      0.00000
    107      67.3410      0.00000
    108      67.7635      0.00000
    109      70.0654      0.00000
    110      70.0907      0.00000
    111      70.0907      0.00000
    112      70.7557      0.00000
    113      70.7557      0.00000
    114      70.9028      0.00000
    115      72.2624      0.00000
    116      72.2624      0.00000
    117      72.4896      0.00000
    118      72.4896      0.00000
    119      73.5739      0.00000
    120      73.5739      0.00000
    121      74.5354      0.00000
    122      74.5354      0.00000
    123      76.9928      0.00000
    124      77.2238      0.00000
    125      77.7299      0.00000
    126      77.7299      0.00000
    127      78.0600      0.00000
    128      78.1640      0.00000

 k-point     4 :       0.2500    0.0000    0.0000
  band No.  band energies     occupation 
      1      -2.5762      2.00000
      2       1.8560      2.00000
      3       5.5796      2.00000
      4       5.5796      2.00000
      5       6.9220      2.00000
      6       6.9220      2.12983
      7       9.7409      0.00000
      8       9.7409      0.00000
      9      10.5648      0.00000
     10      11.2546      0.00000
     11      11.2546      0.00000
     12      13.7959      0.00000
     13      14.0472      0.00000
     14      14.0472      0.00000
     15      17.5433      0.00000
     16      17.8819      0.00000
     17      17.8819      0.00000
     18      18.1073      0.00000
     19      18.1073      0.00000
     20      18.1282      0.00000
     21      20.1809      0.00000
     22      20.1809      0.00000
     23      20.9145      0.00000
     24      22.6038      0.00000
     25      25.5792      0.00000
     26      25.5792      0.00000
     27      27.9008      0.00000
     28      28.0251      0.00000
     29      30.1794      0.00000
     30      30.1794      0.00000
     31      30.6675      0.00000
     32      30.6675      0.00000
     33      31.2892      0.00000
     34      31.7224      0.00000
     35      33.2592      0.00000
     36      33.2592      0.00000
     37      33.2643      0.00000
     38      33.2643      0.00000
     39      34.9726      0.00000
     40      34.9726      0.00000
     41      37.0088      0.00000
     42      38.2808      0.00000
     43      39.9413      0.00000
     44      39.9413      0.00000
     45      40.3013      0.00000
     46      40.3013      0.00000
     47      41.3452      0.00000
     48      41.6326      0.00000
     49      41.6326      0.00000
     50      41.6617      0.00000
     51      41.6617      0.00000
     52      43.1477      0.00000
     53      43.1477      0.00000
     54      43.2776      0.00000
     55      43.3091      0.00000
     56      43.7319      0.00000
     57      44.3053      0.00000
     58      44.3053      0.00000
     59      44.9483      0.00000
     60      44.9483      0.00000
     61      45.7458      0.00000
     62      45.7458      0.00000
     63      46.1353      0.00000
     64      46.1353      0.00000
     65      48.9607      0.00000
     66      48.9607      0.00000
     67      51.6331      0.00000
     68      51.9075      0.00000
     69      51.9075      0.00000
     70      53.2729      0.00000
     71      53.2729      0.00000
     72      53.3655      0.00000
     73      53.3655      0.00000
     74      54.1932      0.00000
     75      54.1932      0.00000
     76      54.2116      0.00000
     77      54.2116      0.00000
     78      54.3242      0.00000
     79      54.3629      0.00000
     80      54.3629      0.00000
     81      55.1862      0.00000
     82      55.8938      0.00000
     83      56.0818      0.00000
     84      56.0818      0.00000
     85      56.2356      0.00000
     86      56.2356      0.00000
     87      56.4602      0.00000
     88      56.4602      0.00000
     89      56.7479      0.00000
     90      57.1401      0.00000
     91      57.1401      0.00000
     92      57.7591      0.00000
     93      58.0758      0.00000
     94      58.0758      0.00000
     95      58.3879      0.00000
     96      59.4648      0.00000
     97      59.4648      0.00000
     98      59.7157      0.00000
     99      59.8212      0.00000
[...]
     56      46.3189      0.00000
     57      49.3015      0.00000
     58      49.3015      0.00000
     59      49.3479      0.00000
     60      49.3479      0.00000
     61      50.4109      0.00000
     62      50.4109      0.00000
     63      50.5567      0.00000
     64      50.5567      0.00000
     65      50.7877      0.00000
     66      50.7877      0.00000
     67      51.3227      0.00000
     68      51.3227      0.00000
     69      53.7941      0.00000
     70      53.7941      0.00000
     71      54.4351      0.00000
     72      54.4351      0.00000
     73      54.9061      0.00000
     74      54.9061      0.00000
     75      55.1519      0.00000
     76      55.1519      0.00000
     77      55.1597      0.00000
     78      55.1597      0.00000
     79      55.6029      0.00000
     80      55.6029      0.00000
     81      56.0086      0.00000
     82      56.0086      0.00000
     83      56.3933      0.00000
     84      56.3933      0.00000
     85      57.0842      0.00000
     86      57.0842      0.00000
     87      57.2481      0.00000
     88      57.2481      0.00000
     89      57.5067      0.00000
     90      57.5067      0.00000
     91      58.4482      0.00000
     92      58.4482      0.00000
     93      58.5706      0.00000
     94      58.5706      0.00000
     95      58.8722      0.00000
     96      58.8722      0.00000
     97      61.6237      0.00000
     98      61.6237      0.00000
     99      62.0287      0.00000
    100      62.0287      0.00000
    101      62.6541      0.00000
    102      62.6541      0.00000
    103      62.7003      0.00000
    104      62.7003      0.00000
    105      63.7120      0.00000
    106      63.7120      0.00000
    107      64.2054      0.00000
    108      64.2054      0.00000
    109      64.5242      0.00000
    110      64.5242      0.00000
    111      64.5895      0.00000
    112      64.5895      0.00000
    113      69.6793      0.00000
    114      69.6793      0.00000
    115      69.9444      0.00000
    116      69.9444      0.00000
    117      71.3358      0.00000
    118      71.3358      0.00000
    119      71.7823      0.00000
    120      71.7823      0.00000
    121      72.2632      0.00000
    122      72.2632      0.00000
    123      72.3344      0.00000
    124      72.3344      0.00000
    125      73.2257      0.00000
    126      73.2257      0.00000
    127      75.0131      0.00000
    128      75.0131      0.00000

 k-point    83 :       0.5000    0.5000    0.4167
  band No.  band energies     occupation 
      1       2.8283      2.00000
      2       2.8283      2.00000
      3       2.8283      2.00000
      4       2.8283      2.00000
      5       4.2869      2.00000
      6       4.2869      2.00000
      7       4.2869      2.00000
      8       4.2869      2.00000
      9      18.0148      0.00000
     10      18.0148      0.00000
     11      18.0148      0.00000
     12      18.0148      0.00000
     13      18.8040      0.00000
     14      18.8040      0.00000
     15      18.8040      0.00000
     16      18.8040      0.00000
     17      20.0330      0.00000
     18      20.0330      0.00000
     19      20.0330      0.00000
     20      20.0330      0.00000
     21      20.1091      0.00000
     22      20.1091      0.00000
     23      20.1091      0.00000
     24      20.1091      0.00000
     25      23.3127      0.00000
     26      23.3127      0.00000
     27      23.3127      0.00000
     28      23.3127      0.00000
     29      23.9660      0.00000
     30      23.9660      0.00000
     31      23.9660      0.00000
     32      23.9660      0.00000
     33      32.1935      0.00000
     34      32.1935      0.00000
     35      32.1935      0.00000
     36      32.1935      0.00000
     37      32.5860      0.00000
     38      32.5860      0.00000
     39      32.5860      0.00000
     40      32.5860      0.00000
     41      38.6110      0.00000
     42      38.6110      0.00000
     43      38.6110      0.00000
     44      38.6110      0.00000
     45      39.4336      0.00000
     46      39.4336      0.00000
     47      39.4336      0.00000
     48      39.4336      0.00000
     49      39.6462      0.00000
     50      39.6462      0.00000
     51      39.6462      0.00000
     52      39.6462      0.00000
     53      45.8987      0.00000
     54      45.8987      0.00000
     55      45.8987      0.00000
     56      45.8987      0.00000
     57      50.0420      0.00000
     58      50.0420      0.00000
     59      50.0420      0.00000
     60      50.0420      0.00000
     61      50.6117      0.00000
     62      50.6117      0.00000
     63      50.6117      0.00000
     64      50.6117      0.00000
     65      51.5638      0.00000
     66      51.5638      0.00000
     67      51.5638      0.00000
     68      51.5638      0.00000
     69      53.8740      0.00000
     70      53.8740      0.00000
     71      53.8740      0.00000
     72      53.8740      0.00000
     73      54.8531      0.00000
     74      54.8531      0.00000
     75      54.8531      0.00000
     76      54.8531      0.00000
     77      55.4463      0.00000
     78      55.4463      0.00000
     79      55.4463      0.00000
     80      55.4463      0.00000
     81      56.1391      0.00000
     82      56.1391      0.00000
     83      56.1391      0.00000
     84      56.1391      0.00000
     85      57.4666      0.00000
     86      57.4666      0.00000
     87      57.4666      0.00000
     88      57.4666      0.00000
     89      57.5995      0.00000
     90      57.5995      0.00000
     91      57.5995      0.00000
     92      57.5995      0.00000
     93      58.4561      0.00000
     94      58.4561      0.00000
     95      58.4561      0.00000
     96      58.4561      0.00000
     97      61.4977      0.00000
     98      61.4977      0.00000
     99      61.4977      0.00000
    100      61.4977      0.00000
    101      63.1541      0.00000
    102      63.1541      0.00000
    103      63.1541      0.00000
    104      63.1541      0.00000
    105      63.5471      0.00000
    106      63.5471      0.00000
    107      63.5471      0.00000
    108      63.5471      0.00000
    109      64.5518      0.00000
    110      64.5518      0.00000
    111      64.5518      0.00000
    112      64.5518      0.00000
    113      70.1086      0.00000
    114      70.1086      0.00000
    115      70.1086      0.00000
    116      70.1086      0.00000
    117      72.0590      0.00000
    118      72.0590      0.00000
    119      72.0590      0.00000
    120      72.0590      0.00000
    121      72.3205      0.00000
    122      72.3205      0.00000
    123      72.3205      0.00000
    124      72.3205      0.00000
    125      74.7468      0.00000
    126      74.7468      0.00000
    127      74.7468      0.00000
    128      74.7468      0.00000

 k-point    84 :       0.5000    0.5000    0.5000
  band No.  band energies     occupation 
      1       3.3953      2.00000
      2       3.3953      2.00000
      3       3.3953      2.00000
      4       3.3953      2.00000
      5       3.6034      2.00000
      6       3.6034      2.00000
      7       3.6034      2.00000
      8       3.6034      2.00000
      9      19.3707      0.00000
     10      19.3707      0.00000
     11      19.3707      0.00000
     12      19.3707      0.00000
     13      19.3707      0.00000
     14      19.3707      0.00000
     15      19.3707      0.00000
     16      19.3707      0.00000
     17      19.4335      0.00000
     18      19.4335      0.00000
     19      19.4335      0.00000
     20      19.4335      0.00000
     21      19.4335      0.00000
     22      19.4335      0.00000
     23      19.4335      0.00000
     24      19.4335      0.00000
     25      23.0968      0.00000
     26      23.0968      0.00000
     27      23.0968      0.00000
     28      23.0968      0.00000
     29      23.2373      0.00000
     30      23.2373      0.00000
     31      23.2373      0.00000
     32      23.2373      0.00000
     33      32.7476      0.00000
     34      32.7476      0.00000
     35      32.7476      0.00000
     36      32.7476      0.00000
     37      32.7476      0.00000
     38      32.7476      0.00000
     39      32.7476      0.00000
     40      32.7476      0.00000
     41      38.7848      0.00000
     42      38.7848      0.00000
     43      38.7848      0.00000
     44      38.7848      0.00000
     45      38.7848      0.00000
     46      38.7848      0.00000
     47      38.7848      0.00000
     48      38.7848      0.00000
     49      39.5877      0.00000
     50      39.5877      0.00000
     51      39.5877      0.00000
     52      39.5877      0.00000
     53      45.5145      0.00000
     54      45.5145      0.00000
     55      45.5145      0.00000
     56      45.5145      0.00000
     57      50.6780      0.00000
     58      50.6780      0.00000
     59      50.6780      0.00000
     60      50.6780      0.00000
     61      51.6525      0.00000
     62      51.6525      0.00000
     63      51.6525      0.00000
     64      51.6525      0.00000
     65      51.6525      0.00000
     66      51.6525      0.00000
     67      51.6525      0.00000
     68      51.6525      0.00000
     69      53.5817      0.00000
     70      53.5817      0.00000
     71      53.5817      0.00000
     72      53.5817      0.00000
     73      54.7383      0.00000
     74      54.7383      0.00000
     75      54.7383      0.00000
     76      54.7383      0.00000
     77      54.7383      0.00000
     78      54.7383      0.00000
     79      54.7383      0.00000
     80      54.7383      0.00000
     81      56.3091      0.00000
     82      56.3091      0.00000
     83      56.3091      0.00000
     84      56.3091      0.00000
     85      57.5854      0.00000
     86      57.5854      0.00000
     87      57.5854      0.00000
     88      57.5854      0.00000
     89      57.5854      0.00000
     90      57.5854      0.00000
     91      57.5854      0.00000
     92      57.5854      0.00000
     93      58.5427      0.00000
     94      58.5427      0.00000
     95      58.5427      0.00000
     96      58.5427      0.00000
     97      60.7458      0.00000
     98      60.7458      0.00000
     99      60.7458      0.00000
    100      60.7458      0.00000
    101      62.7600      0.00000
    102      62.7600      0.00000
    103      62.7600      0.00000
    104      62.7600      0.00000
    105      64.4242      0.00000
    106      64.4242      0.00000
    107      64.4242      0.00000
    108      64.4242      0.00000
    109      64.4242      0.00000
    110      64.4242      0.00000
    111      64.4242      0.00000
    112      64.4242      0.00000
    113      69.2739      0.00000
    114      69.2739      0.00000
    115      69.2739      0.00000
    116      69.2739      0.00000
    117      73.7436      0.00000
    118      73.7436      0.00000
    119      73.7436      0.00000
    120      73.7436      0.00000
    121      73.7436      0.00000
    122      73.7436      0.00000
    123      73.7436      0.00000
    124      73.7436      0.00000
    125      75.4986      0.00000
    126      75.4986      0.00000
    127      75.4986      0.00000
    128      75.4986      0.00000


--------------------------------------------------------------------------------------------------------


 soft charge-density along one line, spin component           1
         0         1         2         3         4         5         6         7         8         9
 total charge-density along one line
 
 pseudopotential strength for first ion, spin component:           1
  8.445  14.392   0.000  -0.000  -0.000   0.000  -0.000  -0.000
 14.392  24.529   0.000  -0.000   0.000   0.000  -0.000  -0.000
  0.000   0.000   1.988   0.000   0.000   5.731   0.000   0.000
 -0.000  -0.000   0.000   1.988   0.000   0.000   5.731   0.000
 -0.000   0.000   0.000   0.000   1.988   0.000   0.000   5.731
  0.000   0.000   5.731   0.000   0.000  16.436   0.000   0.000
 -0.000  -0.000   0.000   5.731   0.000   0.000  16.436   0.000
 -0.000  -0.000   0.000   0.000   5.731   0.000   0.000  16.436
 total augmentation occupancy for first ion, spin component:           1
  3.343  -0.822  -0.000  -0.000  -0.000   0.000   0.000   0.000
 -0.822   0.269   0.000   0.000   0.000  -0.000   0.000  -0.000
 -0.000   0.000   1.101   0.000   0.000  -0.070  -0.000  -0.000
 -0.000   0.000   0.000   1.101   0.000  -0.000  -0.070  -0.000
 -0.000   0.000   0.000   0.000   1.101  -0.000  -0.000  -0.070
  0.000  -0.000  -0.070  -0.000  -0.000   0.005   0.000   0.000
  0.000   0.000  -0.000  -0.070  -0.000   0.000   0.005   0.000
  0.000  -0.000  -0.000  -0.000  -0.070   0.000   0.000   0.005


------------------------ aborting loop because EDIFF is reached ----------------------------------------


    CHARGE:  cpu time      0.0408: real time      0.0414
    FORLOC:  cpu time      0.0013: real time      0.0013
    FORNL :  cpu time      0.0468: real time      0.0478
    STRESS:  cpu time      0.6495: real time      0.6572
    FORCOR:  cpu time      0.0062: real time      0.0068
    FORHAR:  cpu time      0.0013: real time      0.0013
    MIXING:  cpu time      0.0024: real time      0.0024
    OFIELD:  cpu time      0.0012: real time      0.0012

  FORCE on cell =-STRESS in cart. coord.  units (eV):
  Direction    XX          YY          ZZ          XY          YZ          ZX
  --------------------------------------------------------------------------------------
  Alpha Z    -0.81278    -0.81278    -0.81278
  Ewald     -97.96162   -97.96162   -97.96162    -0.00000     0.00000     0.00000
  Hartree     0.13942     0.13942     0.13942    -0.00000    -0.00000    -0.00000
  E(xc)     -34.22589   -34.22589   -34.22589     0.00000     0.00000     0.00000
  Local       1.40699     1.40699     1.40699     0.00000     0.00000     0.00000
  n-local    74.09800    74.87827    77.15740     0.33417     1.00746     0.41245
  augment    -4.10997    -4.10997    -4.10997     0.00000     0.00000     0.00000
  Kinetic    57.20793    59.70347    63.07295     1.65342    -8.21904    -1.46529
  Fock        0.00000     0.00000     0.00000     0.00000     0.00000     0.00000
  -------------------------------------------------------------------------------------
  Total      -0.19118    -0.19118    -0.19118     0.00000     0.00000    -0.00000
  in kB      -4.63255    -4.63255    -4.63255     0.00000     0.00000    -0.00000
  external pressure =       -4.63 kB  Pullay stress =        0.00 kB


 VOLUME and BASIS-vectors are now :
 -----------------------------------------------------------------------------
  energy-cutoff  :      520.00
  volume of cell :       66.12
      direct lattice vectors                 reciprocal lattice vectors
     4.043689723  0.000000000  0.000000000     0.247298895 -0.000000000  0.000000000
     0.000000000  4.043689723  0.000000000     0.000000000  0.247298895  0.000000000
     0.000000000  0.000000000  4.043689723    -0.000000000 -0.000000000  0.247298895

  length of vectors
     4.043689723  4.043689723  4.043689723     0.247298895  0.247298895  0.247298895


 FORCES acting on ions
    electron-ion (+dipol)            ewald-force                    non-local-force                 convergence-correction
 -----------------------------------------------------------------------------------------------
   0.283E-15 0.230E-15 -.132E-14   0.489E-15 0.764E-15 -.890E-15   0.322E-20 -.553E-20 -.482E-19   0.496E-15 0.781E-17 0.116E-15
   -.169E-15 -.188E-14 -.263E-14   0.516E-15 -.538E-15 0.377E-15   0.108E-19 0.133E-19 -.115E-19   0.512E-15 -.360E-17 -.120E-15
   -.186E-14 0.605E-15 0.223E-13   -.475E-15 0.591E-15 0.377E-15   0.101E-19 0.327E-19 -.575E-20   -.484E-15 0.423E-16 -.105E-15
   -.161E-14 -.906E-14 -.186E-13   -.448E-15 -.707E-15 0.305E-15   -.663E-20 -.794E-20 0.508E-19   -.506E-15 -.502E-16 0.110E-15
 -----------------------------------------------------------------------------------------------
   -.335E-14 -.101E-13 -.239E-15   0.811E-16 0.111E-15 0.169E-15   0.174E-19 0.326E-19 -.146E-19   0.172E-16 -.369E-17 0.856E-18
 
 
 POSITION                                       TOTAL-FORCE (eV/Angst)
 -----------------------------------------------------------------------------------
      0.00000      0.00000      0.00000         0.000000     -0.000000      0.000000
      0.00000      2.02184      2.02184        -0.000000      0.000000     -0.000000
      2.02184      0.00000      2.02184         0.000000      0.000000     -0.000000
      2.02184      2.02184      0.00000         0.000000     -0.000000     -0.000000
 -----------------------------------------------------------------------------------
    total drift:                               -0.000000     -0.000000     -0.000000


--------------------------------------------------------------------------------------------------------



  FREE ENERGIE OF THE ION-ELECTRON SYSTEM (eV)
  ---------------------------------------------------
  free  energy   TOTEN  =       -14.98042868 eV

  energy  without entropy=      -14.98042868  energy(sigma->0) =      -14.98042868
 


--------------------------------------------------------------------------------------------------------


    POTLOK:  cpu time      0.0107: real time      0.0110


--------------------------------------------------------------------------------------------------------


     LOOP+:  cpu time    562.3671: real time    565.2670
 -----------------------------------------------------------------------------
|                                                                             |
|           W    W    AA    RRRRR   N    N  II  N    N   GGGG   !!!           |
|           W    W   A  A   R    R  NN   N  II  NN   N  G    G  !!!           |
|           W    W  A    A  R    R  N N  N  II  N N  N  G       !!!           |
|           W WW W  AAAAAA  RRRRR   N  N N  II  N  N N  G  GGG   !            |
|           WW  WW  A    A  R   R   N   NN  II  N   NN  G    G                |
|           W    W  A    A  R    R  N    N  II  N    N   GGGG   !!!           |
|                                                                             |
|     Tetrahedron method does not include variations of the Fermi             |
|     occupations, so forces and stress will be inaccurate. We suggest        |
|     using a different smearing scheme ISMEAR = 1 or 2 for metals in         |
|     relaxations.                                                            |
|                                                                             |
 -----------------------------------------------------------------------------

    4ORBIT:  cpu time      0.0000: real time      0.0000
 BZINTS: Fermi energy:    7.952981;   12.000000 electrons
         Band energy: 0.427429E+02;  BLOECHL correction:   -0.180409

 total amount of memory used by VASP MPI-rank0    44735. kBytes
=======================================================================

   base      :      30000. kBytes
   nonl-proj :      10444. kBytes
   fftplans  :        256. kBytes
   grid      :       1271. kBytes
   one-center:         12. kBytes
   wavefun   :       2752. kBytes
 
  
  
 General timing and accounting informations for this job:
 ========================================================
  
                  Total CPU time used (sec):      571.391
                            User time (sec):      566.212
                          System time (sec):        5.178
                         Elapsed time (sec):      580.058
  
                   Maximum memory used (kb):     1168288.
                   Average memory used (kb):          N/A
  
                          Minor page faults:       269073
                          Major page faults:          112
                 Voluntary context switches:         6977
