  16  16   1   0
  0.1731250E+02  0.7208233E-09  0.7208233E-09  0.5394132E-09  0.5000000E-15
  1.000000000000000E-004
  CAR 
 unknown system                          
     12.58652773    -52.59115302  301      4.95922888      1.00000000
    -52.591  0.0000E+00  0.0000E+00  0.0000E+00  0.0000E+00
    -52.374  0.0000E+00  0.0000E+00  0.0000E+00  0.0000E+00
    -52.157  0.0000E+00  0.0000E+00  0.0000E+00  0.0000E+00
    -51.939  0.0000E+00  0.0000E+00  0.0000E+00  0.0000E+00
    -51.722  0.0000E+00  0.0000E+00  0.0000E+00  0.0000E+00
    -51.505  0.0000E+00  0.0000E+00  0.0000E+00  0.0000E+00
    -51.288  0.0000E+00  0.0000E+00  0.0000E+00  0.0000E+00
    -51.070  0.0000E+00  0.0000E+00  0.0000E+00  0.0000E+00
    -50.853  0.0000E+00  0.0000E+00  0.0000E+00  0.0000E+00
    -50.636  0.0000E+00  0.0000E+00  0.0000E+00  0.0000E+00
    -50.419  0.0000E+00  0.0000E+00  0.0000E+00  0.0000E+00
    -50.201  0.0000E+00  0.0000E+00  0.0000E+00  0.0000E+00
    -49.984  0.0000E+00  0.0000E+00  0.0000E+00  0.0000E+00
    -49.767  0.2609E-05  0.2609E-05  0.5669E-06  0.5669E-06
    -49.550  0.2210E+00  0.2210E+00  0.4800E-01  0.4800E-01
    -49.332  0.2626E+00  0.2626E+00  0.1051E+00  0.1051E+00
    -49.115  0.7392E-01  0.7392E-01  0.1211E+00  0.1211E+00
    -48.898  0.4233E-03  0.4233E-03  0.1212E+00  0.1212E+00
    -48.680  0.0000E+00  0.0000E+00  0.1212E+00  0.1212E+00
    -48.463  0.0000E+00  0.0000E+00  0.1212E+00  0.1212E+00
    -48.246  0.0000E+00  0.0000E+00  0.1212E+00  0.1212E+00
    -48.029  0.0000E+00  0.0000E+00  0.1212E+00  0.1212E+00
    -47.811  0.0000E+00  0.0000E+00  0.1212E+00  0.1212E+00
    -47.594  0.0000E+00  0.0000E+00  0.1212E+00  0.1212E+00
    -47.377  0.0000E+00  0.0000E+00  0.1212E+00  0.1212E+00
    -47.160  0.6752E-03  0.6752E-03  0.1214E+00  0.1214E+00
    -46.942  0.2487E+00  0.2487E+00  0.1754E+00  0.1754E+00
    -46.725  0.1081E+00  0.1081E+00  0.1989E+00  0.1989E+00
    -46.508  0.2004E+00  0.2004E+00  0.2424E+00  0.2424E+00
    -46.291  0.4606E-04  0.4606E-04  0.2424E+00  0.2424E+00
    -46.073  0.0000E+00  0.0000E+00  0.2424E+00  0.2424E+00
    -45.856  0.0000E+00  0.0000E+00  0.2424E+00  0.2424E+00
    -45.639  0.0000E+00  0.0000E+00  0.2424E+00  0.2424E+00
    -45.422  0.0000E+00  0.0000E+00  0.2424E+00  0.2424E+00
    -45.204  0.0000E+00  0.0000E+00  0.2424E+00  0.2424E+00
    -44.987  0.0000E+00  0.0000E+00  0.2424E+00  0.2424E+00
    -44.770  0.0000E+00  0.0000E+00  0.2424E+00  0.2424E+00
    -44.553  0.0000E+00  0.0000E+00  0.2424E+00  0.2424E+00
    -44.335  0.0000E+00  0.0000E+00  0.2424E+00  0.2424E+00
    -44.118  0.0000E+00  0.0000E+00  0.2424E+00  0.2424E+00
    -43.901  0.0000E+00  0.0000E+00  0.2424E+00  0.2424E+00
    -43.684  0.0000E+00  0.0000E+00  0.2424E+00  0.2424E+00
    -43.466  0.0000E+00  0.0000E+00  0.2424E+00  0.2424E+00
    -43.249  0.0000E+00  0.0000E+00  0.2424E+00  0.2424E+00
    -43.032  0.0000E+00  0.0000E+00  0.2424E+00  0.2424E+00
    -42.815  0.0000E+00  0.0000E+00  0.2424E+00  0.2424E+00
    -42.597  0.0000E+00  0.0000E+00  0.2424E+00  0.2424E+00
    -42.380  0.0000E+00  0.0000E+00  0.2424E+00  0.2424E+00
    -42.163  0.0000E+00  0.0000E+00  0.2424E+00  0.2424E+00
    -41.945  0.0000E+00  0.0000E+00  0.2424E+00  0.2424E+00
    -41.728  0.0000E+00  0.0000E+00  0.2424E+00  0.2424E+00
    -41.511  0.0000E+00  0.0000E+00  0.2424E+00  0.2424E+00
    -41.294  0.0000E+00  0.0000E+00  0.2424E+00  0.2424E+00
    -41.076  0.0000E+00  0.0000E+00  0.2424E+00  0.2424E+00
    -40.859  0.0000E+00  0.0000E+00  0.2424E+00  0.2424E+00
    -40.642  0.0000E+00  0.0000E+00  0.2424E+00  0.2424E+00
    -40.425  0.0000E+00  0.0000E+00  0.2424E+00  0.2424E+00
    -40.207  0.0000E+00  0.0000E+00  0.2424E+00  0.2424E+00
    -39.990  0.0000E+00  0.0000E+00  0.2424E+00  0.2424E+00
    -39.773  0.0000E+00  0.0000E+00  0.2424E+00  0.2424E+00
    -39.556  0.0000E+00  0.0000E+00  0.2424E+00  0.2424E+00
    -39.338  0.0000E+00  0.0000E+00  0.2424E+00  0.2424E+00
    -39.121  0.0000E+00  0.0000E+00  0.2424E+00  0.2424E+00
    -38.904  0.0000E+00  0.0000E+00  0.2424E+00  0.2424E+00
    -38.687  0.0000E+00  0.0000E+00  0.2424E+00  0.2424E+00
    -38.469  0.0000E+00  0.0000E+00  0.2424E+00  0.2424E+00
    -38.252  0.0000E+00  0.0000E+00  0.2424E+00  0.2424E+00
    -38.035  0.0000E+00  0.0000E+00  0.2424E+00  0.2424E+00
    -37.818  0.0000E+00  0.0000E+00  0.2424E+00  0.2424E+00
    -37.600  0.0000E+00  0.0000E+00  0.2424E+00  0.2424E+00
    -37.383  0.0000E+00  0.0000E+00  0.2424E+00  0.2424E+00
    -37.166  0.0000E+00  0.0000E+00  0.2424E+00  0.2424E+00
    -36.949  0.0000E+00  0.0000E+00  0.2424E+00  0.2424E+00
    -36.731  0.0000E+00  0.0000E+00  0.2424E+00  0.2424E+00
    -36.514  0.0000E+00  0.0000E+00  0.2424E+00  0.2424E+00
    -36.297  0.0000E+00  0.0000E+00  0.2424E+00  0.2424E+00
    -36.079  0.0000E+00  0.0000E+00  0.2424E+00  0.2424E+00
    -35.862  0.0000E+00  0.0000E+00  0.2424E+00  0.2424E+00
    -35.645  0.0000E+00  0.0000E+00  0.2424E+00  0.2424E+00
    -35.428  0.0000E+00  0.0000E+00  0.2424E+00  0.2424E+00
    -35.210  0.0000E+00  0.0000E+00  0.2424E+00  0.2424E+00
    -34.993  0.0000E+00  0.0000E+00  0.2424E+00  0.2424E+00
    -34.776  0.0000E+00  0.0000E+00  0.2424E+00  0.2424E+00
    -34.559  0.0000E+00  0.0000E+00  0.2424E+00  0.2424E+00
    -34.341  0.0000E+00  0.0000E+00  0.2424E+00  0.2424E+00
    -34.124  0.0000E+00  0.0000E+00  0.2424E+00  0.2424E+00
    -33.907  0.0000E+00  0.0000E+00  0.2424E+00  0.2424E+00
    -33.690  0.0000E+00  0.0000E+00  0.2424E+00  0.2424E+00
    -33.472  0.0000E+00  0.0000E+00  0.2424E+00  0.2424E+00
    -33.255  0.0000E+00  0.0000E+00  0.2424E+00  0.2424E+00
    -33.038  0.0000E+00  0.0000E+00  0.2424E+00  0.2424E+00
    -32.821  0.0000E+00  0.0000E+00  0.2424E+00  0.2424E+00
    -32.603  0.0000E+00  0.0000E+00  0.2424E+00  0.2424E+00
    -32.386  0.0000E+00  0.0000E+00  0.2424E+00  0.2424E+00
    -32.169  0.0000E+00  0.0000E+00  0.2424E+00  0.2424E+00
    -31.952  0.0000E+00  0.0000E+00  0.2424E+00  0.2424E+00
    -31.734  0.0000E+00  0.0000E+00  0.2424E+00  0.2424E+00
    -31.517  0.0000E+00  0.0000E+00  0.2424E+00  0.2424E+00
    -31.300  0.0000E+00  0.0000E+00  0.2424E+00  0.2424E+00
    -31.083  0.0000E+00  0.0000E+00  0.2424E+00  0.2424E+00
    -30.865  0.0000E+00  0.0000E+00  0.2424E+00  0.2424E+00
    -30.648  0.0000E+00  0.0000E+00  0.2424E+00  0.2424E+00
    -30.431  0.0000E+00  0.0000E+00  0.2424E+00  0.2424E+00
    -30.213  0.0000E+00  0.0000E+00  0.2424E+00  0.2424E+00
    -29.996  0.0000E+00  0.0000E+00  0.2424E+00  0.2424E+00
    -29.779  0.0000E+00  0.0000E+00  0.2424E+00  0.2424E+00
    -29.562  0.0000E+00  0.0000E+00  0.2424E+00  0.2424E+00
    -29.344  0.0000E+00  0.0000E+00  0.2424E+00  0.2424E+00
    -29.127  0.0000E+00  0.0000E+00  0.2424E+00  0.2424E+00
    -28.910  0.0000E+00  0.0000E+00  0.2424E+00  0.2424E+00
    -28.693  0.0000E+00  0.0000E+00  0.2424E+00  0.2424E+00
    -28.475  0.0000E+00  0.0000E+00  0.2424E+00  0.2424E+00
    -28.258  0.0000E+00  0.0000E+00  0.2424E+00  0.2424E+00
    -28.041  0.0000E+00  0.0000E+00  0.2424E+00  0.2424E+00
    -27.824  0.0000E+00  0.0000E+00  0.2424E+00  0.2424E+00
    -27.606  0.0000E+00  0.0000E+00  0.2424E+00  0.2424E+00
    -27.389  0.0000E+00  0.0000E+00  0.2424E+00  0.2424E+00
    -27.172  0.0000E+00  0.0000E+00  0.2424E+00  0.2424E+00
    -26.955  0.0000E+00  0.0000E+00  0.2424E+00  0.2424E+00
    -26.737  0.0000E+00  0.0000E+00  0.2424E+00  0.2424E+00
    -26.520  0.0000E+00  0.0000E+00  0.2424E+00  0.2424E+00
    -26.303  0.0000E+00  0.0000E+00  0.2424E+00  0.2424E+00
    -26.086  0.0000E+00  0.0000E+00  0.2424E+00  0.2424E+00
    -25.868  0.0000E+00  0.0000E+00  0.2424E+00  0.2424E+00
    -25.651  0.0000E+00  0.0000E+00  0.2424E+00  0.2424E+00
    -25.434  0.0000E+00  0.0000E+00  0.2424E+00  0.2424E+00
    -25.217  0.0000E+00  0.0000E+00  0.2424E+00  0.2424E+00
    -24.999  0.0000E+00  0.0000E+00  0.2424E+00  0.2424E+00
    -24.782  0.0000E+00  0.0000E+00  0.2424E+00  0.2424E+00
    -24.565  0.0000E+00  0.0000E+00  0.2424E+00  0.2424E+00
    -24.347  0.0000E+00  0.0000E+00  0.2424E+00  0.2424E+00
    -24.130  0.0000E+00  0.0000E+00  0.2424E+00  0.2424E+00
    -23.913  0.0000E+00  0.0000E+00  0.2424E+00  0.2424E+00
    -23.696  0.0000E+00  0.0000E+00  0.2424E+00  0.2424E+00
    -23.478  0.0000E+00  0.0000E+00  0.2424E+00  0.2424E+00
    -23.261  0.0000E+00  0.0000E+00  0.2424E+00  0.2424E+00
    -23.044  0.0000E+00  0.0000E+00  0.2424E+00  0.2424E+00
    -22.827  0.0000E+00  0.0000E+00  0.2424E+00  0.2424E+00
    -22.609  0.0000E+00  0.0000E+00  0.2424E+00  0.2424E+00
    -22.392  0.0000E+00  0.0000E+00  0.2424E+00  0.2424E+00
    -22.175  0.0000E+00  0.0000E+00  0.2424E+00  0.2424E+00
    -21.958  0.0000E+00  0.0000E+00  0.2424E+00  0.2424E+00
    -21.740  0.0000E+00  0.0000E+00  0.2424E+00  0.2424E+00
    -21.523  0.0000E+00  0.0000E+00  0.2424E+00  0.2424E+00
    -21.306  0.0000E+00  0.0000E+00  0.2424E+00  0.2424E+00
    -21.089  0.0000E+00  0.0000E+00  0.2424E+00  0.2424E+00
    -20.871  0.0000E+00  0.0000E+00  0.2424E+00  0.2424E+00
    -20.654  0.0000E+00  0.0000E+00  0.2424E+00  0.2424E+00
    -20.437  0.0000E+00  0.0000E+00  0.2424E+00  0.2424E+00
    -20.220  0.0000E+00  0.0000E+00  0.2424E+00  0.2424E+00
    -20.002  0.0000E+00  0.0000E+00  0.2424E+00  0.2424E+00
    -19.785  0.0000E+00  0.0000E+00  0.2424E+00  0.2424E+00
    -19.568  0.0000E+00  0.0000E+00  0.2424E+00  0.2424E+00
    -19.351  0.0000E+00  0.0000E+00  0.2424E+00  0.2424E+00
    -19.133  0.0000E+00  0.0000E+00  0.2424E+00  0.2424E+00
    -18.916  0.0000E+00  0.0000E+00  0.2424E+00  0.2424E+00
    -18.699  0.0000E+00  0.0000E+00  0.2424E+00  0.2424E+00
    -18.482  0.0000E+00  0.0000E+00  0.2424E+00  0.2424E+00
    -18.264  0.0000E+00  0.0000E+00  0.2424E+00  0.2424E+00
    -18.047  0.0000E+00  0.0000E+00  0.2424E+00  0.2424E+00
    -17.830  0.0000E+00  0.0000E+00  0.2424E+00  0.2424E+00
    -17.612  0.0000E+00  0.0000E+00  0.2424E+00  0.2424E+00
    -17.395  0.0000E+00  0.0000E+00  0.2424E+00  0.2424E+00
    -17.178  0.0000E+00  0.0000E+00  0.2424E+00  0.2424E+00
    -16.961  0.0000E+00  0.0000E+00  0.2424E+00  0.2424E+00
    -16.743  0.0000E+00  0.0000E+00  0.2424E+00  0.2424E+00
    -16.526  0.0000E+00  0.0000E+00  0.2424E+00  0.2424E+00
    -16.309  0.0000E+00  0.0000E+00  0.2424E+00  0.2424E+00
    -16.092  0.0000E+00  0.0000E+00  0.2424E+00  0.2424E+00
    -15.874  0.0000E+00  0.0000E+00  0.2424E+00  0.2424E+00
    -15.657  0.0000E+00  0.0000E+00  0.2424E+00  0.2424E+00
    -15.440  0.0000E+00  0.0000E+00  0.2424E+00  0.2424E+00
    -15.223  0.0000E+00  0.0000E+00  0.2424E+00  0.2424E+00
    -15.005  0.0000E+00  0.0000E+00  0.2424E+00  0.2424E+00
    -14.788  0.0000E+00  0.0000E+00  0.2424E+00  0.2424E+00
    -14.571  0.0000E+00  0.0000E+00  0.2424E+00  0.2424E+00
    -14.354  0.0000E+00  0.0000E+00  0.2424E+00  0.2424E+00
    -14.136  0.0000E+00  0.0000E+00  0.2424E+00  0.2424E+00
    -13.919  0.0000E+00  0.0000E+00  0.2424E+00  0.2424E+00
    -13.702  0.0000E+00  0.0000E+00  0.2424E+00  0.2424E+00
    -13.485  0.0000E+00  0.0000E+00  0.2424E+00  0.2424E+00
    -13.267  0.0000E+00  0.0000E+00  0.2424E+00  0.2424E+00
    -13.050  0.0000E+00  0.0000E+00  0.2424E+00  0.2424E+00
    -12.833  0.0000E+00  0.0000E+00  0.2424E+00  0.2424E+00
    -12.616  0.0000E+00  0.0000E+00  0.2424E+00  0.2424E+00
    -12.398  0.0000E+00  0.0000E+00  0.2424E+00  0.2424E+00
    -12.181  0.0000E+00  0.0000E+00  0.2424E+00  0.2424E+00
    -11.964  0.0000E+00  0.0000E+00  0.2424E+00  0.2424E+00
    -11.746  0.0000E+00  0.0000E+00  0.2424E+00  0.2424E+00
    -11.529  0.0000E+00  0.0000E+00  0.2424E+00  0.2424E+00
    -11.312  0.0000E+00  0.0000E+00  0.2424E+00  0.2424E+00
    -11.095  0.0000E+00  0.0000E+00  0.2424E+00  0.2424E+00
    -10.877  0.0000E+00  0.0000E+00  0.2424E+00  0.2424E+00
    -10.660  0.0000E+00  0.0000E+00  0.2424E+00  0.2424E+00
    -10.443  0.6696E-16  0.6696E-16  0.2424E+00  0.2424E+00
    -10.226  0.3167E-04  0.3167E-04  0.2424E+00  0.2424E+00
    -10.008  0.4730E-02  0.4730E-02  0.2435E+00  0.2435E+00
     -9.791  0.1206E-01  0.1206E-01  0.2461E+00  0.2461E+00
     -9.574  0.1800E-01  0.1800E-01  0.2500E+00  0.2500E+00
     -9.357  0.2007E-01  0.2007E-01  0.2543E+00  0.2543E+00
     -9.139  0.2209E-01  0.2209E-01  0.2591E+00  0.2591E+00
     -8.922  0.2260E-01  0.2260E-01  0.2641E+00  0.2641E+00
     -8.705  0.2921E-01  0.2921E-01  0.2704E+00  0.2704E+00
     -8.488  0.4094E-01  0.4094E-01  0.2793E+00  0.2793E+00
     -8.270  0.5132E-01  0.5132E-01  0.2904E+00  0.2904E+00
     -8.053  0.5704E-01  0.5704E-01  0.3028E+00  0.3028E+00
     -7.836  0.5324E-01  0.5324E-01  0.3144E+00  0.3144E+00
     -7.619  0.3710E-01  0.3710E-01  0.3225E+00  0.3225E+00
     -7.401  0.3507E-02  0.3507E-02  0.3232E+00  0.3232E+00
     -7.184  0.1808E-08  0.1808E-08  0.3232E+00  0.3232E+00
     -6.967  0.0000E+00  0.0000E+00  0.3232E+00  0.3232E+00
     -6.750  0.0000E+00  0.0000E+00  0.3232E+00  0.3232E+00
     -6.532  0.0000E+00  0.0000E+00  0.3232E+00  0.3232E+00
     -6.315  0.0000E+00  0.0000E+00  0.3232E+00  0.3232E+00
     -6.098  0.0000E+00  0.0000E+00  0.3232E+00  0.3232E+00
     -5.880  0.0000E+00  0.0000E+00  0.3232E+00  0.3232E+00
     -5.663  0.0000E+00  0.0000E+00  0.3232E+00  0.3232E+00
     -5.446  0.0000E+00  0.0000E+00  0.3232E+00  0.3232E+00
     -5.229  0.0000E+00  0.0000E+00  0.3232E+00  0.3232E+00
     -5.011  0.0000E+00  0.0000E+00  0.3232E+00  0.3232E+00
     -4.794  0.0000E+00  0.0000E+00  0.3232E+00  0.3232E+00
     -4.577  0.0000E+00  0.0000E+00  0.3232E+00  0.3232E+00
     -4.360  0.0000E+00  0.0000E+00  0.3232E+00  0.3232E+00
     -4.142  0.0000E+00  0.0000E+00  0.3232E+00  0.3232E+00
     -3.925  0.0000E+00  0.0000E+00  0.3232E+00  0.3232E+00
     -3.708  0.0000E+00  0.0000E+00  0.3232E+00  0.3232E+00
     -3.491  0.0000E+00  0.0000E+00  0.3232E+00  0.3232E+00
     -3.273  0.0000E+00  0.0000E+00  0.3232E+00  0.3232E+00
     -3.056  0.0000E+00  0.0000E+00  0.3232E+00  0.3232E+00
     -2.839  0.0000E+00  0.0000E+00  0.3232E+00  0.3232E+00
     -2.622  0.0000E+00  0.0000E+00  0.3232E+00  0.3232E+00
     -2.404  0.0000E+00  0.0000E+00  0.3232E+00  0.3232E+00
     -2.187  0.0000E+00  0.0000E+00  0.3232E+00  0.3232E+00
     -1.970  0.0000E+00  0.0000E+00  0.3232E+00  0.3232E+00
     -1.753  0.3962E-06  0.3962E-06  0.3232E+00  0.3232E+00
     -1.535  0.3253E-02  0.3253E-02  0.3239E+00  0.3239E+00
     -1.318  0.2373E-01  0.2373E-01  0.3291E+00  0.3291E+00
     -1.101  0.4802E-01  0.4802E-01  0.3395E+00  0.3395E+00
     -0.884  0.6730E-01  0.6730E-01  0.3542E+00  0.3542E+00
     -0.666  0.5937E-01  0.5937E-01  0.3671E+00  0.3671E+00
     -0.449  0.6473E-01  0.6473E-01  0.3811E+00  0.3811E+00
     -0.232  0.3916E-01  0.3916E-01  0.3896E+00  0.3896E+00
     -0.014  0.3056E-01  0.3056E-01  0.3963E+00  0.3963E+00
      0.203  0.3464E-01  0.3464E-01  0.4038E+00  0.4038E+00
      0.420  0.4525E-01  0.4525E-01  0.4136E+00  0.4136E+00
      0.637  0.4025E-01  0.4025E-01  0.4224E+00  0.4224E+00
      0.855  0.6298E-01  0.6298E-01  0.4360E+00  0.4360E+00
      1.072  0.8466E-01  0.8466E-01  0.4544E+00  0.4544E+00
      1.289  0.9828E-01  0.9828E-01  0.4758E+00  0.4758E+00
      1.506  0.1032E+00  0.1032E+00  0.4982E+00  0.4982E+00
      1.724  0.1022E+00  0.1022E+00  0.5204E+00  0.5204E+00
      1.941  0.8060E-01  0.8060E-01  0.5379E+00  0.5379E+00
      2.158  0.7495E-01  0.7495E-01  0.5542E+00  0.5542E+00
      2.375  0.9225E-01  0.9225E-01  0.5743E+00  0.5743E+00
      2.593  0.1100E+00  0.1100E+00  0.5982E+00  0.5982E+00
      2.810  0.1020E+00  0.1020E+00  0.6203E+00  0.6203E+00
      3.027  0.1402E+00  0.1402E+00  0.6508E+00  0.6508E+00
      3.244  0.1351E+00  0.1351E+00  0.6801E+00  0.6801E+00
      3.462  0.1124E+00  0.1124E+00  0.7046E+00  0.7046E+00
      3.679  0.9144E-01  0.9144E-01  0.7244E+00  0.7244E+00
      3.896  0.6966E-01  0.6966E-01  0.7396E+00  0.7396E+00
      4.113  0.7004E-01  0.7004E-01  0.7548E+00  0.7548E+00
      4.331  0.5522E-01  0.5522E-01  0.7668E+00  0.7668E+00
      4.548  0.4877E-01  0.4877E-01  0.7774E+00  0.7774E+00
      4.765  0.7575E-01  0.7575E-01  0.7938E+00  0.7938E+00
      4.982  0.7560E-01  0.7560E-01  0.8102E+00  0.8102E+00
      5.200  0.7149E-01  0.7149E-01  0.8258E+00  0.8258E+00
      5.417  0.1171E+00  0.1171E+00  0.8512E+00  0.8512E+00
      5.634  0.1064E+00  0.1064E+00  0.8743E+00  0.8743E+00
      5.852  0.8725E-01  0.8725E-01  0.8933E+00  0.8933E+00
      6.069  0.8557E-01  0.8557E-01  0.9119E+00  0.9119E+00
      6.286  0.8041E-01  0.8041E-01  0.9294E+00  0.9294E+00
      6.503  0.9773E-01  0.9773E-01  0.9506E+00  0.9506E+00
      6.721  0.3452E-01  0.3452E-01  0.9581E+00  0.9581E+00
      6.938  0.1625E-01  0.1625E-01  0.9616E+00  0.9616E+00
      7.155  0.1413E-01  0.1413E-01  0.9647E+00  0.9647E+00
      7.372  0.1727E-01  0.1727E-01  0.9684E+00  0.9684E+00
      7.590  0.1090E-01  0.1090E-01  0.9708E+00  0.9708E+00
      7.807  0.7451E-02  0.7451E-02  0.9724E+00  0.9724E+00
      8.024  0.1109E-01  0.1109E-01  0.9748E+00  0.9748E+00
      8.241  0.1421E-01  0.1421E-01  0.9779E+00  0.9779E+00
      8.459  0.1835E-01  0.1835E-01  0.9819E+00  0.9819E+00
      8.676  0.3073E-01  0.3078E-01  0.9886E+00  0.9886E+00
      8.893  0.3839E-01  0.3849E-01  0.9969E+00  0.9970E+00
      9.110  0.3522E-01  0.3514E-01  0.1005E+01  0.1005E+01
      9.328  0.1656E-01  0.1644E-01  0.1008E+01  0.1008E+01
      9.545  0.7743E-02  0.7715E-02  0.1010E+01  0.1010E+01
      9.762  0.1093E-02  0.1171E-02  0.1010E+01  0.1010E+01
      9.979  0.2334E-07  0.3885E-07  0.1010E+01  0.1010E+01
     10.197  0.0000E+00  0.0000E+00  0.1010E+01  0.1010E+01
     10.414  0.0000E+00  0.0000E+00  0.1010E+01  0.1010E+01
     10.631  0.0000E+00  0.0000E+00  0.1010E+01  0.1010E+01
     10.848  0.0000E+00  0.0000E+00  0.1010E+01  0.1010E+01
     11.066  0.0000E+00  0.0000E+00  0.1010E+01  0.1010E+01
     11.283  0.0000E+00  0.0000E+00  0.1010E+01  0.1010E+01
     11.500  0.0000E+00  0.0000E+00  0.1010E+01  0.1010E+01
     11.717  0.0000E+00  0.0000E+00  0.1010E+01  0.1010E+01
     11.935  0.0000E+00  0.0000E+00  0.1010E+01  0.1010E+01
     12.152  0.0000E+00  0.0000E+00  0.1010E+01  0.1010E+01
     12.369  0.0000E+00  0.0000E+00  0.1010E+01  0.1010E+01
     12.587  0.0000E+00  0.0000E+00  0.1010E+01  0.1010E+01
     12.58652773    -52.59115302  301      4.95922888      1.00000000
    -52.591  0.0000E+00  0.0000E+00  0.0000E+00  0.0000E+00  0.0000E+00  0.0000E+00  0.0000E+00  0.0000E+00  0.0000E+00  0.0000E+00  0.0000E+00  0.0000E+00  0.0000E+00  0.0000E+00  0.0000E+00  0.0000E+00  0.0000E+00  0.0000E+00
    -52.374  0.0000E+00  0.0000E+00  0.0000E+00  0.0000E+00  0.0000E+00  0.0000E+00  0.0000E+00  0.0000E+00  0.0000E+00  0.0000E+00  0.0000E+00  0.0000E+00  0.0000E+00  0.0000E+00  0.0000E+00  0.0000E+00  0.0000E+00  0.0000E+00
    -52.157  0.0000E+00  0.0000E+00  0.0000E+00  0.0000E+00  0.0000E+00  0.0000E+00  0.0000E+00  0.0000E+00  0.0000E+00  0.0000E+00  0.0000E+00  0.0000E+00  0.0000E+00  0.0000E+00  0.0000E+00  0.0000E+00  0.0000E+00  0.0000E+00
    -51.939  0.0000E+00  0.0000E+00  0.0000E+00  0.0000E+00  0.0000E+00  0.0000E+00  0.0000E+00  0.0000E+00  0.0000E+00  0.0000E+00  0.0000E+00  0.0000E+00  0.0000E+00  0.0000E+00  0.0000E+00  0.0000E+00  0.0000E+00  0.0000E+00
    -51.722  0.0000E+00  0.0000E+00  0.0000E+00  0.0000E+00  0.0000E+00  0.0000E+00  0.0000E+00  0.0000E+00  0.0000E+00  0.0000E+00  0.0000E+00  0.0000E+00  0.0000E+00  0.0000E+00  0.0000E+00  0.0000E+00  0.0000E+00  0.0000E+00
    -51.505  0.0000E+00  0.0000E+00  0.0000E+00  0.0000E+00  0.0000E+00  0.0000E+00  0.0000E+00  0.0000E+00  0.0000E+00  0.0000E+00  0.0000E+00  0.0000E+00  0.0000E+00  0.0000E+00  0.0000E+00  0.0000E+00  0.0000E+00  0.0000E+00
    -51.288  0.0000E+00  0.0000E+00  0.0000E+00  0.0000E+00  0.0000E+00  0.0000E+00  0.0000E+00  0.0000E+00  0.0000E+00  0.0000E+00  0.0000E+00  0.0000E+00  0.0000E+00  0.0000E+00  0.0000E+00  0.0000E+00  0.0000E+00  0.0000E+00
    -51.070  0.0000E+00  0.0000E+00  0.0000E+00  0.0000E+00  0.0000E+00  0.0000E+00  0.0000E+00  0.0000E+00  0.0000E+00  0.0000E+00  0.0000E+00  0.0000E+00  0.0000E+00  0.0000E+00  0.0000E+00  0.0000E+00  0.0000E+00  0.0000E+00
    -50.853  0.0000E+00  0.0000E+00  0.0000E+00  0.0000E+00  0.0000E+00  0.0000E+00  0.0000E+00  0.0000E+00  0.0000E+00  0.0000E+00  0.0000E+00  0.0000E+00  0.0000E+00  0.0000E+00  0.0000E+00  0.0000E+00  0.0000E+00  0.0000E+00
    -50.636  0.0000E+00  0.0000E+00  0.0000E+00  0.0000E+00  0.0000E+00  0.0000E+00  0.0000E+00  0.0000E+00  0.0000E+00  0.0000E+00  0.0000E+00  0.0000E+00  0.0000E+00  0.0000E+00  0.0000E+00  0.0000E+00  0.0000E+00  0.0000E+00
    -50.419  0.0000E+00  0.0000E+00  0.0000E+00  0.0000E+00  0.0000E+00  0.0000E+00  0.0000E+00  0.0000E+00  0.0000E+00  0.0000E+00  0.0000E+00  0.0000E+00  0.0000E+00  0.0000E+00  0.0000E+00  0.0000E+00  0.0000E+00  0.0000E+00
    -50.201  0.0000E+00  0.0000E+00  0.0000E+00  0.0000E+00  0.0000E+00  0.0000E+00  0.0000E+00  0.0000E+00  0.0000E+00  0.0000E+00  0.0000E+00  0.0000E+00  0.0000E+00  0.0000E+00  0.0000E+00  0.0000E+00  0.0000E+00  0.0000E+00
    -49.984  0.0000E+00  0.0000E+00  0.0000E+00  0.0000E+00  0.0000E+00  0.0000E+00  0.0000E+00  0.0000E+00  0.0000E+00  0.0000E+00  0.0000E+00  0.0000E+00  0.0000E+00  0.0000E+00  0.0000E+00  0.0000E+00  0.0000E+00  0.0000E+00
    -49.767  0.1700E-11  0.2479E-10  0.7236E-05  0.1529E-08  0.5653E-04  0.2395E-09  0.5206E-06  0.2023E-11  0.1731E-10  0.1388E-12  0.1834E-15  0.1151E-10  0.7929E-12  0.7202E-11  0.1161E-09  0.5946E-14  0.2380E-11  0.3000E-10
    -49.550  0.1951E-04  0.2736E-05  0.7807E+00  0.1681E-03  0.3664E+01  0.1656E-04  0.9984E+00  0.2643E-05  0.2318E-05  0.1687E-06  0.1104E-09  0.7522E-06  0.9118E-05  0.8603E-06  0.1127E-04  0.6626E-09  0.2736E-04  0.3127E-05
    -49.332  0.1382E-03  0.1063E-04  0.3802E+01  0.7199E-03  0.9200E+00  0.3003E-05  0.1751E+01  0.3815E-05  0.1176E-04  0.2558E-06  0.5367E-09  0.4606E-07  0.6456E-04  0.4242E-05  0.2711E-05  0.1630E-09  0.1937E-03  0.1341E-04
    -49.115  0.7318E-04  0.6431E-08  0.4802E-03  0.2737E-06  0.6323E-04  0.2422E-08  0.1826E+01  0.1967E-05  0.1064E-08  0.1494E-06  0.2589E-09  0.2220E-10  0.3411E-04  0.2347E-08  0.1600E-09  0.1109E-09  0.1023E-03  0.1817E-08
    -48.898  0.6219E-07  0.4188E-11  0.1014E-11  0.1714E-09  0.1235E-13  0.1968E-11  0.1046E-01  0.9520E-08  0.8829E-13  0.7622E-09  0.2220E-12  0.7965E-13  0.2896E-07  0.1549E-11  0.1399E-13  0.8577E-12  0.8692E-07  0.1659E-12
    -48.680  0.0000E+00  0.0000E+00  0.0000E+00  0.0000E+00  0.0000E+00  0.0000E+00  0.0000E+00  0.0000E+00  0.0000E+00  0.0000E+00  0.0000E+00  0.0000E+00  0.0000E+00  0.0000E+00  0.0000E+00  0.0000E+00  0.0000E+00  0.0000E+00
    -48.463  0.0000E+00  0.0000E+00  0.0000E+00  0.0000E+00  0.0000E+00  0.0000E+00  0.0000E+00  0.0000E+00  0.0000E+00  0.0000E+00  0.0000E+00  0.0000E+00  0.0000E+00  0.0000E+00  0.0000E+00  0.0000E+00  0.0000E+00  0.0000E+00
    -48.246  0.0000E+00  0.0000E+00  0.0000E+00  0.0000E+00  0.0000E+00  0.0000E+00  0.0000E+00  0.0000E+00  0.0000E+00  0.0000E+00  0.0000E+00  0.0000E+00  0.0000E+00  0.0000E+00  0.0000E+00  0.0000E+00  0.0000E+00  0.0000E+00
    -48.029  0.0000E+00  0.0000E+00  0.0000E+00  0.0000E+00  0.0000E+00  0.0000E+00  0.0000E+00  0.0000E+00  0.0000E+00  0.0000E+00  0.0000E+00  0.0000E+00  0.0000E+00  0.0000E+00  0.0000E+00  0.0000E+00  0.0000E+00  0.0000E+00
    -47.811  0.0000E+00  0.0000E+00  0.0000E+00  0.0000E+00  0.0000E+00  0.0000E+00  0.0000E+00  0.0000E+00  0.0000E+00  0.0000E+00  0.0000E+00  0.0000E+00  0.0000E+00  0.0000E+00  0.0000E+00  0.0000E+00  0.0000E+00  0.0000E+00
    -47.594  0.0000E+00  0.0000E+00  0.0000E+00  0.0000E+00  0.0000E+00  0.0000E+00  0.0000E+00  0.0000E+00  0.0000E+00  0.0000E+00  0.0000E+00  0.0000E+00  0.0000E+00  0.0000E+00  0.0000E+00  0.0000E+00  0.0000E+00  0.0000E+00
    -47.377  0.0000E+00  0.0000E+00  0.0000E+00  0.0000E+00  0.0000E+00  0.0000E+00  0.0000E+00  0.0000E+00  0.0000E+00  0.0000E+00  0.0000E+00  0.0000E+00  0.0000E+00  0.0000E+00  0.0000E+00  0.0000E+00  0.0000E+00  0.0000E+00
    -47.160  0.2901E-07  0.5757E-08  0.1823E-05  0.6692E-02  0.3567E-07  0.8839E-02  0.4879E-08  0.1106E-02  0.2806E-09  0.2313E-07  0.3298E-08  0.3019E-12  0.9683E-08  0.2694E-08  0.6593E-12  0.3048E-07  0.3453E-07  0.8114E-08
    -46.942  0.8688E-05  0.5812E-04  0.5575E-03  0.2007E+01  0.1039E-04  0.2559E+01  0.5130E-05  0.1561E+01  0.3532E-06  0.7163E-05  0.9423E-06  0.9955E-09  0.2906E-05  0.2714E-04  0.2839E-09  0.9272E-05  0.1021E-04  0.8174E-04
    -46.725  0.2418E-05  0.1573E-03  0.1227E-03  0.6608E+00  0.8132E-06  0.5258E+00  0.3110E-05  0.1478E+01  0.2362E-06  0.2447E-05  0.5029E-07  0.2532E-08  0.1002E-05  0.7336E-04  0.1314E-09  0.1958E-05  0.3050E-05  0.2210E-03
    -46.508  0.6871E-05  0.5846E-04  0.3549E-03  0.1910E+01  0.2324E-05  0.1491E+01  0.2121E-05  0.1545E+01  0.1697E-06  0.6912E-05  0.1408E-06  0.8962E-09  0.2847E-05  0.2727E-04  0.1987E-09  0.5478E-05  0.8741E-05  0.8218E-04
    -46.291  0.3300E-12  0.6038E-08  0.1239E-10  0.4762E-12  0.2162E-14  0.2149E-12  0.1204E-08  0.1139E-02  0.1106E-09  0.1824E-13  0.7131E-14  0.1250E-12  0.9449E-13  0.2814E-08  0.7008E-13  0.8166E-14  0.9521E-13  0.8485E-08
    -46.073  0.0000E+00  0.0000E+00  0.0000E+00  0.0000E+00  0.0000E+00  0.0000E+00  0.0000E+00  0.0000E+00  0.0000E+00  0.0000E+00  0.0000E+00  0.0000E+00  0.0000E+00  0.0000E+00  0.0000E+00  0.0000E+00  0.0000E+00  0.0000E+00
    -45.856  0.0000E+00  0.0000E+00  0.0000E+00  0.0000E+00  0.0000E+00  0.0000E+00  0.0000E+00  0.0000E+00  0.0000E+00  0.0000E+00  0.0000E+00  0.0000E+00  0.0000E+00  0.0000E+00  0.0000E+00  0.0000E+00  0.0000E+00  0.0000E+00
    -45.639  0.0000E+00  0.0000E+00  0.0000E+00  0.0000E+00  0.0000E+00  0.0000E+00  0.0000E+00  0.0000E+00  0.0000E+00  0.0000E+00  0.0000E+00  0.0000E+00  0.0000E+00  0.0000E+00  0.0000E+00  0.0000E+00  0.0000E+00  0.0000E+00
    -45.422  0.0000E+00  0.0000E+00  0.0000E+00  0.0000E+00  0.0000E+00  0.0000E+00  0.0000E+00  0.0000E+00  0.0000E+00  0.0000E+00  0.0000E+00  0.0000E+00  0.0000E+00  0.0000E+00  0.0000E+00  0.0000E+00  0.0000E+00  0.0000E+00
    -45.204  0.0000E+00  0.0000E+00  0.0000E+00  0.0000E+00  0.0000E+00  0.0000E+00  0.0000E+00  0.0000E+00  0.0000E+00  0.0000E+00  0.0000E+00  0.0000E+00  0.0000E+00  0.0000E+00  0.0000E+00  0.0000E+00  0.0000E+00  0.0000E+00
    -44.987  0.0000E+00  0.0000E+00  0.0000E+00  0.0000E+00  0.0000E+00  0.0000E+00  0.0000E+00  0.0000E+00  0.0000E+00  0.0000E+00  0.0000E+00  0.0000E+00  0.0000E+00  0.0000E+00  0.0000E+00  0.0000E+00  0.0000E+00  0.0000E+00
    -44.770  0.0000E+00  0.0000E+00  0.0000E+00  0.0000E+00  0.0000E+00  0.0000E+00  0.0000E+00  0.0000E+00  0.0000E+00  0.0000E+00  0.0000E+00  0.0000E+00  0.0000E+00  0.0000E+00  0.0000E+00  0.0000E+00  0.0000E+00  0.0000E+00
    -44.553  0.0000E+00  0.0000E+00  0.0000E+00  0.0000E+00  0.0000E+00  0.0000E+00  0.0000E+00  0.0000E+00  0.0000E+00  0.0000E+00  0.0000E+00  0.0000E+00  0.0000E+00  0.0000E+00  0.0000E+00  0.0000E+00  0.0000E+00  0.0000E+00
    -44.335  0.0000E+00  0.0000E+00  0.0000E+00  0.0000E+00  0.0000E+00  0.0000E+00  0.0000E+00  0.0000E+00  0.0000E+00  0.0000E+00  0.0000E+00  0.0000E+00  0.0000E+00  0.0000E+00  0.0000E+00  0.0000E+00  0.0000E+00  0.0000E+00
    -44.118  0.0000E+00  0.0000E+00  0.0000E+00  0.0000E+00  0.0000E+00  0.0000E+00  0.0000E+00  0.0000E+00  0.0000E+00  0.0000E+00  0.0000E+00  0.0000E+00  0.0000E+00  0.0000E+00  0.0000E+00  0.0000E+00  0.0000E+00  0.0000E+00
    -43.901  0.0000E+00  0.0000E+00  0.0000E+00  0.0000E+00  0.0000E+00  0.0000E+00  0.0000E+00  0.0000E+00  0.0000E+00  0.0000E+00  0.0000E+00  0.0000E+00  0.0000E+00  0.0000E+00  0.0000E+00  0.0000E+00  0.0000E+00  0.0000E+00
    -43.684  0.0000E+00  0.0000E+00  0.0000E+00  0.0000E+00  0.0000E+00  0.0000E+00  0.0000E+00  0.0000E+00  0.0000E+00  0.0000E+00  0.0000E+00  0.0000E+00  0.0000E+00  0.0000E+00  0.0000E+00  0.0000E+00  0.0000E+00  0.0000E+00
    -43.466  0.0000E+00  0.0000E+00  0.0000E+00  0.0000E+00  0.0000E+00  0.0000E+00  0.0000E+00  0.0000E+00  0.0000E+00  0.0000E+00  0.0000E+00  0.0000E+00  0.0000E+00  0.0000E+00  0.0000E+00  0.0000E+00  0.0000E+00  0.0000E+00
    -43.249  0.0000E+00  0.0000E+00  0.0000E+00  0.0000E+00  0.0000E+00  0.0000E+00  0.0000E+00  0.0000E+00  0.0000E+00  0.0000E+00  0.0000E+00  0.0000E+00  0.0000E+00  0.0000E+00  0.0000E+00  0.0000E+00  0.0000E+00  0.0000E+00
    -43.032  0.0000E+00  0.0000E+00  0.0000E+00  0.0000E+00  0.0000E+00  0.0000E+00  0.0000E+00  0.0000E+00  0.0000E+00  0.0000E+00  0.0000E+00  0.0000E+00  0.0000E+00  0.0000E+00  0.0000E+00  0.0000E+00  0.0000E+00  0.0000E+00
    -42.815  0.0000E+00  0.0000E+00  0.0000E+00  0.0000E+00  0.0000E+00  0.0000E+00  0.0000E+00  0.0000E+00  0.0000E+00  0.0000E+00  0.0000E+00  0.0000E+00  0.0000E+00  0.0000E+00  0.0000E+00  0.0000E+00  0.0000E+00  0.0000E+00
    -42.597  0.0000E+00  0.0000E+00  0.0000E+00  0.0000E+00  0.0000E+00  0.0000E+00  0.0000E+00  0.0000E+00  0.0000E+00  0.0000E+00  0.0000E+00  0.0000E+00  0.0000E+00  0.0000E+00  0.0000E+00  0.0000E+00  0.0000E+00  0.0000E+00
    -42.380  0.0000E+00  0.0000E+00  0.0000E+00  0.0000E+00  0.0000E+00  0.0000E+00  0.0000E+00  0.0000E+00  0.0000E+00  0.0000E+00  0.0000E+00  0.0000E+00  0.0000E+00  0.0000E+00  0.0000E+00  0.0000E+00  0.0000E+00  0.0000E+00
    -42.163  0.0000E+00  0.0000E+00  0.0000E+00  0.0000E+00  0.0000E+00  0.0000E+00  0.0000E+00  0.0000E+00  0.0000E+00  0.0000E+00  0.0000E+00  0.0000E+00  0.0000E+00  0.0000E+00  0.0000E+00  0.0000E+00  0.0000E+00  0.0000E+00
    -41.945  0.0000E+00  0.0000E+00  0.0000E+00  0.0000E+00  0.0000E+00  0.0000E+00  0.0000E+00  0.0000E+00  0.0000E+00  0.0000E+00  0.0000E+00  0.0000E+00  0.0000E+00  0.0000E+00  0.0000E+00  0.0000E+00  0.0000E+00  0.0000E+00
    -41.728  0.0000E+00  0.0000E+00  0.0000E+00  0.0000E+00  0.0000E+00  0.0000E+00  0.0000E+00  0.0000E+00  0.0000E+00  0.0000E+00  0.0000E+00  0.0000E+00  0.0000E+00  0.0000E+00  0.0000E+00  0.0000E+00  0.0000E+00  0.0000E+00