  16  16   1   0
  0.1731250E+02  0.7206016E-09  0.7206016E-09  0.5390512E-09  0.5000000E-15
  1.000000000000000E-004
  CAR 
 unknown system                          
     12.63718454    -52.59182141  301      4.95944902      1.00000000
    -52.592  0.0000E+00  0.0000E+00  0.0000E+00  0.0000E+00
    -52.374  0.0000E+00  0.0000E+00  0.0000E+00  0.0000E+00
    -52.157  0.0000E+00  0.0000E+00  0.0000E+00  0.0000E+00
    -51.940  0.0000E+00  0.0000E+00  0.0000E+00  0.0000E+00
    -51.722  0.0000E+00  0.0000E+00  0.0000E+00  0.0000E+00
    -51.505  0.0000E+00  0.0000E+00  0.0000E+00  0.0000E+00
    -51.287  0.0000E+00  0.0000E+00  0.0000E+00  0.0000E+00
    -51.070  0.0000E+00  0.0000E+00  0.0000E+00  0.0000E+00
    -50.852  0.0000E+00  0.0000E+00  0.0000E+00  0.0000E+00
    -50.635  0.0000E+00  0.0000E+00  0.0000E+00  0.0000E+00
    -50.418  0.0000E+00  0.0000E+00  0.0000E+00  0.0000E+00
    -50.200  0.0000E+00  0.0000E+00  0.0000E+00  0.0000E+00
    -49.983  0.0000E+00  0.0000E+00  0.0000E+00  0.0000E+00
    -49.765  0.0000E+00  0.0000E+00  0.0000E+00  0.0000E+00
    -49.548  0.2300E+02  0.2300E+02  0.5000E+01  0.5000E+01
    -49.330  0.3077E+02  0.3077E+02  0.1037E+02  0.1037E+02
    -49.113  0.6570E+01  0.6570E+01  0.1200E+02  0.1200E+02
    -48.896  0.0000E+00  0.0000E+00  0.1200E+02  0.1200E+02
    -48.678  0.0000E+00  0.0000E+00  0.1200E+02  0.1200E+02
    -48.461  0.0000E+00  0.0000E+00  0.1200E+02  0.1200E+02
    -48.243  0.0000E+00  0.0000E+00  0.1200E+02  0.1200E+02
    -48.026  0.0000E+00  0.0000E+00  0.1200E+02  0.1200E+02
    -47.808  0.0000E+00  0.0000E+00  0.1200E+02  0.1200E+02
    -47.591  0.0000E+00  0.0000E+00  0.1200E+02  0.1200E+02
    -47.374  0.0000E+00  0.0000E+00  0.1200E+02  0.1200E+02
    -47.156  0.0000E+00  0.0000E+00  0.1200E+02  0.1200E+02
    -46.939  0.3034E+02  0.3034E+02  0.1740E+02  0.1740E+02
    -46.721  0.1310E+02  0.1310E+02  0.1869E+02  0.1869E+02
    -46.504  0.2365E+02  0.2365E+02  0.2400E+02  0.2400E+02
    -46.286  0.0000E+00  0.0000E+00  0.2400E+02  0.2400E+02
    -46.069  0.0000E+00  0.0000E+00  0.2400E+02  0.2400E+02
    -45.851  0.0000E+00  0.0000E+00  0.2400E+02  0.2400E+02
    -45.634  0.0000E+00  0.0000E+00  0.2400E+02  0.2400E+02
    -45.417  0.0000E+00  0.0000E+00  0.2400E+02  0.2400E+02
    -45.199  0.0000E+00  0.0000E+00  0.2400E+02  0.2400E+02
    -44.982  0.0000E+00  0.0000E+00  0.2400E+02  0.2400E+02
    -44.764  0.0000E+00  0.0000E+00  0.2400E+02  0.2400E+02
    -44.547  0.0000E+00  0.0000E+00  0.2400E+02  0.2400E+02
    -44.329  0.0000E+00  0.0000E+00  0.2400E+02  0.2400E+02
    -44.112  0.0000E+00  0.0000E+00  0.2400E+02  0.2400E+02
    -43.895  0.0000E+00  0.0000E+00  0.2400E+02  0.2400E+02
    -43.677  0.0000E+00  0.0000E+00  0.2400E+02  0.2400E+02
    -43.460  0.0000E+00  0.0000E+00  0.2400E+02  0.2400E+02
    -43.242  0.0000E+00  0.0000E+00  0.2400E+02  0.2400E+02
    -43.025  0.0000E+00  0.0000E+00  0.2400E+02  0.2400E+02
    -42.807  0.0000E+00  0.0000E+00  0.2400E+02  0.2400E+02
    -42.590  0.0000E+00  0.0000E+00  0.2400E+02  0.2400E+02
    -42.373  0.0000E+00  0.0000E+00  0.2400E+02  0.2400E+02
    -42.155  0.0000E+00  0.0000E+00  0.2400E+02  0.2400E+02
    -41.938  0.0000E+00  0.0000E+00  0.2400E+02  0.2400E+02
    -41.720  0.0000E+00  0.0000E+00  0.2400E+02  0.2400E+02
    -41.503  0.0000E+00  0.0000E+00  0.2400E+02  0.2400E+02
    -41.285  0.0000E+00  0.0000E+00  0.2400E+02  0.2400E+02
    -41.068  0.0000E+00  0.0000E+00  0.2400E+02  0.2400E+02
    -40.851  0.0000E+00  0.0000E+00  0.2400E+02  0.2400E+02
    -40.633  0.0000E+00  0.0000E+00  0.2400E+02  0.2400E+02
    -40.416  0.0000E+00  0.0000E+00  0.2400E+02  0.2400E+02
    -40.198  0.0000E+00  0.0000E+00  0.2400E+02  0.2400E+02
    -39.981  0.0000E+00  0.0000E+00  0.2400E+02  0.2400E+02
    -39.763  0.0000E+00  0.0000E+00  0.2400E+02  0.2400E+02
    -39.546  0.0000E+00  0.0000E+00  0.2400E+02  0.2400E+02
    -39.329  0.0000E+00  0.0000E+00  0.2400E+02  0.2400E+02
    -39.111  0.0000E+00  0.0000E+00  0.2400E+02  0.2400E+02
    -38.894  0.0000E+00  0.0000E+00  0.2400E+02  0.2400E+02
    -38.676  0.0000E+00  0.0000E+00  0.2400E+02  0.2400E+02
    -38.459  0.0000E+00  0.0000E+00  0.2400E+02  0.2400E+02
    -38.241  0.0000E+00  0.0000E+00  0.2400E+02  0.2400E+02
    -38.024  0.0000E+00  0.0000E+00  0.2400E+02  0.2400E+02
    -37.807  0.0000E+00  0.0000E+00  0.2400E+02  0.2400E+02
    -37.589  0.0000E+00  0.0000E+00  0.2400E+02  0.2400E+02
    -37.372  0.0000E+00  0.0000E+00  0.2400E+02  0.2400E+02
    -37.154  0.0000E+00  0.0000E+00  0.2400E+02  0.2400E+02
    -36.937  0.0000E+00  0.0000E+00  0.2400E+02  0.2400E+02
    -36.719  0.0000E+00  0.0000E+00  0.2400E+02  0.2400E+02
    -36.502  0.0000E+00  0.0000E+00  0.2400E+02  0.2400E+02
    -36.285  0.0000E+00  0.0000E+00  0.2400E+02  0.2400E+02
    -36.067  0.0000E+00  0.0000E+00  0.2400E+02  0.2400E+02
    -35.850  0.0000E+00  0.0000E+00  0.2400E+02  0.2400E+02
    -35.632  0.0000E+00  0.0000E+00  0.2400E+02  0.2400E+02
    -35.415  0.0000E+00  0.0000E+00  0.2400E+02  0.2400E+02
    -35.197  0.0000E+00  0.0000E+00  0.2400E+02  0.2400E+02
    -34.980  0.0000E+00  0.0000E+00  0.2400E+02  0.2400E+02
    -34.763  0.0000E+00  0.0000E+00  0.2400E+02  0.2400E+02
    -34.545  0.0000E+00  0.0000E+00  0.2400E+02  0.2400E+02
    -34.328  0.0000E+00  0.0000E+00  0.2400E+02  0.2400E+02
    -34.110  0.0000E+00  0.0000E+00  0.2400E+02  0.2400E+02
    -33.893  0.0000E+00  0.0000E+00  0.2400E+02  0.2400E+02
    -33.675  0.0000E+00  0.0000E+00  0.2400E+02  0.2400E+02
    -33.458  0.0000E+00  0.0000E+00  0.2400E+02  0.2400E+02
    -33.241  0.0000E+00  0.0000E+00  0.2400E+02  0.2400E+02
    -33.023  0.0000E+00  0.0000E+00  0.2400E+02  0.2400E+02
    -32.806  0.0000E+00  0.0000E+00  0.2400E+02  0.2400E+02
    -32.588  0.0000E+00  0.0000E+00  0.2400E+02  0.2400E+02
    -32.371  0.0000E+00  0.0000E+00  0.2400E+02  0.2400E+02
    -32.153  0.0000E+00  0.0000E+00  0.2400E+02  0.2400E+02
    -31.936  0.0000E+00  0.0000E+00  0.2400E+02  0.2400E+02
    -31.719  0.0000E+00  0.0000E+00  0.2400E+02  0.2400E+02
    -31.501  0.0000E+00  0.0000E+00  0.2400E+02  0.2400E+02
    -31.284  0.0000E+00  0.0000E+00  0.2400E+02  0.2400E+02
    -31.066  0.0000E+00  0.0000E+00  0.2400E+02  0.2400E+02
    -30.849  0.0000E+00  0.0000E+00  0.2400E+02  0.2400E+02
    -30.631  0.0000E+00  0.0000E+00  0.2400E+02  0.2400E+02
    -30.414  0.0000E+00  0.0000E+00  0.2400E+02  0.2400E+02
    -30.197  0.0000E+00  0.0000E+00  0.2400E+02  0.2400E+02
    -29.979  0.0000E+00  0.0000E+00  0.2400E+02  0.2400E+02
    -29.762  0.0000E+00  0.0000E+00  0.2400E+02  0.2400E+02
    -29.544  0.0000E+00  0.0000E+00  0.2400E+02  0.2400E+02
    -29.327  0.0000E+00  0.0000E+00  0.2400E+02  0.2400E+02
    -29.109  0.0000E+00  0.0000E+00  0.2400E+02  0.2400E+02
    -28.892  0.0000E+00  0.0000E+00  0.2400E+02  0.2400E+02
    -28.675  0.0000E+00  0.0000E+00  0.2400E+02  0.2400E+02
    -28.457  0.0000E+00  0.0000E+00  0.2400E+02  0.2400E+02
    -28.240  0.0000E+00  0.0000E+00  0.2400E+02  0.2400E+02
    -28.022  0.0000E+00  0.0000E+00  0.2400E+02  0.2400E+02
    -27.805  0.0000E+00  0.0000E+00  0.2400E+02  0.2400E+02
    -27.587  0.0000E+00  0.0000E+00  0.2400E+02  0.2400E+02
    -27.370  0.0000E+00  0.0000E+00  0.2400E+02  0.2400E+02
    -27.153  0.0000E+00  0.0000E+00  0.2400E+02  0.2400E+02
    -26.935  0.0000E+00  0.0000E+00  0.2400E+02  0.2400E+02
    -26.718  0.0000E+00  0.0000E+00  0.2400E+02  0.2400E+02
    -26.500  0.0000E+00  0.0000E+00  0.2400E+02  0.2400E+02
    -26.283  0.0000E+00  0.0000E+00  0.2400E+02  0.2400E+02
    -26.065  0.0000E+00  0.0000E+00  0.2400E+02  0.2400E+02
    -25.848  0.0000E+00  0.0000E+00  0.2400E+02  0.2400E+02
    -25.630  0.0000E+00  0.0000E+00  0.2400E+02  0.2400E+02
    -25.413  0.0000E+00  0.0000E+00  0.2400E+02  0.2400E+02
    -25.196  0.0000E+00  0.0000E+00  0.2400E+02  0.2400E+02
    -24.978  0.0000E+00  0.0000E+00  0.2400E+02  0.2400E+02
    -24.761  0.0000E+00  0.0000E+00  0.2400E+02  0.2400E+02
    -24.543  0.0000E+00  0.0000E+00  0.2400E+02  0.2400E+02
    -24.326  0.0000E+00  0.0000E+00  0.2400E+02  0.2400E+02
    -24.108  0.0000E+00  0.0000E+00  0.2400E+02  0.2400E+02
    -23.891  0.0000E+00  0.0000E+00  0.2400E+02  0.2400E+02
    -23.674  0.0000E+00  0.0000E+00  0.2400E+02  0.2400E+02
    -23.456  0.0000E+00  0.0000E+00  0.2400E+02  0.2400E+02
    -23.239  0.0000E+00  0.0000E+00  0.2400E+02  0.2400E+02
    -23.021  0.0000E+00  0.0000E+00  0.2400E+02  0.2400E+02
    -22.804  0.0000E+00  0.0000E+00  0.2400E+02  0.2400E+02
    -22.586  0.0000E+00  0.0000E+00  0.2400E+02  0.2400E+02
    -22.369  0.0000E+00  0.0000E+00  0.2400E+02  0.2400E+02
    -22.152  0.0000E+00  0.0000E+00  0.2400E+02  0.2400E+02
    -21.934  0.0000E+00  0.0000E+00  0.2400E+02  0.2400E+02
    -21.717  0.0000E+00  0.0000E+00  0.2400E+02  0.2400E+02
    -21.499  0.0000E+00  0.0000E+00  0.2400E+02  0.2400E+02
    -21.282  0.0000E+00  0.0000E+00  0.2400E+02  0.2400E+02
    -21.064  0.0000E+00  0.0000E+00  0.2400E+02  0.2400E+02
    -20.847  0.0000E+00  0.0000E+00  0.2400E+02  0.2400E+02
    -20.630  0.0000E+00  0.0000E+00  0.2400E+02  0.2400E+02
    -20.412  0.0000E+00  0.0000E+00  0.2400E+02  0.2400E+02
    -20.195  0.0000E+00  0.0000E+00  0.2400E+02  0.2400E+02
    -19.977  0.0000E+00  0.0000E+00  0.2400E+02  0.2400E+02
    -19.760  0.0000E+00  0.0000E+00  0.2400E+02  0.2400E+02
    -19.542  0.0000E+00  0.0000E+00  0.2400E+02  0.2400E+02
    -19.325  0.0000E+00  0.0000E+00  0.2400E+02  0.2400E+02
    -19.108  0.0000E+00  0.0000E+00  0.2400E+02  0.2400E+02
    -18.890  0.0000E+00  0.0000E+00  0.2400E+02  0.2400E+02
    -18.673  0.0000E+00  0.0000E+00  0.2400E+02  0.2400E+02
    -18.455  0.0000E+00  0.0000E+00  0.2400E+02  0.2400E+02
    -18.238  0.0000E+00  0.0000E+00  0.2400E+02  0.2400E+02
    -18.020  0.0000E+00  0.0000E+00  0.2400E+02  0.2400E+02
    -17.803  0.0000E+00  0.0000E+00  0.2400E+02  0.2400E+02
    -17.586  0.0000E+00  0.0000E+00  0.2400E+02  0.2400E+02
    -17.368  0.0000E+00  0.0000E+00  0.2400E+02  0.2400E+02
    -17.151  0.0000E+00  0.0000E+00  0.2400E+02  0.2400E+02
    -16.933  0.0000E+00  0.0000E+00  0.2400E+02  0.2400E+02
    -16.716  0.0000E+00  0.0000E+00  0.2400E+02  0.2400E+02
    -16.498  0.0000E+00  0.0000E+00  0.2400E+02  0.2400E+02
    -16.281  0.0000E+00  0.0000E+00  0.2400E+02  0.2400E+02
    -16.064  0.0000E+00  0.0000E+00  0.2400E+02  0.2400E+02
    -15.846  0.0000E+00  0.0000E+00  0.2400E+02  0.2400E+02
    -15.629  0.0000E+00  0.0000E+00  0.2400E+02  0.2400E+02
    -15.411  0.0000E+00  0.0000E+00  0.2400E+02  0.2400E+02
    -15.194  0.0000E+00  0.0000E+00  0.2400E+02  0.2400E+02
    -14.976  0.0000E+00  0.0000E+00  0.2400E+02  0.2400E+02
    -14.759  0.0000E+00  0.0000E+00  0.2400E+02  0.2400E+02
    -14.542  0.0000E+00  0.0000E+00  0.2400E+02  0.2400E+02
    -14.324  0.0000E+00  0.0000E+00  0.2400E+02  0.2400E+02
    -14.107  0.0000E+00  0.0000E+00  0.2400E+02  0.2400E+02
    -13.889  0.0000E+00  0.0000E+00  0.2400E+02  0.2400E+02
    -13.672  0.0000E+00  0.0000E+00  0.2400E+02  0.2400E+02
    -13.454  0.0000E+00  0.0000E+00  0.2400E+02  0.2400E+02
    -13.237  0.0000E+00  0.0000E+00  0.2400E+02  0.2400E+02
    -13.020  0.0000E+00  0.0000E+00  0.2400E+02  0.2400E+02
    -12.802  0.0000E+00  0.0000E+00  0.2400E+02  0.2400E+02
    -12.585  0.0000E+00  0.0000E+00  0.2400E+02  0.2400E+02
    -12.367  0.0000E+00  0.0000E+00  0.2400E+02  0.2400E+02
    -12.150  0.0000E+00  0.0000E+00  0.2400E+02  0.2400E+02
    -11.932  0.0000E+00  0.0000E+00  0.2400E+02  0.2400E+02
    -11.715  0.0000E+00  0.0000E+00  0.2400E+02  0.2400E+02
    -11.498  0.0000E+00  0.0000E+00  0.2400E+02  0.2400E+02
    -11.280  0.0000E+00  0.0000E+00  0.2400E+02  0.2400E+02
    -11.063  0.0000E+00  0.0000E+00  0.2400E+02  0.2400E+02
    -10.845  0.0000E+00  0.0000E+00  0.2400E+02  0.2400E+02
    -10.628  0.0000E+00  0.0000E+00  0.2400E+02  0.2400E+02
    -10.410  0.0000E+00  0.0000E+00  0.2400E+02  0.2400E+02
    -10.193  0.6092E-03  0.6092E-03  0.2400E+02  0.2400E+02
     -9.976  0.1197E+01  0.1197E+01  0.2412E+02  0.2412E+02
     -9.758  0.2137E+01  0.2137E+01  0.2442E+02  0.2442E+02
     -9.541  0.2131E+01  0.2131E+01  0.2481E+02  0.2481E+02
     -9.323  0.2297E+01  0.2297E+01  0.2524E+02  0.2524E+02
     -9.106  0.2487E+01  0.2487E+01  0.2572E+02  0.2572E+02
     -8.888  0.2901E+01  0.2901E+01  0.2625E+02  0.2625E+02
     -8.671  0.4156E+01  0.4156E+01  0.2694E+02  0.2694E+02
     -8.454  0.5382E+01  0.5382E+01  0.2784E+02  0.2784E+02
     -8.236  0.8208E+01  0.8208E+01  0.2893E+02  0.2893E+02
     -8.019  0.6044E+01  0.6044E+01  0.3017E+02  0.3017E+02
     -7.801  0.7144E+01  0.7144E+01  0.3136E+02  0.3136E+02
     -7.584  0.1987E+01  0.1987E+01  0.3200E+02  0.3200E+02
     -7.366  0.0000E+00  0.0000E+00  0.3200E+02  0.3200E+02
     -7.149  0.0000E+00  0.0000E+00  0.3200E+02  0.3200E+02
     -6.932  0.0000E+00  0.0000E+00  0.3200E+02  0.3200E+02
     -6.714  0.0000E+00  0.0000E+00  0.3200E+02  0.3200E+02
     -6.497  0.0000E+00  0.0000E+00  0.3200E+02  0.3200E+02
     -6.279  0.0000E+00  0.0000E+00  0.3200E+02  0.3200E+02
     -6.062  0.0000E+00  0.0000E+00  0.3200E+02  0.3200E+02
     -5.844  0.0000E+00  0.0000E+00  0.3200E+02  0.3200E+02
     -5.627  0.0000E+00  0.0000E+00  0.3200E+02  0.3200E+02
     -5.410  0.0000E+00  0.0000E+00  0.3200E+02  0.3200E+02
     -5.192  0.0000E+00  0.0000E+00  0.3200E+02  0.3200E+02
     -4.975  0.0000E+00  0.0000E+00  0.3200E+02  0.3200E+02
     -4.757  0.0000E+00  0.0000E+00  0.3200E+02  0.3200E+02
     -4.540  0.0000E+00  0.0000E+00  0.3200E+02  0.3200E+02
     -4.322  0.0000E+00  0.0000E+00  0.3200E+02  0.3200E+02
     -4.105  0.0000E+00  0.0000E+00  0.3200E+02  0.3200E+02
     -3.887  0.0000E+00  0.0000E+00  0.3200E+02  0.3200E+02
     -3.670  0.0000E+00  0.0000E+00  0.3200E+02  0.3200E+02
     -3.453  0.0000E+00  0.0000E+00  0.3200E+02  0.3200E+02
     -3.235  0.0000E+00  0.0000E+00  0.3200E+02  0.3200E+02
     -3.018  0.0000E+00  0.0000E+00  0.3200E+02  0.3200E+02
     -2.800  0.0000E+00  0.0000E+00  0.3200E+02  0.3200E+02
     -2.583  0.0000E+00  0.0000E+00  0.3200E+02  0.3200E+02
     -2.365  0.0000E+00  0.0000E+00  0.3200E+02  0.3200E+02
     -2.148  0.0000E+00  0.0000E+00  0.3200E+02  0.3200E+02
     -1.931  0.0000E+00  0.0000E+00  0.3200E+02  0.3200E+02
     -1.713  0.0000E+00  0.0000E+00  0.3200E+02  0.3200E+02
     -1.496  0.1448E+01  0.1448E+01  0.3209E+02  0.3209E+02
     -1.278  0.4168E+01  0.4168E+01  0.3266E+02  0.3266E+02
     -1.061  0.7097E+01  0.7097E+01  0.3384E+02  0.3384E+02
     -0.843  0.8037E+01  0.8037E+01  0.3530E+02  0.3530E+02
     -0.626  0.8443E+01  0.8443E+01  0.3667E+02  0.3667E+02
     -0.409  0.6285E+01  0.6285E+01  0.3798E+02  0.3798E+02
     -0.191  0.3098E+01  0.3098E+01  0.3871E+02  0.3871E+02
      0.026  0.3423E+01  0.3423E+01  0.3933E+02  0.3933E+02
      0.244  0.5027E+01  0.5027E+01  0.4014E+02  0.4014E+02
      0.461  0.5777E+01  0.5777E+01  0.4113E+02  0.4113E+02
      0.679  0.5505E+01  0.5505E+01  0.4198E+02  0.4198E+02
      0.896  0.9137E+01  0.9137E+01  0.4346E+02  0.4346E+02
      1.113  0.1417E+02  0.1417E+02  0.4540E+02  0.4540E+02
      1.331  0.1058E+02  0.1058E+02  0.4747E+02  0.4747E+02
      1.548  0.1796E+02  0.1796E+02  0.4986E+02  0.4986E+02
      1.766  0.1066E+02  0.1066E+02  0.5183E+02  0.5183E+02
      1.983  0.1139E+02  0.1139E+02  0.5358E+02  0.5358E+02
      2.201  0.1118E+02  0.1118E+02  0.5518E+02  0.5518E+02
      2.418  0.1563E+02  0.1563E+02  0.5736E+02  0.5736E+02
      2.635  0.1369E+02  0.1369E+02  0.5964E+02  0.5964E+02
      2.853  0.1747E+02  0.1747E+02  0.6184E+02  0.6184E+02
      3.070  0.2196E+02  0.2196E+02  0.6495E+02  0.6495E+02
      3.288  0.1685E+02  0.1685E+02  0.6779E+02  0.6779E+02
      3.505  0.2047E+02  0.2047E+02  0.7035E+02  0.7035E+02
      3.723  0.8460E+01  0.8460E+01  0.7198E+02  0.7198E+02
      3.940  0.9812E+01  0.9812E+01  0.7359E+02  0.7359E+02
      4.157  0.9989E+01  0.9989E+01  0.7502E+02  0.7502E+02
      4.375  0.4695E+01  0.4695E+01  0.7610E+02  0.7610E+02
      4.592  0.9635E+01  0.9635E+01  0.7730E+02  0.7730E+02
      4.810  0.9165E+01  0.9165E+01  0.7889E+02  0.7889E+02
      5.027  0.1000E+02  0.1000E+02  0.8054E+02  0.8054E+02
      5.245  0.1512E+02  0.1512E+02  0.8224E+02  0.8224E+02
      5.462  0.1907E+02  0.1907E+02  0.8490E+02  0.8490E+02
      5.679  0.1323E+02  0.1323E+02  0.8696E+02  0.8696E+02
      5.897  0.1173E+02  0.1173E+02  0.8882E+02  0.8882E+02
      6.114  0.1068E+02  0.1068E+02  0.9065E+02  0.9065E+02
      6.332  0.1280E+02  0.1280E+02  0.9242E+02  0.9242E+02
      6.549  0.8839E+01  0.8838E+01  0.9438E+02  0.9438E+02
      6.767  0.1883E+01  0.1883E+01  0.9496E+02  0.9496E+02
      6.984  0.1447E+01  0.1447E+01  0.9525E+02  0.9525E+02
      7.201  0.1862E+01  0.1861E+01  0.9559E+02  0.9559E+02
      7.419  0.1325E+01  0.1322E+01  0.9594E+02  0.9594E+02
      7.636  0.7259E+00  0.7263E+00  0.9614E+02  0.9614E+02
      7.854  0.8081E+00  0.8147E+00  0.9629E+02  0.9629E+02
      8.071  0.1389E+01  0.1400E+01  0.9652E+02  0.9652E+02
      8.289  0.1725E+01  0.1684E+01  0.9686E+02  0.9686E+02
      8.506  0.2544E+01  0.2580E+01  0.9730E+02  0.9730E+02
      8.723  0.3626E+01  0.3645E+01  0.9794E+02  0.9793E+02
      8.941  0.4293E+01  0.4540E+01  0.9878E+02  0.9882E+02
      9.158  0.2527E+01  0.2316E+01  0.9949E+02  0.9951E+02
      9.376  0.1182E+01  0.1110E+01  0.9984E+02  0.9985E+02
      9.593  0.3308E+00  0.5914E+00  0.9999E+02  0.9999E+02
      9.811  0.0000E+00  0.0000E+00  0.1000E+03  0.1000E+03
     10.028  0.0000E+00  0.0000E+00  0.1000E+03  0.1000E+03
     10.245  0.0000E+00  0.0000E+00  0.1000E+03  0.1000E+03
     10.463  0.0000E+00  0.0000E+00  0.1000E+03  0.1000E+03
     10.680  0.0000E+00  0.0000E+00  0.1000E+03  0.1000E+03
     10.898  0.0000E+00  0.0000E+00  0.1000E+03  0.1000E+03
     11.115  0.0000E+00  0.0000E+00  0.1000E+03  0.1000E+03
     11.333  0.0000E+00  0.0000E+00  0.1000E+03  0.1000E+03
     11.550  0.0000E+00  0.0000E+00  0.1000E+03  0.1000E+03
     11.767  0.0000E+00  0.0000E+00  0.1000E+03  0.1000E+03
     11.985  0.0000E+00  0.0000E+00  0.1000E+03  0.1000E+03
     12.202  0.0000E+00  0.0000E+00  0.1000E+03  0.1000E+03
     12.420  0.0000E+00  0.0000E+00  0.1000E+03  0.1000E+03
     12.637  0.0000E+00  0.0000E+00  0.1000E+03  0.1000E+03
     12.63718454    -52.59182141  301      4.95944902      1.00000000
    -52.592  0.0000E+00  0.0000E+00  0.0000E+00  0.0000E+00  0.0000E+00  0.0000E+00  0.0000E+00  0.0000E+00  0.0000E+00  0.0000E+00  0.0000E+00  0.0000E+00  0.0000E+00  0.0000E+00  0.0000E+00  0.0000E+00  0.0000E+00  0.0000E+00
    -52.374  0.0000E+00  0.0000E+00  0.0000E+00  0.0000E+00  0.0000E+00  0.0000E+00  0.0000E+00  0.0000E+00  0.0000E+00  0.0000E+00  0.0000E+00  0.0000E+00  0.0000E+00  0.0000E+00  0.0000E+00  0.0000E+00  0.0000E+00  0.0000E+00
    -52.157  0.0000E+00  0.0000E+00  0.0000E+00  0.0000E+00  0.0000E+00  0.0000E+00  0.0000E+00  0.0000E+00  0.0000E+00  0.0000E+00  0.0000E+00  0.0000E+00  0.0000E+00  0.0000E+00  0.0000E+00  0.0000E+00  0.0000E+00  0.0000E+00
    -51.940  0.0000E+00  0.0000E+00  0.0000E+00  0.0000E+00  0.0000E+00  0.0000E+00  0.0000E+00  0.0000E+00  0.0000E+00  0.0000E+00  0.0000E+00  0.0000E+00  0.0000E+00  0.0000E+00  0.0000E+00  0.0000E+00  0.0000E+00  0.0000E+00
    -51.722  0.0000E+00  0.0000E+00  0.0000E+00  0.0000E+00  0.0000E+00  0.0000E+00  0.0000E+00  0.0000E+00  0.0000E+00  0.0000E+00  0.0000E+00  0.0000E+00  0.0000E+00  0.0000E+00  0.0000E+00  0.0000E+00  0.0000E+00  0.0000E+00
    -51.505  0.0000E+00  0.0000E+00  0.0000E+00  0.0000E+00  0.0000E+00  0.0000E+00  0.0000E+00  0.0000E+00  0.0000E+00  0.0000E+00  0.0000E+00  0.0000E+00  0.0000E+00  0.0000E+00  0.0000E+00  0.0000E+00  0.0000E+00  0.0000E+00
    -51.287  0.0000E+00  0.0000E+00  0.0000E+00  0.0000E+00  0.0000E+00  0.0000E+00  0.0000E+00  0.0000E+00  0.0000E+00  0.0000E+00  0.0000E+00  0.0000E+00  0.0000E+00  0.0000E+00  0.0000E+00  0.0000E+00  0.0000E+00  0.0000E+00
    -51.070  0.0000E+00  0.0000E+00  0.0000E+00  0.0000E+00  0.0000E+00  0.0000E+00  0.0000E+00  0.0000E+00  0.0000E+00  0.0000E+00  0.0000E+00  0.0000E+00  0.0000E+00  0.0000E+00  0.0000E+00  0.0000E+00  0.0000E+00  0.0000E+00
    -50.852  0.0000E+00  0.0000E+00  0.0000E+00  0.0000E+00  0.0000E+00  0.0000E+00  0.0000E+00  0.0000E+00  0.0000E+00  0.0000E+00  0.0000E+00  0.0000E+00  0.0000E+00  0.0000E+00  0.0000E+00  0.0000E+00  0.0000E+00  0.0000E+00
    -50.635  0.0000E+00  0.0000E+00  0.0000E+00  0.0000E+00  0.0000E+00  0.0000E+00  0.0000E+00  0.0000E+00  0.0000E+00  0.0000E+00  0.0000E+00  0.0000E+00  0.0000E+00  0.0000E+00  0.0000E+00  0.0000E+00  0.0000E+00  0.0000E+00
    -50.418  0.0000E+00  0.0000E+00  0.0000E+00  0.0000E+00  0.0000E+00  0.0000E+00  0.0000E+00  0.0000E+00  0.0000E+00  0.0000E+00  0.0000E+00  0.0000E+00  0.0000E+00  0.0000E+00  0.0000E+00  0.0000E+00  0.0000E+00  0.0000E+00
    -50.200  0.0000E+00  0.0000E+00  0.0000E+00  0.0000E+00  0.0000E+00  0.0000E+00  0.0000E+00  0.0000E+00  0.0000E+00  0.0000E+00  0.0000E+00  0.0000E+00  0.0000E+00  0.0000E+00  0.0000E+00  0.0000E+00  0.0000E+00  0.0000E+00
    -49.983  0.0000E+00  0.0000E+00  0.0000E+00  0.0000E+00  0.0000E+00  0.0000E+00  0.0000E+00  0.0000E+00  0.0000E+00  0.0000E+00  0.0000E+00  0.0000E+00  0.0000E+00  0.0000E+00  0.0000E+00  0.0000E+00  0.0000E+00  0.0000E+00
    -49.765  0.0000E+00  0.0000E+00  0.0000E+00  0.0000E+00  0.0000E+00  0.0000E+00  0.0000E+00  0.0000E+00  0.0000E+00  0.0000E+00  0.0000E+00  0.0000E+00  0.0000E+00  0.0000E+00  0.0000E+00  0.0000E+00  0.0000E+00  0.0000E+00
    -49.548  0.2015E-04  0.3317E-05  0.9559E+00  0.2028E-03  0.3623E+01  0.1797E-04  0.1143E+01  0.3067E-05  0.2838E-05  0.1970E-06  0.1969E-09  0.7700E-06  0.9388E-05  0.1061E-05  0.1111E-04  0.6729E-09  0.2817E-04  0.3811E-05
    -49.330  0.2721E-03  0.1007E-04  0.3624E+01  0.6855E-03  0.9574E+00  0.1797E-05  0.3082E+01  0.5537E-05  0.1120E-04  0.3816E-06  0.1090E-08  0.2639E-07  0.1269E-03  0.4056E-05  0.2820E-05  0.2988E-09  0.3806E-03  0.1273E-04
    -49.113  0.5513E-04  0.3901E-08  0.1243E-08  0.1462E-06  0.3125E-10  0.1687E-08  0.1640E+01  0.1703E-05  0.1630E-10  0.1306E-06  0.2732E-09  0.1267E-09  0.2569E-04  0.1357E-08  0.6040E-11  0.1363E-09  0.7707E-04  0.1145E-09
    -48.896  0.0000E+00  0.0000E+00  0.0000E+00  0.0000E+00  0.0000E+00  0.0000E+00  0.0000E+00  0.0000E+00  0.0000E+00  0.0000E+00  0.0000E+00  0.0000E+00  0.0000E+00  0.0000E+00  0.0000E+00  0.0000E+00  0.0000E+00  0.0000E+00
    -48.678  0.0000E+00  0.0000E+00  0.0000E+00  0.0000E+00  0.0000E+00  0.0000E+00  0.0000E+00  0.0000E+00  0.0000E+00  0.0000E+00  0.0000E+00  0.0000E+00  0.0000E+00  0.0000E+00  0.0000E+00  0.0000E+00  0.0000E+00  0.0000E+00
    -48.461  0.0000E+00  0.0000E+00  0.0000E+00  0.0000E+00  0.0000E+00  0.0000E+00  0.0000E+00  0.0000E+00  0.0000E+00  0.0000E+00  0.0000E+00  0.0000E+00  0.0000E+00  0.0000E+00  0.0000E+00  0.0000E+00  0.0000E+00  0.0000E+00
    -48.243  0.0000E+00  0.0000E+00  0.0000E+00  0.0000E+00  0.0000E+00  0.0000E+00  0.0000E+00  0.0000E+00  0.0000E+00  0.0000E+00  0.0000E+00  0.0000E+00  0.0000E+00  0.0000E+00  0.0000E+00  0.0000E+00  0.0000E+00  0.0000E+00
    -48.026  0.0000E+00  0.0000E+00  0.0000E+00  0.0000E+00  0.0000E+00  0.0000E+00  0.0000E+00  0.0000E+00  0.0000E+00  0.0000E+00  0.0000E+00  0.0000E+00  0.0000E+00  0.0000E+00  0.0000E+00  0.0000E+00  0.0000E+00  0.0000E+00
    -47.808  0.0000E+00  0.0000E+00  0.0000E+00  0.0000E+00  0.0000E+00  0.0000E+00  0.0000E+00  0.0000E+00  0.0000E+00  0.0000E+00  0.0000E+00  0.0000E+00  0.0000E+00  0.0000E+00  0.0000E+00  0.0000E+00  0.0000E+00  0.0000E+00
    -47.591  0.0000E+00  0.0000E+00  0.0000E+00  0.0000E+00  0.0000E+00  0.0000E+00  0.0000E+00  0.0000E+00  0.0000E+00  0.0000E+00  0.0000E+00  0.0000E+00  0.0000E+00  0.0000E+00  0.0000E+00  0.0000E+00  0.0000E+00  0.0000E+00
    -47.374  0.0000E+00  0.0000E+00  0.0000E+00  0.0000E+00  0.0000E+00  0.0000E+00  0.0000E+00  0.0000E+00  0.0000E+00  0.0000E+00  0.0000E+00  0.0000E+00  0.0000E+00  0.0000E+00  0.0000E+00  0.0000E+00  0.0000E+00  0.0000E+00
    -47.156  0.0000E+00  0.0000E+00  0.0000E+00  0.0000E+00  0.0000E+00  0.0000E+00  0.0000E+00  0.0000E+00  0.0000E+00  0.0000E+00  0.0000E+00  0.0000E+00  0.0000E+00  0.0000E+00  0.0000E+00  0.0000E+00  0.0000E+00  0.0000E+00
    -46.939  0.8890E-05  0.1827E-03  0.5696E-03  0.2050E+01  0.1000E-04  0.2529E+01  0.8886E-05  0.2969E+01  0.6304E-06  0.7285E-05  0.9350E-06  0.3423E-08  0.2974E-05  0.8514E-04  0.6326E-09  0.9129E-05  0.1043E-04  0.2565E-03
    -46.721  0.2918E-05  0.2493E-03  0.3172E-04  0.4527E+00  0.2538E-06  0.4411E+00  0.4478E-05  0.2370E+01  0.3412E-06  0.1693E-05  0.7015E-07  0.4229E-08  0.1202E-05  0.1161E-03  0.2750E-09  0.1674E-05  0.3400E-05  0.3499E-03
    -46.504  0.8655E-05  0.4951E-04  0.4617E-03  0.2447E+01  0.3356E-05  0.1972E+01  0.2068E-05  0.1477E+01  0.1591E-06  0.8873E-05  0.1871E-06  0.9151E-09  0.3569E-05  0.2301E-04  0.3203E-09  0.7231E-05  0.1096E-04  0.6931E-04
    -46.286  0.0000E+00  0.0000E+00  0.0000E+00  0.0000E+00  0.0000E+00  0.0000E+00  0.0000E+00  0.0000E+00  0.0000E+00  0.0000E+00  0.0000E+00  0.0000E+00  0.0000E+00  0.0000E+00  0.0000E+00  0.0000E+00  0.0000E+00  0.0000E+00
    -46.069  0.0000E+00  0.0000E+00  0.0000E+00  0.0000E+00  0.0000E+00  0.0000E+00  0.0000E+00  0.0000E+00  0.0000E+00  0.0000E+00  0.0000E+00  0.0000E+00  0.0000E+00  0.0000E+00  0.0000E+00  0.0000E+00  0.0000E+00  0.0000E+00
    -45.851  0.0000E+00  0.0000E+00  0.0000E+00  0.0000E+00  0.0000E+00  0.0000E+00  0.0000E+00  0.0000E+00  0.0000E+00  0.0000E+00  0.0000E+00  0.0000E+00  0.0000E+00  0.0000E+00  0.0000E+00  0.0000E+00  0.0000E+00  0.0000E+00
    -45.634  0.0000E+00  0.0000E+00  0.0000E+00  0.0000E+00  0.0000E+00  0.0000E+00  0.0000E+00  0.0000E+00  0.0000E+00  0.0000E+00  0.0000E+00  0.0000E+00  0.0000E+00  0.0000E+00  0.0000E+00  0.0000E+00  0.0000E+00  0.0000E+00
    -45.417  0.0000E+00  0.0000E+00  0.0000E+00  0.0000E+00  0.0000E+00  0.0000E+00  0.0000E+00  0.0000E+00  0.0000E+00  0.0000E+00  0.0000E+00  0.0000E+00  0.0000E+00  0.0000E+00  0.0000E+00  0.0000E+00  0.0000E+00  0.0000E+00
    -45.199  0.0000E+00  0.0000E+00  0.0000E+00  0.0000E+00  0.0000E+00  0.0000E+00  0.0000E+00  0.0000E+00  0.0000E+00  0.0000E+00  0.0000E+00  0.0000E+00  0.0000E+00  0.0000E+00  0.0000E+00  0.0000E+00  0.0000E+00  0.0000E+00
    -44.982  0.0000E+00  0.0000E+00  0.0000E+00  0.0000E+00  0.0000E+00  0.0000E+00  0.0000E+00  0.0000E+00  0.0000E+00  0.0000E+00  0.0000E+00  0.0000E+00  0.0000E+00  0.0000E+00  0.0000E+00  0.0000E+00  0.0000E+00  0.0000E+00
    -44.764  0.0000E+00  0.0000E+00  0.0000E+00  0.0000E+00  0.0000E+00  0.0000E+00  0.0000E+00  0.0000E+00  0.0000E+00  0.0000E+00  0.0000E+00  0.0000E+00  0.0000E+00  0.0000E+00  0.0000E+00  0.0000E+00  0.0000E+00  0.0000E+00
    -44.547  0.0000E+00  0.0000E+00  0.0000E+00  0.0000E+00  0.0000E+00  0.0000E+00  0.0000E+00  0.0000E+00  0.0000E+00  0.0000E+00  0.0000E+00  0.0000E+00  0.0000E+00  0.0000E+00  0.0000E+00  0.0000E+00  0.0000E+00  0.0000E+00
    -44.329  0.0000E+00  0.0000E+00  0.0000E+00  0.0000E+00  0.0000E+00  0.0000E+00  0.0000E+00  0.0000E+00  0.0000E+00  0.0000E+00  0.0000E+00  0.0000E+00  0.0000E+00  0.0000E+00  0.0000E+00  0.0000E+00  0.0000E+00  0.0000E+00
    -44.112  0.0000E+00  0.0000E+00  0.0000E+00  0.0000E+00  0.0000E+00  0.0000E+00  0.0000E+00  0.0000E+00  0.0000E+00  0.0000E+00  0.0000E+00  0.0000E+00  0.0000E+00  0.0000E+00  0.0000E+00  0.0000E+00  0.0000E+00  0.0000E+00
    -43.895  0.0000E+00  0.0000E+00  0.0000E+00  0.0000E+00  0.0000E+00  0.0000E+00  0.0000E+00  0.0000E+00  0.0000E+00  0.0000E+00  0.0000E+00  0.0000E+00  0.0000E+00  0.0000E+00  0.0000E+00  0.0000E+00  0.0000E+00  0.0000E+00
    -43.677  0.0000E+00  0.0000E+00  0.0000E+00  0.0000E+00  0.0000E+00  0.0000E+00  0.0000E+00  0.0000E+00  0.0000E+00  0.0000E+00  0.0000E+00  0.0000E+00  0.0000E+00  0.0000E+00  0.0000E+00  0.0000E+00  0.0000E+00  0.0000E+00
    -43.460  0.0000E+00  0.0000E+00  0.0000E+00  0.0000E+00  0.0000E+00  0.0000E+00  0.0000E+00  0.0000E+00  0.0000E+00  0.0000E+00  0.0000E+00  0.0000E+00  0.0000E+00  0.0000E+00  0.0000E+00  0.0000E+00  0.0000E+00  0.0000E+00
    -43.242  0.0000E+00  0.0000E+00  0.0000E+00  0.0000E+00  0.0000E+00  0.0000E+00  0.0000E+00  0.0000E+00  0.0000E+00  0.0000E+00  0.0000E+00  0.0000E+00  0.0000E+00  0.0000E+00  0.0000E+00  0.0000E+00  0.0000E+00  0.0000E+00
    -43.025  0.0000E+00  0.0000E+00  0.0000E+00  0.0000E+00  0.0000E+00  0.0000E+00  0.0000E+00  0.0000E+00  0.0000E+00  0.0000E+00  0.0000E+00  0.0000E+00  0.0000E+00  0.0000E+00  0.0000E+00  0.0000E+00  0.0000E+00  0.0000E+00
    -42.807  0.0000E+00  0.0000E+00  0.0000E+00  0.0000E+00  0.0000E+00  0.0000E+00  0.0000E+00  0.0000E+00  0.0000E+00  0.0000E+00  0.0000E+00  0.0000E+00  0.0000E+00  0.0000E+00  0.0000E+00  0.0000E+00  0.0000E+00  0.0000E+00
    -42.590  0.0000E+00  0.0000E+00  0.0000E+00  0.0000E+00  0.0000E+00  0.0000E+00  0.0000E+00  0.0000E+00  0.0000E+00  0.0000E+00  0.0000E+00  0.0000E+00  0.0000E+00  0.0000E+00  0.0000E+00  0.0000E+00  0.0000E+00  0.0000E+00
    -42.373  0.0000E+00  0.0000E+00  0.0000E+00  0.0000E+00  0.0000E+00  0.0000E+00  0.0000E+00  0.0000E+00  0.0000E+00  0.0000E+00  0.0000E+00  0.0000E+00  0.0000E+00  0.0000E+00  0.0000E+00  0.0000E+00  0.0000E+00  0.0000E+00
    -42.155  0.0000E+00  0.0000E+00  0.0000E+00  0.0000E+00  0.0000E+00  0.0000E+00  0.0000E+00  0.0000E+00  0.0000E+00  0.0000E+00  0.0000E+00  0.0000E+00  0.0000E+00  0.0000E+00  0.0000E+00  0.0000E+00  0.0000E+00  0.0000E+00
    -41.938  0.0000E+00  0.0000E+00  0.0000E+00  0.0000E+00  0.0000E+00  0.0000E+00  0.0000E+00  0.0000E+00  0.0000E+00  0.0000E+00  0.0000E+00  0.0000E+00  0.0000E+00  0.0000E+00  0.0000E+00  0.0000E+00  0.0000E+00  0.0000E+00
    -41.720  0.0000E+00  0.0000E+00  0.0000E+00  0.0000E+00  0.0000E+00  0.0000E+00  0.0000E+00  0.0000E+00  0.0000E+00  0.0000E+00  0.0000E+00  0.0000E+00  0.0000E+00  0.0000E+00  0.0000E+00  0.0000E+00  0.0000E+00  0.0000E+00