       N       E                     dE             d eps       ncg     rms          rms(c)
DAV:   1     0.206270850968E+04    0.20627E+04   -0.88940E+04 33480   0.203E+03
DAV:   2     0.120646799675E+03   -0.19421E+04   -0.18850E+04 32000   0.597E+02
DAV:   3    -0.832879976251E+02   -0.20393E+03   -0.18052E+03 44380   0.195E+02
DAV:   4    -0.969850974218E+02   -0.13697E+02   -0.13320E+02 46140   0.513E+01
DAV:   5    -0.973222234958E+02   -0.33713E+00   -0.33635E+00 45320   0.840E+00    0.260E+01
RMM:   6    -0.109704079150E+03   -0.12382E+02   -0.14363E+02 34509   0.787E+01    0.444E+01
RMM:   7    -0.901361255180E+02    0.19568E+02   -0.36256E+01 32067   0.463E+01    0.859E+00
RMM:   8    -0.905840086772E+02   -0.44788E+00   -0.33323E+00 46305   0.514E+00    0.374E+00
RMM:   9    -0.906319981884E+02   -0.47990E-01   -0.74586E-01 52844   0.263E+00    0.205E+00
RMM:  10    -0.906340342368E+02   -0.20360E-02   -0.17629E-01 51155   0.124E+00    0.860E-01
RMM:  11    -0.906406835454E+02   -0.66493E-02   -0.33513E-02 50383   0.673E-01    0.334E-01
RMM:  12    -0.906436287436E+02   -0.29452E-02   -0.76439E-03 47495   0.274E-01    0.134E-01
RMM:  13    -0.906436464419E+02   -0.17698E-04   -0.16194E-03 33176   0.137E-01
   1 F= -.98212170E+02 E0= -.98212170E+02  d E =0.000000E+00  mag=     0.0000
