unknown system                          
           1
     4.714707   -5.449606    0.000000
     4.714707    5.449606    0.000000
     0.000000    0.000000    5.390512
   Fe   Se
     8     8
unknown system                          
           1
     4.714707   -5.449606    0.000000
     4.714707    5.449606    0.000000
     0.000000    0.000000    5.390512
   Fe   Se
     8     8
Direct configuration=     1
   0.00000000  0.00000000  0.00000000
   0.00000000  0.50000000  0.00000000
   0.50000000  0.00000000  0.00000000
   0.50000000  0.50000000  0.00000000
   0.25000000  0.25000000  0.00000000
   0.25000000  0.75000000  0.00000000
   0.75000000  0.25000000  0.00000000
   0.75000000  0.75000000  0.00000000
   0.37500000  0.12500000  0.66053825
   0.37500000  0.62500000  0.66053825
   0.87500000  0.12500000  0.66053825
   0.87500000  0.62500000  0.66053825
   0.12500000  0.37500000  0.33946175
   0.12500000  0.87500000  0.33946175
   0.62500000  0.37500000  0.33946175
   0.62500000  0.87500000  0.33946175
