  16  16   1   0
  0.1775000E+02  0.7262668E-09  0.7262668E-09  0.5448376E-09  0.5000000E-15
  1.000000000000000E-004
  CAR 
 unknown system                          
     12.27579657    -52.90000838  301      4.70369035      1.00000000
    -52.900  0.0000E+00  0.0000E+00  0.0000E+00  0.0000E+00
    -52.683  0.0000E+00  0.0000E+00  0.0000E+00  0.0000E+00
    -52.466  0.0000E+00  0.0000E+00  0.0000E+00  0.0000E+00
    -52.248  0.0000E+00  0.0000E+00  0.0000E+00  0.0000E+00
    -52.031  0.0000E+00  0.0000E+00  0.0000E+00  0.0000E+00
    -51.814  0.0000E+00  0.0000E+00  0.0000E+00  0.0000E+00
    -51.596  0.0000E+00  0.0000E+00  0.0000E+00  0.0000E+00
    -51.379  0.0000E+00  0.0000E+00  0.0000E+00  0.0000E+00
    -51.162  0.0000E+00  0.0000E+00  0.0000E+00  0.0000E+00
    -50.945  0.0000E+00  0.0000E+00  0.0000E+00  0.0000E+00
    -50.727  0.0000E+00  0.0000E+00  0.0000E+00  0.0000E+00
    -50.510  0.0000E+00  0.0000E+00  0.0000E+00  0.0000E+00
    -50.293  0.0000E+00  0.0000E+00  0.0000E+00  0.0000E+00
    -50.076  0.2738E-05  0.2738E-05  0.5948E-06  0.5948E-06
    -49.858  0.2057E+00  0.2057E+00  0.4469E-01  0.4469E-01
    -49.641  0.2735E+00  0.2735E+00  0.1041E+00  0.1041E+00
    -49.424  0.7814E-01  0.7814E-01  0.1211E+00  0.1211E+00
    -49.207  0.5853E-03  0.5853E-03  0.1212E+00  0.1212E+00
    -48.989  0.0000E+00  0.0000E+00  0.1212E+00  0.1212E+00
    -48.772  0.0000E+00  0.0000E+00  0.1212E+00  0.1212E+00
    -48.555  0.0000E+00  0.0000E+00  0.1212E+00  0.1212E+00
    -48.338  0.0000E+00  0.0000E+00  0.1212E+00  0.1212E+00
    -48.120  0.0000E+00  0.0000E+00  0.1212E+00  0.1212E+00
    -47.903  0.0000E+00  0.0000E+00  0.1212E+00  0.1212E+00
    -47.686  0.0000E+00  0.0000E+00  0.1212E+00  0.1212E+00
    -47.469  0.3474E-06  0.3474E-06  0.1212E+00  0.1212E+00
    -47.251  0.2096E+00  0.2096E+00  0.1668E+00  0.1668E+00
    -47.034  0.8531E-01  0.8531E-01  0.1853E+00  0.1853E+00
    -46.817  0.2614E+00  0.2614E+00  0.2421E+00  0.2421E+00
    -46.600  0.1565E-02  0.1565E-02  0.2424E+00  0.2424E+00
    -46.382  0.0000E+00  0.0000E+00  0.2424E+00  0.2424E+00
    -46.165  0.0000E+00  0.0000E+00  0.2424E+00  0.2424E+00
    -45.948  0.0000E+00  0.0000E+00  0.2424E+00  0.2424E+00
    -45.731  0.0000E+00  0.0000E+00  0.2424E+00  0.2424E+00
    -45.513  0.0000E+00  0.0000E+00  0.2424E+00  0.2424E+00
    -45.296  0.0000E+00  0.0000E+00  0.2424E+00  0.2424E+00
    -45.079  0.0000E+00  0.0000E+00  0.2424E+00  0.2424E+00
    -44.862  0.0000E+00  0.0000E+00  0.2424E+00  0.2424E+00
    -44.644  0.0000E+00  0.0000E+00  0.2424E+00  0.2424E+00
    -44.427  0.0000E+00  0.0000E+00  0.2424E+00  0.2424E+00
    -44.210  0.0000E+00  0.0000E+00  0.2424E+00  0.2424E+00
    -43.993  0.0000E+00  0.0000E+00  0.2424E+00  0.2424E+00
    -43.775  0.0000E+00  0.0000E+00  0.2424E+00  0.2424E+00
    -43.558  0.0000E+00  0.0000E+00  0.2424E+00  0.2424E+00
    -43.341  0.0000E+00  0.0000E+00  0.2424E+00  0.2424E+00
    -43.124  0.0000E+00  0.0000E+00  0.2424E+00  0.2424E+00
    -42.906  0.0000E+00  0.0000E+00  0.2424E+00  0.2424E+00
    -42.689  0.0000E+00  0.0000E+00  0.2424E+00  0.2424E+00
    -42.472  0.0000E+00  0.0000E+00  0.2424E+00  0.2424E+00
    -42.255  0.0000E+00  0.0000E+00  0.2424E+00  0.2424E+00
    -42.037  0.0000E+00  0.0000E+00  0.2424E+00  0.2424E+00
    -41.820  0.0000E+00  0.0000E+00  0.2424E+00  0.2424E+00
    -41.603  0.0000E+00  0.0000E+00  0.2424E+00  0.2424E+00
    -41.386  0.0000E+00  0.0000E+00  0.2424E+00  0.2424E+00
    -41.168  0.0000E+00  0.0000E+00  0.2424E+00  0.2424E+00
    -40.951  0.0000E+00  0.0000E+00  0.2424E+00  0.2424E+00
    -40.734  0.0000E+00  0.0000E+00  0.2424E+00  0.2424E+00
    -40.517  0.0000E+00  0.0000E+00  0.2424E+00  0.2424E+00
    -40.299  0.0000E+00  0.0000E+00  0.2424E+00  0.2424E+00
    -40.082  0.0000E+00  0.0000E+00  0.2424E+00  0.2424E+00
    -39.865  0.0000E+00  0.0000E+00  0.2424E+00  0.2424E+00
    -39.648  0.0000E+00  0.0000E+00  0.2424E+00  0.2424E+00
    -39.430  0.0000E+00  0.0000E+00  0.2424E+00  0.2424E+00
    -39.213  0.0000E+00  0.0000E+00  0.2424E+00  0.2424E+00
    -38.996  0.0000E+00  0.0000E+00  0.2424E+00  0.2424E+00
    -38.779  0.0000E+00  0.0000E+00  0.2424E+00  0.2424E+00
    -38.561  0.0000E+00  0.0000E+00  0.2424E+00  0.2424E+00
    -38.344  0.0000E+00  0.0000E+00  0.2424E+00  0.2424E+00
    -38.127  0.0000E+00  0.0000E+00  0.2424E+00  0.2424E+00
    -37.910  0.0000E+00  0.0000E+00  0.2424E+00  0.2424E+00
    -37.692  0.0000E+00  0.0000E+00  0.2424E+00  0.2424E+00
    -37.475  0.0000E+00  0.0000E+00  0.2424E+00  0.2424E+00
    -37.258  0.0000E+00  0.0000E+00  0.2424E+00  0.2424E+00
    -37.041  0.0000E+00  0.0000E+00  0.2424E+00  0.2424E+00
    -36.823  0.0000E+00  0.0000E+00  0.2424E+00  0.2424E+00
    -36.606  0.0000E+00  0.0000E+00  0.2424E+00  0.2424E+00
    -36.389  0.0000E+00  0.0000E+00  0.2424E+00  0.2424E+00
    -36.172  0.0000E+00  0.0000E+00  0.2424E+00  0.2424E+00
    -35.954  0.0000E+00  0.0000E+00  0.2424E+00  0.2424E+00
    -35.737  0.0000E+00  0.0000E+00  0.2424E+00  0.2424E+00
    -35.520  0.0000E+00  0.0000E+00  0.2424E+00  0.2424E+00
    -35.303  0.0000E+00  0.0000E+00  0.2424E+00  0.2424E+00
    -35.085  0.0000E+00  0.0000E+00  0.2424E+00  0.2424E+00
    -34.868  0.0000E+00  0.0000E+00  0.2424E+00  0.2424E+00
    -34.651  0.0000E+00  0.0000E+00  0.2424E+00  0.2424E+00
    -34.434  0.0000E+00  0.0000E+00  0.2424E+00  0.2424E+00
    -34.216  0.0000E+00  0.0000E+00  0.2424E+00  0.2424E+00
    -33.999  0.0000E+00  0.0000E+00  0.2424E+00  0.2424E+00
    -33.782  0.0000E+00  0.0000E+00  0.2424E+00  0.2424E+00
    -33.565  0.0000E+00  0.0000E+00  0.2424E+00  0.2424E+00
    -33.347  0.0000E+00  0.0000E+00  0.2424E+00  0.2424E+00
    -33.130  0.0000E+00  0.0000E+00  0.2424E+00  0.2424E+00
    -32.913  0.0000E+00  0.0000E+00  0.2424E+00  0.2424E+00
    -32.696  0.0000E+00  0.0000E+00  0.2424E+00  0.2424E+00
    -32.478  0.0000E+00  0.0000E+00  0.2424E+00  0.2424E+00
    -32.261  0.0000E+00  0.0000E+00  0.2424E+00  0.2424E+00
    -32.044  0.0000E+00  0.0000E+00  0.2424E+00  0.2424E+00
    -31.826  0.0000E+00  0.0000E+00  0.2424E+00  0.2424E+00
    -31.609  0.0000E+00  0.0000E+00  0.2424E+00  0.2424E+00
    -31.392  0.0000E+00  0.0000E+00  0.2424E+00  0.2424E+00
    -31.175  0.0000E+00  0.0000E+00  0.2424E+00  0.2424E+00
    -30.957  0.0000E+00  0.0000E+00  0.2424E+00  0.2424E+00
    -30.740  0.0000E+00  0.0000E+00  0.2424E+00  0.2424E+00
    -30.523  0.0000E+00  0.0000E+00  0.2424E+00  0.2424E+00
    -30.306  0.0000E+00  0.0000E+00  0.2424E+00  0.2424E+00
    -30.088  0.0000E+00  0.0000E+00  0.2424E+00  0.2424E+00
    -29.871  0.0000E+00  0.0000E+00  0.2424E+00  0.2424E+00
    -29.654  0.0000E+00  0.0000E+00  0.2424E+00  0.2424E+00
    -29.437  0.0000E+00  0.0000E+00  0.2424E+00  0.2424E+00
    -29.219  0.0000E+00  0.0000E+00  0.2424E+00  0.2424E+00
    -29.002  0.0000E+00  0.0000E+00  0.2424E+00  0.2424E+00
    -28.785  0.0000E+00  0.0000E+00  0.2424E+00  0.2424E+00
    -28.568  0.0000E+00  0.0000E+00  0.2424E+00  0.2424E+00
    -28.350  0.0000E+00  0.0000E+00  0.2424E+00  0.2424E+00
    -28.133  0.0000E+00  0.0000E+00  0.2424E+00  0.2424E+00
    -27.916  0.0000E+00  0.0000E+00  0.2424E+00  0.2424E+00
    -27.699  0.0000E+00  0.0000E+00  0.2424E+00  0.2424E+00
    -27.481  0.0000E+00  0.0000E+00  0.2424E+00  0.2424E+00
    -27.264  0.0000E+00  0.0000E+00  0.2424E+00  0.2424E+00
    -27.047  0.0000E+00  0.0000E+00  0.2424E+00  0.2424E+00
    -26.830  0.0000E+00  0.0000E+00  0.2424E+00  0.2424E+00
    -26.612  0.0000E+00  0.0000E+00  0.2424E+00  0.2424E+00
    -26.395  0.0000E+00  0.0000E+00  0.2424E+00  0.2424E+00
    -26.178  0.0000E+00  0.0000E+00  0.2424E+00  0.2424E+00
    -25.961  0.0000E+00  0.0000E+00  0.2424E+00  0.2424E+00
    -25.743  0.0000E+00  0.0000E+00  0.2424E+00  0.2424E+00
    -25.526  0.0000E+00  0.0000E+00  0.2424E+00  0.2424E+00
    -25.309  0.0000E+00  0.0000E+00  0.2424E+00  0.2424E+00
    -25.092  0.0000E+00  0.0000E+00  0.2424E+00  0.2424E+00
    -24.874  0.0000E+00  0.0000E+00  0.2424E+00  0.2424E+00
    -24.657  0.0000E+00  0.0000E+00  0.2424E+00  0.2424E+00
    -24.440  0.0000E+00  0.0000E+00  0.2424E+00  0.2424E+00
    -24.223  0.0000E+00  0.0000E+00  0.2424E+00  0.2424E+00
    -24.005  0.0000E+00  0.0000E+00  0.2424E+00  0.2424E+00
    -23.788  0.0000E+00  0.0000E+00  0.2424E+00  0.2424E+00
    -23.571  0.0000E+00  0.0000E+00  0.2424E+00  0.2424E+00
    -23.354  0.0000E+00  0.0000E+00  0.2424E+00  0.2424E+00
    -23.136  0.0000E+00  0.0000E+00  0.2424E+00  0.2424E+00
    -22.919  0.0000E+00  0.0000E+00  0.2424E+00  0.2424E+00
    -22.702  0.0000E+00  0.0000E+00  0.2424E+00  0.2424E+00
    -22.485  0.0000E+00  0.0000E+00  0.2424E+00  0.2424E+00
    -22.267  0.0000E+00  0.0000E+00  0.2424E+00  0.2424E+00
    -22.050  0.0000E+00  0.0000E+00  0.2424E+00  0.2424E+00
    -21.833  0.0000E+00  0.0000E+00  0.2424E+00  0.2424E+00
    -21.616  0.0000E+00  0.0000E+00  0.2424E+00  0.2424E+00
    -21.398  0.0000E+00  0.0000E+00  0.2424E+00  0.2424E+00
    -21.181  0.0000E+00  0.0000E+00  0.2424E+00  0.2424E+00
    -20.964  0.0000E+00  0.0000E+00  0.2424E+00  0.2424E+00
    -20.747  0.0000E+00  0.0000E+00  0.2424E+00  0.2424E+00
    -20.529  0.0000E+00  0.0000E+00  0.2424E+00  0.2424E+00
    -20.312  0.0000E+00  0.0000E+00  0.2424E+00  0.2424E+00
    -20.095  0.0000E+00  0.0000E+00  0.2424E+00  0.2424E+00
    -19.878  0.0000E+00  0.0000E+00  0.2424E+00  0.2424E+00
    -19.660  0.0000E+00  0.0000E+00  0.2424E+00  0.2424E+00
    -19.443  0.0000E+00  0.0000E+00  0.2424E+00  0.2424E+00
    -19.226  0.0000E+00  0.0000E+00  0.2424E+00  0.2424E+00
    -19.009  0.0000E+00  0.0000E+00  0.2424E+00  0.2424E+00
    -18.791  0.0000E+00  0.0000E+00  0.2424E+00  0.2424E+00
    -18.574  0.0000E+00  0.0000E+00  0.2424E+00  0.2424E+00
    -18.357  0.0000E+00  0.0000E+00  0.2424E+00  0.2424E+00
    -18.140  0.0000E+00  0.0000E+00  0.2424E+00  0.2424E+00
    -17.922  0.0000E+00  0.0000E+00  0.2424E+00  0.2424E+00
    -17.705  0.0000E+00  0.0000E+00  0.2424E+00  0.2424E+00
    -17.488  0.0000E+00  0.0000E+00  0.2424E+00  0.2424E+00
    -17.271  0.0000E+00  0.0000E+00  0.2424E+00  0.2424E+00
    -17.053  0.0000E+00  0.0000E+00  0.2424E+00  0.2424E+00
    -16.836  0.0000E+00  0.0000E+00  0.2424E+00  0.2424E+00
    -16.619  0.0000E+00  0.0000E+00  0.2424E+00  0.2424E+00
    -16.402  0.0000E+00  0.0000E+00  0.2424E+00  0.2424E+00
    -16.184  0.0000E+00  0.0000E+00  0.2424E+00  0.2424E+00
    -15.967  0.0000E+00  0.0000E+00  0.2424E+00  0.2424E+00
    -15.750  0.0000E+00  0.0000E+00  0.2424E+00  0.2424E+00
    -15.533  0.0000E+00  0.0000E+00  0.2424E+00  0.2424E+00
    -15.315  0.0000E+00  0.0000E+00  0.2424E+00  0.2424E+00
    -15.098  0.0000E+00  0.0000E+00  0.2424E+00  0.2424E+00
    -14.881  0.0000E+00  0.0000E+00  0.2424E+00  0.2424E+00
    -14.664  0.0000E+00  0.0000E+00  0.2424E+00  0.2424E+00
    -14.446  0.0000E+00  0.0000E+00  0.2424E+00  0.2424E+00
    -14.229  0.0000E+00  0.0000E+00  0.2424E+00  0.2424E+00
    -14.012  0.0000E+00  0.0000E+00  0.2424E+00  0.2424E+00
    -13.795  0.0000E+00  0.0000E+00  0.2424E+00  0.2424E+00
    -13.577  0.0000E+00  0.0000E+00  0.2424E+00  0.2424E+00
    -13.360  0.0000E+00  0.0000E+00  0.2424E+00  0.2424E+00
    -13.143  0.0000E+00  0.0000E+00  0.2424E+00  0.2424E+00
    -12.926  0.0000E+00  0.0000E+00  0.2424E+00  0.2424E+00
    -12.708  0.0000E+00  0.0000E+00  0.2424E+00  0.2424E+00
    -12.491  0.0000E+00  0.0000E+00  0.2424E+00  0.2424E+00
    -12.274  0.0000E+00  0.0000E+00  0.2424E+00  0.2424E+00
    -12.057  0.0000E+00  0.0000E+00  0.2424E+00  0.2424E+00
    -11.839  0.0000E+00  0.0000E+00  0.2424E+00  0.2424E+00
    -11.622  0.0000E+00  0.0000E+00  0.2424E+00  0.2424E+00
    -11.405  0.0000E+00  0.0000E+00  0.2424E+00  0.2424E+00
    -11.187  0.0000E+00  0.0000E+00  0.2424E+00  0.2424E+00
    -10.970  0.0000E+00  0.0000E+00  0.2424E+00  0.2424E+00
    -10.753  0.0000E+00  0.0000E+00  0.2424E+00  0.2424E+00
    -10.536  0.5852E-20  0.5852E-20  0.2424E+00  0.2424E+00
    -10.318  0.2374E-05  0.2374E-05  0.2424E+00  0.2424E+00
    -10.101  0.3316E-02  0.3316E-02  0.2431E+00  0.2431E+00
     -9.884  0.1135E-01  0.1135E-01  0.2456E+00  0.2456E+00
     -9.667  0.1822E-01  0.1822E-01  0.2496E+00  0.2496E+00
     -9.449  0.2135E-01  0.2135E-01  0.2542E+00  0.2542E+00
     -9.232  0.2368E-01  0.2368E-01  0.2594E+00  0.2594E+00
     -9.015  0.2541E-01  0.2541E-01  0.2649E+00  0.2649E+00
     -8.798  0.3089E-01  0.3089E-01  0.2716E+00  0.2716E+00
     -8.580  0.5027E-01  0.5027E-01  0.2825E+00  0.2825E+00
     -8.363  0.6180E-01  0.6180E-01  0.2959E+00  0.2959E+00
     -8.146  0.5886E-01  0.5886E-01  0.3087E+00  0.3087E+00
     -7.929  0.5393E-01  0.5393E-01  0.3204E+00  0.3204E+00
     -7.711  0.1286E-01  0.1286E-01  0.3232E+00  0.3232E+00
     -7.494  0.8050E-05  0.8050E-05  0.3232E+00  0.3232E+00
     -7.277  0.0000E+00  0.0000E+00  0.3232E+00  0.3232E+00
     -7.060  0.0000E+00  0.0000E+00  0.3232E+00  0.3232E+00
     -6.842  0.0000E+00  0.0000E+00  0.3232E+00  0.3232E+00
     -6.625  0.0000E+00  0.0000E+00  0.3232E+00  0.3232E+00
     -6.408  0.0000E+00  0.0000E+00  0.3232E+00  0.3232E+00
     -6.191  0.0000E+00  0.0000E+00  0.3232E+00  0.3232E+00
     -5.973  0.0000E+00  0.0000E+00  0.3232E+00  0.3232E+00
     -5.756  0.0000E+00  0.0000E+00  0.3232E+00  0.3232E+00
     -5.539  0.0000E+00  0.0000E+00  0.3232E+00  0.3232E+00
     -5.322  0.0000E+00  0.0000E+00  0.3232E+00  0.3232E+00
     -5.104  0.0000E+00  0.0000E+00  0.3232E+00  0.3232E+00
     -4.887  0.0000E+00  0.0000E+00  0.3232E+00  0.3232E+00
     -4.670  0.0000E+00  0.0000E+00  0.3232E+00  0.3232E+00
     -4.453  0.0000E+00  0.0000E+00  0.3232E+00  0.3232E+00
     -4.235  0.0000E+00  0.0000E+00  0.3232E+00  0.3232E+00
     -4.018  0.0000E+00  0.0000E+00  0.3232E+00  0.3232E+00
     -3.801  0.0000E+00  0.0000E+00  0.3232E+00  0.3232E+00
     -3.584  0.0000E+00  0.0000E+00  0.3232E+00  0.3232E+00
     -3.366  0.0000E+00  0.0000E+00  0.3232E+00  0.3232E+00
     -3.149  0.0000E+00  0.0000E+00  0.3232E+00  0.3232E+00
     -2.932  0.0000E+00  0.0000E+00  0.3232E+00  0.3232E+00
     -2.715  0.0000E+00  0.0000E+00  0.3232E+00  0.3232E+00
     -2.497  0.0000E+00  0.0000E+00  0.3232E+00  0.3232E+00
     -2.280  0.0000E+00  0.0000E+00  0.3232E+00  0.3232E+00
     -2.063  0.1066E-15  0.1066E-15  0.3232E+00  0.3232E+00
     -1.846  0.2406E-04  0.2406E-04  0.3232E+00  0.3232E+00
     -1.628  0.4020E-02  0.4020E-02  0.3241E+00  0.3241E+00
     -1.411  0.2468E-01  0.2468E-01  0.3295E+00  0.3295E+00
     -1.194  0.5384E-01  0.5384E-01  0.3412E+00  0.3412E+00
     -0.977  0.6701E-01  0.6701E-01  0.3557E+00  0.3557E+00
     -0.759  0.5932E-01  0.5932E-01  0.3686E+00  0.3686E+00
     -0.542  0.6322E-01  0.6322E-01  0.3823E+00  0.3823E+00
     -0.325  0.3917E-01  0.3917E-01  0.3909E+00  0.3909E+00
     -0.108  0.3371E-01  0.3371E-01  0.3982E+00  0.3982E+00
      0.110  0.4012E-01  0.4012E-01  0.4069E+00  0.4069E+00
      0.327  0.5000E-01  0.5000E-01  0.4178E+00  0.4178E+00
      0.544  0.4830E-01  0.4830E-01  0.4283E+00  0.4283E+00
      0.761  0.8284E-01  0.8284E-01  0.4463E+00  0.4463E+00
      0.979  0.9697E-01  0.9697E-01  0.4673E+00  0.4673E+00
      1.196  0.1022E+00  0.1022E+00  0.4895E+00  0.4895E+00
      1.413  0.1139E+00  0.1139E+00  0.5143E+00  0.5143E+00
      1.630  0.8542E-01  0.8542E-01  0.5328E+00  0.5328E+00
      1.848  0.7667E-01  0.7667E-01  0.5495E+00  0.5495E+00
      2.065  0.7484E-01  0.7484E-01  0.5657E+00  0.5657E+00
      2.282  0.1156E+00  0.1156E+00  0.5908E+00  0.5908E+00
      2.499  0.1071E+00  0.1071E+00  0.6141E+00  0.6141E+00
      2.717  0.1352E+00  0.1352E+00  0.6435E+00  0.6435E+00
      2.934  0.1477E+00  0.1477E+00  0.6756E+00  0.6756E+00
      3.151  0.1231E+00  0.1231E+00  0.7023E+00  0.7023E+00
      3.368  0.9168E-01  0.9168E-01  0.7222E+00  0.7222E+00
      3.586  0.6408E-01  0.6408E-01  0.7362E+00  0.7362E+00
      3.803  0.7096E-01  0.7096E-01  0.7516E+00  0.7516E+00
      4.020  0.5885E-01  0.5885E-01  0.7644E+00  0.7644E+00
      4.237  0.4591E-01  0.4591E-01  0.7743E+00  0.7743E+00
      4.455  0.7058E-01  0.7058E-01  0.7897E+00  0.7897E+00
      4.672  0.7105E-01  0.7105E-01  0.8051E+00  0.8051E+00
      4.889  0.6888E-01  0.6888E-01  0.8201E+00  0.8201E+00
      5.106  0.1135E+00  0.1135E+00  0.8447E+00  0.8447E+00
      5.324  0.1189E+00  0.1189E+00  0.8706E+00  0.8706E+00
      5.541  0.9104E-01  0.9104E-01  0.8904E+00  0.8904E+00
      5.758  0.8712E-01  0.8712E-01  0.9093E+00  0.9093E+00
      5.975  0.8275E-01  0.8275E-01  0.9273E+00  0.9273E+00
      6.193  0.9997E-01  0.9997E-01  0.9490E+00  0.9490E+00
      6.410  0.4272E-01  0.4272E-01  0.9583E+00  0.9583E+00
      6.627  0.1517E-01  0.1517E-01  0.9616E+00  0.9616E+00
      6.844  0.1255E-01  0.1255E-01  0.9643E+00  0.9643E+00
      7.062  0.1775E-01  0.1775E-01  0.9681E+00  0.9681E+00
      7.279  0.1108E-01  0.1108E-01  0.9705E+00  0.9705E+00
      7.496  0.6898E-02  0.6898E-02  0.9720E+00  0.9720E+00
      7.713  0.1115E-01  0.1115E-01  0.9745E+00  0.9745E+00
      7.931  0.1327E-01  0.1327E-01  0.9774E+00  0.9774E+00
      8.148  0.1471E-01  0.1471E-01  0.9806E+00  0.9806E+00
      8.365  0.2981E-01  0.2982E-01  0.9870E+00  0.9870E+00
      8.583  0.3935E-01  0.3933E-01  0.9956E+00  0.9956E+00
      8.800  0.3870E-01  0.3879E-01  0.1004E+01  0.1004E+01
      9.017  0.1811E-01  0.1818E-01  0.1008E+01  0.1008E+01
      9.234  0.8985E-02  0.8869E-02  0.1010E+01  0.1010E+01
      9.452  0.1059E-02  0.1029E-02  0.1010E+01  0.1010E+01
      9.669  0.3887E-07  0.2957E-07  0.1010E+01  0.1010E+01
      9.886  0.0000E+00  0.0000E+00  0.1010E+01  0.1010E+01
     10.103  0.0000E+00  0.0000E+00  0.1010E+01  0.1010E+01
     10.321  0.0000E+00  0.0000E+00  0.1010E+01  0.1010E+01
     10.538  0.0000E+00  0.0000E+00  0.1010E+01  0.1010E+01
     10.755  0.0000E+00  0.0000E+00  0.1010E+01  0.1010E+01
     10.972  0.0000E+00  0.0000E+00  0.1010E+01  0.1010E+01
     11.190  0.0000E+00  0.0000E+00  0.1010E+01  0.1010E+01
     11.407  0.0000E+00  0.0000E+00  0.1010E+01  0.1010E+01
     11.624  0.0000E+00  0.0000E+00  0.1010E+01  0.1010E+01
     11.841  0.0000E+00  0.0000E+00  0.1010E+01  0.1010E+01
     12.059  0.0000E+00  0.0000E+00  0.1010E+01  0.1010E+01
     12.276  0.0000E+00  0.0000E+00  0.1010E+01  0.1010E+01
     12.27579657    -52.90000838  301      4.70369035      1.00000000
    -52.900  0.0000E+00  0.0000E+00  0.0000E+00  0.0000E+00  0.0000E+00  0.0000E+00  0.0000E+00  0.0000E+00  0.0000E+00  0.0000E+00  0.0000E+00  0.0000E+00  0.0000E+00  0.0000E+00  0.0000E+00  0.0000E+00  0.0000E+00  0.0000E+00
    -52.683  0.0000E+00  0.0000E+00  0.0000E+00  0.0000E+00  0.0000E+00  0.0000E+00  0.0000E+00  0.0000E+00  0.0000E+00  0.0000E+00  0.0000E+00  0.0000E+00  0.0000E+00  0.0000E+00  0.0000E+00  0.0000E+00  0.0000E+00  0.0000E+00
    -52.466  0.0000E+00  0.0000E+00  0.0000E+00  0.0000E+00  0.0000E+00  0.0000E+00  0.0000E+00  0.0000E+00  0.0000E+00  0.0000E+00  0.0000E+00  0.0000E+00  0.0000E+00  0.0000E+00  0.0000E+00  0.0000E+00  0.0000E+00  0.0000E+00
    -52.248  0.0000E+00  0.0000E+00  0.0000E+00  0.0000E+00  0.0000E+00  0.0000E+00  0.0000E+00  0.0000E+00  0.0000E+00  0.0000E+00  0.0000E+00  0.0000E+00  0.0000E+00  0.0000E+00  0.0000E+00  0.0000E+00  0.0000E+00  0.0000E+00
    -52.031  0.0000E+00  0.0000E+00  0.0000E+00  0.0000E+00  0.0000E+00  0.0000E+00  0.0000E+00  0.0000E+00  0.0000E+00  0.0000E+00  0.0000E+00  0.0000E+00  0.0000E+00  0.0000E+00  0.0000E+00  0.0000E+00  0.0000E+00  0.0000E+00
    -51.814  0.0000E+00  0.0000E+00  0.0000E+00  0.0000E+00  0.0000E+00  0.0000E+00  0.0000E+00  0.0000E+00  0.0000E+00  0.0000E+00  0.0000E+00  0.0000E+00  0.0000E+00  0.0000E+00  0.0000E+00  0.0000E+00  0.0000E+00  0.0000E+00
    -51.596  0.0000E+00  0.0000E+00  0.0000E+00  0.0000E+00  0.0000E+00  0.0000E+00  0.0000E+00  0.0000E+00  0.0000E+00  0.0000E+00  0.0000E+00  0.0000E+00  0.0000E+00  0.0000E+00  0.0000E+00  0.0000E+00  0.0000E+00  0.0000E+00
    -51.379  0.0000E+00  0.0000E+00  0.0000E+00  0.0000E+00  0.0000E+00  0.0000E+00  0.0000E+00  0.0000E+00  0.0000E+00  0.0000E+00  0.0000E+00  0.0000E+00  0.0000E+00  0.0000E+00  0.0000E+00  0.0000E+00  0.0000E+00  0.0000E+00
    -51.162  0.0000E+00  0.0000E+00  0.0000E+00  0.0000E+00  0.0000E+00  0.0000E+00  0.0000E+00  0.0000E+00  0.0000E+00  0.0000E+00  0.0000E+00  0.0000E+00  0.0000E+00  0.0000E+00  0.0000E+00  0.0000E+00  0.0000E+00  0.0000E+00
    -50.945  0.0000E+00  0.0000E+00  0.0000E+00  0.0000E+00  0.0000E+00  0.0000E+00  0.0000E+00  0.0000E+00  0.0000E+00  0.0000E+00  0.0000E+00  0.0000E+00  0.0000E+00  0.0000E+00  0.0000E+00  0.0000E+00  0.0000E+00  0.0000E+00
    -50.727  0.0000E+00  0.0000E+00  0.0000E+00  0.0000E+00  0.0000E+00  0.0000E+00  0.0000E+00  0.0000E+00  0.0000E+00  0.0000E+00  0.0000E+00  0.0000E+00  0.0000E+00  0.0000E+00  0.0000E+00  0.0000E+00  0.0000E+00  0.0000E+00
    -50.510  0.0000E+00  0.0000E+00  0.0000E+00  0.0000E+00  0.0000E+00  0.0000E+00  0.0000E+00  0.0000E+00  0.0000E+00  0.0000E+00  0.0000E+00  0.0000E+00  0.0000E+00  0.0000E+00  0.0000E+00  0.0000E+00  0.0000E+00  0.0000E+00
    -50.293  0.0000E+00  0.0000E+00  0.0000E+00  0.0000E+00  0.0000E+00  0.0000E+00  0.0000E+00  0.0000E+00  0.0000E+00  0.0000E+00  0.0000E+00  0.0000E+00  0.0000E+00  0.0000E+00  0.0000E+00  0.0000E+00  0.0000E+00  0.0000E+00
    -50.076  0.1434E-13  0.2334E-10  0.8064E-05  0.1372E-08  0.5939E-04  0.2009E-09  0.4831E-08  0.5633E-12  0.1713E-10  0.5005E-13  0.5753E-15  0.1024E-10  0.8008E-14  0.6785E-11  0.1099E-09  0.6507E-14  0.2086E-13  0.2806E-10
    -49.858  0.8321E-05  0.2247E-05  0.7545E+00  0.1312E-03  0.3683E+01  0.1310E-04  0.6312E+00  0.1369E-05  0.1944E-05  0.9288E-07  0.8516E-10  0.6350E-06  0.3871E-05  0.6967E-06  0.9711E-05  0.6892E-09  0.1161E-04  0.2555E-05
    -49.641  0.1215E-03  0.9008E-05  0.3829E+01  0.5881E-03  0.9013E+00  0.2223E-05  0.2011E+01  0.3661E-05  0.1016E-04  0.2524E-06  0.5103E-09  0.3398E-07  0.5651E-04  0.3548E-05  0.2289E-05  0.2284E-09  0.1696E-03  0.1123E-04
    -49.424  0.7275E-04  0.6697E-08  0.9090E-03  0.2954E-06  0.1277E-03  0.2166E-08  0.1929E+01  0.1719E-05  0.1836E-08  0.1294E-06  0.2475E-09  0.3379E-10  0.3381E-04  0.2460E-08  0.2886E-09  0.1532E-09  0.1014E-03  0.2823E-08
    -49.207  0.8304E-07  0.5079E-11  0.1043E-11  0.1998E-09  0.1418E-13  0.2167E-11  0.1447E-01  0.1074E-07  0.1355E-12  0.8560E-09  0.3527E-12  0.2838E-12  0.3852E-07  0.1951E-11  0.3136E-13  0.1711E-11  0.1155E-06  0.3232E-12
    -48.989  0.0000E+00  0.0000E+00  0.0000E+00  0.0000E+00  0.0000E+00  0.0000E+00  0.0000E+00  0.0000E+00  0.0000E+00  0.0000E+00  0.0000E+00  0.0000E+00  0.0000E+00  0.0000E+00  0.0000E+00  0.0000E+00  0.0000E+00  0.0000E+00
    -48.772  0.0000E+00  0.0000E+00  0.0000E+00  0.0000E+00  0.0000E+00  0.0000E+00  0.0000E+00  0.0000E+00  0.0000E+00  0.0000E+00  0.0000E+00  0.0000E+00  0.0000E+00  0.0000E+00  0.0000E+00  0.0000E+00  0.0000E+00  0.0000E+00
    -48.555  0.0000E+00  0.0000E+00  0.0000E+00  0.0000E+00  0.0000E+00  0.0000E+00  0.0000E+00  0.0000E+00  0.0000E+00  0.0000E+00  0.0000E+00  0.0000E+00  0.0000E+00  0.0000E+00  0.0000E+00  0.0000E+00  0.0000E+00  0.0000E+00
    -48.338  0.0000E+00  0.0000E+00  0.0000E+00  0.0000E+00  0.0000E+00  0.0000E+00  0.0000E+00  0.0000E+00  0.0000E+00  0.0000E+00  0.0000E+00  0.0000E+00  0.0000E+00  0.0000E+00  0.0000E+00  0.0000E+00  0.0000E+00  0.0000E+00
    -48.120  0.0000E+00  0.0000E+00  0.0000E+00  0.0000E+00  0.0000E+00  0.0000E+00  0.0000E+00  0.0000E+00  0.0000E+00  0.0000E+00  0.0000E+00  0.0000E+00  0.0000E+00  0.0000E+00  0.0000E+00  0.0000E+00  0.0000E+00  0.0000E+00
    -47.903  0.0000E+00  0.0000E+00  0.0000E+00  0.0000E+00  0.0000E+00  0.0000E+00  0.0000E+00  0.0000E+00  0.0000E+00  0.0000E+00  0.0000E+00  0.0000E+00  0.0000E+00  0.0000E+00  0.0000E+00  0.0000E+00  0.0000E+00  0.0000E+00
    -47.686  0.0000E+00  0.0000E+00  0.0000E+00  0.0000E+00  0.0000E+00  0.0000E+00  0.0000E+00  0.0000E+00  0.0000E+00  0.0000E+00  0.0000E+00  0.0000E+00  0.0000E+00  0.0000E+00  0.0000E+00  0.0000E+00  0.0000E+00  0.0000E+00
    -47.469  0.1325E-10  0.4950E-12  0.7861E-09  0.3580E-05  0.1558E-10  0.4825E-05  0.9292E-12  0.1552E-06  0.4141E-13  0.1050E-10  0.1579E-11  0.2387E-15  0.4326E-11  0.2308E-12  0.5131E-15  0.1400E-10  0.1560E-10  0.6938E-12
    -47.251  0.6946E-05  0.1614E-04  0.4226E-03  0.1875E+01  0.7814E-05  0.2404E+01  0.2538E-05  0.8846E+00  0.1756E-06  0.5793E-05  0.7725E-06  0.3312E-09  0.2277E-05  0.7554E-05  0.3406E-09  0.7537E-05  0.8022E-05  0.2272E-04
    -47.034  0.5885E-06  0.1378E-03  0.3505E-04  0.1615E+00  0.5779E-06  0.1905E+00  0.3493E-05  0.1750E+01  0.2676E-06  0.5077E-06  0.5554E-07  0.2208E-08  0.1999E-06  0.6416E-04  0.1232E-09  0.6114E-06  0.6768E-06  0.1931E-03
    -46.817  0.7809E-05  0.8714E-04  0.3883E-03  0.2548E+01  0.2515E-05  0.1990E+01  0.2304E-05  0.1913E+01  0.1841E-06  0.8024E-05  0.1520E-06  0.1816E-08  0.3191E-05  0.4049E-04  0.3494E-09  0.6327E-05  0.9742E-05  0.1219E-03
    -46.600  0.5148E-09  0.2732E-06  0.2641E-07  0.1690E-03  0.1636E-09  0.1267E-03  0.3359E-07  0.3840E-01  0.3035E-08  0.5011E-09  0.9826E-11  0.6915E-11  0.2101E-09  0.1268E-06  0.2967E-11  0.3862E-09  0.6443E-09  0.3815E-06
    -46.382  0.0000E+00  0.0000E+00  0.0000E+00  0.0000E+00  0.0000E+00  0.0000E+00  0.0000E+00  0.0000E+00  0.0000E+00  0.0000E+00  0.0000E+00  0.0000E+00  0.0000E+00  0.0000E+00  0.0000E+00  0.0000E+00  0.0000E+00  0.0000E+00
    -46.165  0.0000E+00  0.0000E+00  0.0000E+00  0.0000E+00  0.0000E+00  0.0000E+00  0.0000E+00  0.0000E+00  0.0000E+00  0.0000E+00  0.0000E+00  0.0000E+00  0.0000E+00  0.0000E+00  0.0000E+00  0.0000E+00  0.0000E+00  0.0000E+00
    -45.948  0.0000E+00  0.0000E+00  0.0000E+00  0.0000E+00  0.0000E+00  0.0000E+00  0.0000E+00  0.0000E+00  0.0000E+00  0.0000E+00  0.0000E+00  0.0000E+00  0.0000E+00  0.0000E+00  0.0000E+00  0.0000E+00  0.0000E+00  0.0000E+00
    -45.731  0.0000E+00  0.0000E+00  0.0000E+00  0.0000E+00  0.0000E+00  0.0000E+00  0.0000E+00  0.0000E+00  0.0000E+00  0.0000E+00  0.0000E+00  0.0000E+00  0.0000E+00  0.0000E+00  0.0000E+00  0.0000E+00  0.0000E+00  0.0000E+00
    -45.513  0.0000E+00  0.0000E+00  0.0000E+00  0.0000E+00  0.0000E+00  0.0000E+00  0.0000E+00  0.0000E+00  0.0000E+00  0.0000E+00  0.0000E+00  0.0000E+00  0.0000E+00  0.0000E+00  0.0000E+00  0.0000E+00  0.0000E+00  0.0000E+00
    -45.296  0.0000E+00  0.0000E+00  0.0000E+00  0.0000E+00  0.0000E+00  0.0000E+00  0.0000E+00  0.0000E+00  0.0000E+00  0.0000E+00  0.0000E+00  0.0000E+00  0.0000E+00  0.0000E+00  0.0000E+00  0.0000E+00  0.0000E+00  0.0000E+00
    -45.079  0.0000E+00  0.0000E+00  0.0000E+00  0.0000E+00  0.0000E+00  0.0000E+00  0.0000E+00  0.0000E+00  0.0000E+00  0.0000E+00  0.0000E+00  0.0000E+00  0.0000E+00  0.0000E+00  0.0000E+00  0.0000E+00  0.0000E+00  0.0000E+00
    -44.862  0.0000E+00  0.0000E+00  0.0000E+00  0.0000E+00  0.0000E+00  0.0000E+00  0.0000E+00  0.0000E+00  0.0000E+00  0.0000E+00  0.0000E+00  0.0000E+00  0.0000E+00  0.0000E+00  0.0000E+00  0.0000E+00  0.0000E+00  0.0000E+00
    -44.644  0.0000E+00  0.0000E+00  0.0000E+00  0.0000E+00  0.0000E+00  0.0000E+00  0.0000E+00  0.0000E+00  0.0000E+00  0.0000E+00  0.0000E+00  0.0000E+00  0.0000E+00  0.0000E+00  0.0000E+00  0.0000E+00  0.0000E+00  0.0000E+00
    -44.427  0.0000E+00  0.0000E+00  0.0000E+00  0.0000E+00  0.0000E+00  0.0000E+00  0.0000E+00  0.0000E+00  0.0000E+00  0.0000E+00  0.0000E+00  0.0000E+00  0.0000E+00  0.0000E+00  0.0000E+00  0.0000E+00  0.0000E+00  0.0000E+00
    -44.210  0.0000E+00  0.0000E+00  0.0000E+00  0.0000E+00  0.0000E+00  0.0000E+00  0.0000E+00  0.0000E+00  0.0000E+00  0.0000E+00  0.0000E+00  0.0000E+00  0.0000E+00  0.0000E+00  0.0000E+00  0.0000E+00  0.0000E+00  0.0000E+00
    -43.993  0.0000E+00  0.0000E+00  0.0000E+00  0.0000E+00  0.0000E+00  0.0000E+00  0.0000E+00  0.0000E+00  0.0000E+00  0.0000E+00  0.0000E+00  0.0000E+00  0.0000E+00  0.0000E+00  0.0000E+00  0.0000E+00  0.0000E+00  0.0000E+00
    -43.775  0.0000E+00  0.0000E+00  0.0000E+00  0.0000E+00  0.0000E+00  0.0000E+00  0.0000E+00  0.0000E+00  0.0000E+00  0.0000E+00  0.0000E+00  0.0000E+00  0.0000E+00  0.0000E+00  0.0000E+00  0.0000E+00  0.0000E+00  0.0000E+00
    -43.558  0.0000E+00  0.0000E+00  0.0000E+00  0.0000E+00  0.0000E+00  0.0000E+00  0.0000E+00  0.0000E+00  0.0000E+00  0.0000E+00  0.0000E+00  0.0000E+00  0.0000E+00  0.0000E+00  0.0000E+00  0.0000E+00  0.0000E+00  0.0000E+00
    -43.341  0.0000E+00  0.0000E+00  0.0000E+00  0.0000E+00  0.0000E+00  0.0000E+00  0.0000E+00  0.0000E+00  0.0000E+00  0.0000E+00  0.0000E+00  0.0000E+00  0.0000E+00  0.0000E+00  0.0000E+00  0.0000E+00  0.0000E+00  0.0000E+00
    -43.124  0.0000E+00  0.0000E+00  0.0000E+00  0.0000E+00  0.0000E+00  0.0000E+00  0.0000E+00  0.0000E+00  0.0000E+00  0.0000E+00  0.0000E+00  0.0000E+00  0.0000E+00  0.0000E+00  0.0000E+00  0.0000E+00  0.0000E+00  0.0000E+00
    -42.906  0.0000E+00  0.0000E+00  0.0000E+00  0.0000E+00  0.0000E+00  0.0000E+00  0.0000E+00  0.0000E+00  0.0000E+00  0.0000E+00  0.0000E+00  0.0000E+00  0.0000E+00  0.0000E+00  0.0000E+00  0.0000E+00  0.0000E+00  0.0000E+00
    -42.689  0.0000E+00  0.0000E+00  0.0000E+00  0.0000E+00  0.0000E+00  0.0000E+00  0.0000E+00  0.0000E+00  0.0000E+00  0.0000E+00  0.0000E+00  0.0000E+00  0.0000E+00  0.0000E+00  0.0000E+00  0.0000E+00  0.0000E+00  0.0000E+00
    -42.472  0.0000E+00  0.0000E+00  0.0000E+00  0.0000E+00  0.0000E+00  0.0000E+00  0.0000E+00  0.0000E+00  0.0000E+00  0.0000E+00  0.0000E+00  0.0000E+00  0.0000E+00  0.0000E+00  0.0000E+00  0.0000E+00  0.0000E+00  0.0000E+00
    -42.255  0.0000E+00  0.0000E+00  0.0000E+00  0.0000E+00  0.0000E+00  0.0000E+00  0.0000E+00  0.0000E+00  0.0000E+00  0.0000E+00  0.0000E+00  0.0000E+00  0.0000E+00  0.0000E+00  0.0000E+00  0.0000E+00  0.0000E+00  0.0000E+00
    -42.037  0.0000E+00  0.0000E+00  0.0000E+00  0.0000E+00  0.0000E+00  0.0000E+00  0.0000E+00  0.0000E+00  0.0000E+00  0.0000E+00  0.0000E+00  0.0000E+00  0.0000E+00  0.0000E+00  0.0000E+00  0.0000E+00  0.0000E+00  0.0000E+00