 vasp.6.4.1 05Apr23 (build Jun 01 2023 13:46:15) complex                        
  
 executed on             LinuxIFC date 2023.12.17  00:37:32
 running   20 mpi-ranks, on    5 nodes
 distrk:  each k-point on   20 cores,    1 groups
 distr:  one band on NCORE=   1 cores,   20 groups


--------------------------------------------------------------------------------------------------------


 INCAR:
   ALGO = Fast
   EDIFF = 0.0002
   ENCUT = 550
   IBRION = 2
   ISIF = 4
   ISMEAR = 0
   ISPIN = 2
   IVDW = 13
   LASPH = True
   LMAXMIX = 4
   LORBIT = 11
   LREAL = Auto
   LWAVE = False
   MAGMOM = 1*2.466 2*-2.466 2*2.466 2*-2.466 1*2.466 8*0.0
   NELM = 100
   NSW = 99
   PREC = Accurate
   SIGMA = 0.05

 POTCAR:   PAW_PBE Fe_pv 06Sep2000                
 POTCAR:   PAW_PBE Se 06Sep2000                   
 -----------------------------------------------------------------------------
|                                                                             |
|           W    W    AA    RRRRR   N    N  II  N    N   GGGG   !!!           |
|           W    W   A  A   R    R  NN   N  II  NN   N  G    G  !!!           |
|           W    W  A    A  R    R  N N  N  II  N N  N  G       !!!           |
|           W WW W  AAAAAA  RRRRR   N  N N  II  N  N N  G  GGG   !            |
|           WW  WW  A    A  R   R   N   NN  II  N   NN  G    G                |
|           W    W  A    A  R    R  N    N  II  N    N   GGGG   !!!           |
|                                                                             |
|     For optimal performance we recommend to set                             |
|       NCORE = 2 up to number-of-cores-per-socket                            |
|     NCORE specifies how many cores store one orbital (NPAR=cpu/NCORE).      |
|     This setting can greatly improve the performance of VASP for DFT.       |
|     The default, NCORE=1 might be grossly inefficient on modern             |
|     multi-core architectures or massively parallel machines. Do your        |
|     own testing! More info at https://www.vasp.at/wiki/index.php/NCORE      |
|     Unfortunately you need to use the default for GW and RPA                |
|     calculations (for HF NCORE is supported but not extensively tested      |
|     yet).                                                                   |
|                                                                             |
 -----------------------------------------------------------------------------

 POTCAR:   PAW_PBE Fe_pv 06Sep2000                
   VRHFIN =Fe:  3pd7s1                                                                              
   LEXCH  = PE                                                                                      
   EATOM  =  2456.8974 eV,  180.5769 Ry                                                             
                                                                                                    
   TITEL  = PAW_PBE Fe_pv 06Sep2000                                                                 
   LULTRA =        F    use ultrasoft PP ?                                                          
   IUNSCR =        1    unscreen: 0-lin 1-nonlin 2-no                                               
   RPACOR =    1.750    partial core radius                                                         
   POMASS =   55.847; ZVAL   =   14.000    mass and valenz                                          
   RCORE  =    2.200    outmost cutoff radius                                                       
   RWIGS  =    2.200; RWIGS  =    1.164    wigner-seitz radius (au A)                               
   ENMAX  =  293.238; ENMIN  =  219.929 eV                                                          
   RCLOC  =    1.701    cutoff for local pot                                                        
   LCOR   =        T    correct aug charges                                                         
   LPAW   =        T    paw PP                                                                      
   EAUG   =  578.342                                                                                
   DEXC   =    -.002                                                                                
   RMAX   =    2.693    core radius for proj-oper                                                   
   RAUG   =    1.300    factor for augmentation sphere                                              
   RDEP   =    2.296    radius for radial grids                                                     
   QCUT   =   -4.642; QGAM   =    9.285    optimization parameters                                  
                                                                                                    
   Description                                                                                      
     l     E      TYP  RCUT    TYP  RCUT                                                            
     1   .000     23  2.000                                                                         
     1  -.400     23  2.000                                                                         
     2   .000     23  2.200                                                                         
     2   .000     23  2.200                                                                         
     0   .000     23  2.000                                                                         
     0  2.000     23  2.000                                                                         
     3   .000      7   .000                                                                         
  local pseudopotential read in
  partial core-charges read in
  atomic valenz-charges read in
  non local Contribution for L=           1  read in
    real space projection operators read in
  non local Contribution for L=           1  read in
    real space projection operators read in
  non local Contribution for L=           2  read in
    real space projection operators read in
  non local Contribution for L=           2  read in
    real space projection operators read in
  non local Contribution for L=           0  read in
    real space projection operators read in
  non local Contribution for L=           0  read in
    real space projection operators read in
    PAW grid and wavefunctions read in
 
   number of l-projection  operators is LMAX  =           6
   number of lm-projection operators is LMMAX =          18
 
 POTCAR:   PAW_PBE Se 06Sep2000                   
   VRHFIN =Se: s2p4                                                                                 
   LEXCH  = PE                                                                                      
   EATOM  =   256.9644 eV,   18.8864 Ry                                                             
                                                                                                    
   TITEL  = PAW_PBE Se 06Sep2000                                                                    
   LULTRA =        F    use ultrasoft PP ?                                                          
   IUNSCR =        1    unscreen: 0-lin 1-nonlin 2-no                                               
   RPACOR =    1.900    partial core radius                                                         
   POMASS =   78.960; ZVAL   =    6.000    mass and valenz                                          
   RCORE  =    2.100    outmost cutoff radius                                                       
   RWIGS  =    2.200; RWIGS  =    1.164    wigner-seitz radius (au A)                               
   ENMAX  =  211.534; ENMIN  =  158.651 eV                                                          
   ICORE  =        3    local potential                                                             
   LCOR   =        T    correct aug charges                                                         
   LPAW   =        T    paw PP                                                                      
   EAUG   =  446.842                                                                                
   DEXC   =    -.031                                                                                
   RMAX   =    3.170    core radius for proj-oper                                                   
   RAUG   =    1.300    factor for augmentation sphere                                              
   RDEP   =    2.177    radius for radial grids                                                     
   QCUT   =   -3.943; QGAM   =    7.886    optimization parameters                                  
                                                                                                    
   Description                                                                                      
     l     E      TYP  RCUT    TYP  RCUT                                                            
     0   .000     23  2.100                                                                         
     0   .000     23  2.100                                                                         
     1   .000     23  2.100                                                                         
     1   .000     23  2.100                                                                         
     2   .000     23  2.100                                                                         
     3  -.100      7  2.100                                                                         
  local pseudopotential read in
  partial core-charges read in
  atomic valenz-charges read in
  non local Contribution for L=           0  read in
    real space projection operators read in
  non local Contribution for L=           0  read in
    real space projection operators read in
  non local Contribution for L=           1  read in
    real space projection operators read in
  non local Contribution for L=           1  read in
    real space projection operators read in
  non local Contribution for L=           2  read in
    real space projection operators read in
    PAW grid and wavefunctions read in
 
   number of l-projection  operators is LMAX  =           5
   number of lm-projection operators is LMMAX =          13
 
 Optimization of the real space projectors (new method)

 maximal supplied QI-value         = 17.01
 optimisation between [QCUT,QGAM] = [ 11.91, 23.98] = [ 39.69,161.04] Ry 
 Optimized for a Real-space Cutoff    1.45 Angstroem

   l    n(q)    QCUT    max X(q) W(low)/X(q) W(high)/X(q)  e(spline) 
   1     10    11.905     4.550    0.27E-05    0.11E-05    0.28E-07
   1     10    11.905     5.234    0.10E-04    0.61E-04    0.17E-06
   2      9    11.905     3.960    0.19E-04    0.73E-05    0.50E-07
   2      9    11.905    29.565    0.24E-03    0.51E-04    0.27E-06
   0     10    11.905    23.582    0.17E-04    0.10E-05    0.14E-07
   0     10    11.905    39.747    0.23E-04    0.68E-05    0.74E-07
 Optimization of the real space projectors (new method)

 maximal supplied QI-value         = 17.95
 optimisation between [QCUT,QGAM] = [ 11.85, 23.88] = [ 39.31,159.64] Ry 
 Optimized for a Real-space Cutoff    1.18 Angstroem

   l    n(q)    QCUT    max X(q) W(low)/X(q) W(high)/X(q)  e(spline) 
   0      8    11.849     6.499    0.17E-04    0.94E-05    0.89E-08
   0      8    11.849    52.623    0.21E-03    0.78E-04    0.81E-07
   1      8    11.849     4.229    0.79E-04    0.83E-04    0.23E-07
   1      8    11.849    29.991    0.12E-03    0.43E-03    0.14E-06
   2      7    11.849     3.719    0.22E-03    0.64E-04    0.38E-07
 PAW_PBE Fe_pv 06Sep2000                :
 energy of atom  1       EATOM=-2456.8974
 kinetic energy error for atom=    0.0060 (will be added to EATOM!!)
 PAW_PBE Se 06Sep2000                   :
 energy of atom  2       EATOM= -256.9644
 kinetic energy error for atom=    0.0007 (will be added to EATOM!!)
 
 
 POSCAR: Fe8 Se8
  positions in direct lattice
  No initial velocities read in
 exchange correlation table for  LEXCH =        8
   RHO(1)=    0.500       N(1)  =     2000
   RHO(2)=  100.500       N(2)  =     4000
 


--------------------------------------------------------------------------------------------------------


 ion  position               nearest neighbor table
   1  0.000  0.000  0.000-  11 2.27  14 2.27   5 2.36   8 2.36   7 2.76   6 2.76
   2  0.000  0.500  0.000-  12 2.27  13 2.27   6 2.36   7 2.36   5 2.76   8 2.76
   3  0.500  0.000  0.000-   9 2.27  16 2.27   6 2.36   7 2.36   5 2.76   8 2.76
   4  0.500  0.500  0.000-  10 2.27  15 2.27   5 2.36   8 2.36   7 2.76   6 2.76
   5  0.250  0.250  0.000-   9 2.27  13 2.27   1 2.36   4 2.36   3 2.76   2 2.76
   6  0.250  0.750  0.000-  10 2.27  14 2.27   2 2.36   3 2.36   1 2.76   4 2.76
   7  0.750  0.250  0.000-  11 2.27  15 2.27   2 2.36   3 2.36   1 2.76   4 2.76
   8  0.750  0.750  0.000-  12 2.27  16 2.27   1 2.36   4 2.36   3 2.76   2 2.76
   9  0.375  0.125  0.669-   3 2.27   5 2.27
  10  0.375  0.625  0.669-   4 2.27   6 2.27
  11  0.875  0.125  0.669-   1 2.27   7 2.27
  12  0.875  0.625  0.669-   2 2.27   8 2.27
  13  0.125  0.375  0.331-   2 2.27   5 2.27
  14  0.125  0.875  0.331-   1 2.27   6 2.27
  15  0.625  0.375  0.331-   4 2.27   7 2.27
  16  0.625  0.875  0.331-   3 2.27   8 2.27
 
  LATTYP: Found a base centered orthorhombic cell.
 ALAT       =     9.4528445528
 B/A-ratio  =     1.1666920980
 C/A-ratio  =     0.5763741977
  
  Lattice vectors:
  
 A1 = (   4.7264222764,  -5.5142795217,   0.0000000000)
 A2 = (   4.7264222764,   5.5142795217,   0.0000000000)
 A3 = (   0.0000000000,   0.0000000000,   5.4483756951)


Analysis of symmetry for initial positions (statically):
=====================================================================
 Subroutine PRICEL returns following result:
 
  LATTYP: Found a base centered orthorhombic cell.
 ALAT       =     4.7264222764
 B/A-ratio  =     1.1666920980
 C/A-ratio  =     1.1527483954
  
  Lattice vectors:
  
 A1 = (   2.3632111382,  -2.7571397609,   0.0000000000)
 A2 = (   2.3632111382,   2.7571397609,   0.0000000000)
 A3 = (   0.0000000000,   0.0000000000,   5.4483756951)
 
   4 primitive cells build up your supercell.
 

 Routine SETGRP: Setting up the symmetry group for a 
 base centered orthorhombic supercell.


 Subroutine GETGRP returns: Found  8 space group operations
 (whereof  4 operations were pure point group operations)
 out of a pool of  8 trial point group operations.


The static configuration has the point symmetry C_2h.
 The point group associated with its full space group is D_2h.


Analysis of symmetry for dynamics (positions and initial velocities):
=====================================================================
 Subroutine PRICEL returns following result:
 
  LATTYP: Found a base centered orthorhombic cell.
 ALAT       =     4.7264222764
 B/A-ratio  =     1.1666920980
 C/A-ratio  =     1.1527483954
  
  Lattice vectors:
  
 A1 = (   2.3632111382,  -2.7571397609,   0.0000000000)
 A2 = (   2.3632111382,   2.7571397609,   0.0000000000)
 A3 = (   0.0000000000,   0.0000000000,   5.4483756951)
 
   4 primitive cells build up your supercell.
 

 Routine SETGRP: Setting up the symmetry group for a 
 base centered orthorhombic supercell.


 Subroutine GETGRP returns: Found  8 space group operations
 (whereof  4 operations were pure point group operations)
 out of a pool of  8 trial point group operations.


The dynamic configuration has the point symmetry C_2h.
 The point group associated with its full space group is D_2h.


Analysis of structural, dynamic, and magnetic symmetry:
=====================================================================
 Subroutine PRICEL returns following result:
 
  LATTYP: Found a base centered orthorhombic cell.
 ALAT       =     4.7264222764
 B/A-ratio  =     1.1666920980
 C/A-ratio  =     1.1527483954
  
  Lattice vectors:
  
 A1 = (   2.3632111382,  -2.7571397609,   0.0000000000)
 A2 = (   2.3632111382,   2.7571397609,   0.0000000000)
 A3 = (   0.0000000000,   0.0000000000,   5.4483756951)
 
   4 primitive cells build up your supercell.
 

 Routine SETGRP: Setting up the symmetry group for a 
 base centered orthorhombic supercell.


 Subroutine GETGRP returns: Found  8 space group operations
 (whereof  4 operations were pure point group operations)
 out of a pool of  8 trial point group operations.


The overall configuration has the point symmetry C_2h.
 The point group associated with its full space group is D_2h.


 Subroutine INISYM returns: Found  8 space group operations
 (whereof  4 operations are pure point group operations),
 and found     4 'primitive' translations


----------------------------------------------------------------------------------------

                                     Primitive cell                                     

  volume of cell :      71.0000

  direct lattice vectors                    reciprocal lattice vectors
     2.363211138 -2.757139761  0.000000000     0.211576525 -0.181347354  0.000000000
     2.363211138  2.757139761  0.000000000     0.211576525  0.181347354  0.000000000
     0.000000000  0.000000000  5.448375695     0.000000000  0.000000000  0.183540941

  length of vectors
     3.631333990  3.631333990  5.448375695     0.278660167  0.278660167  0.183540941

  position of ions in fractional coordinates (direct lattice)
     0.000000000  0.000000000  0.000000000
     0.500000000  0.500000000  0.000000000
     0.750000000  0.250000000  0.668612132
     0.250000000  0.750000000  0.331387868

  ion indices of the primitive-cell ions
   primitive index   ion index
                 1           1
                 2           5
                 3          11
                 4          14

----------------------------------------------------------------------------------------

 
 
 KPOINTS: KPOINTS                                 

Automatic generation of k-mesh.
 Grid dimensions read from file:
 generate k-points for:    7    7    9

 Generating k-lattice:

  Cartesian coordinates                     Fractional coordinates (reciprocal lattice)
     0.015112609 -0.012953382  0.000000000     0.142857143  0.000000000  0.000000000
     0.015112609  0.012953382  0.000000000     0.000000000  0.142857143  0.000000000
     0.000000000  0.000000000  0.020393438     0.000000000  0.000000000  0.111111111

  Length of vectors
     0.019904298  0.019904298  0.020393438

  Shift w.r.t. Gamma in fractional coordinates (k-lattice)
     0.000000000  0.000000000  0.000000000

 
 Subroutine IBZKPT returns following result:
 ===========================================
 
 Found     80 irreducible k-points:
 
 Following reciprocal coordinates:
            Coordinates               Weight
  0.000000  0.000000  0.000000      1.000000
  0.142857  0.000000  0.000000      4.000000
  0.285714 -0.000000  0.000000      4.000000
  0.428571 -0.000000  0.000000      4.000000
  0.142857  0.142857  0.000000      2.000000
  0.285714  0.142857  0.000000      4.000000
  0.428571  0.142857  0.000000      4.000000
 -0.428571  0.142857  0.000000      4.000000
 -0.285714  0.142857  0.000000      4.000000
 -0.142857  0.142857  0.000000      2.000000
  0.285714  0.285714  0.000000      2.000000
  0.428571  0.285714  0.000000      4.000000
 -0.428571  0.285714  0.000000      4.000000
 -0.285714  0.285714  0.000000      2.000000
  0.428571  0.428571  0.000000      2.000000
 -0.428571  0.428571  0.000000      2.000000
  0.000000  0.000000  0.111111      2.000000
  0.142857  0.000000  0.111111      8.000000
  0.285714 -0.000000  0.111111      8.000000
  0.428571 -0.000000  0.111111      8.000000
  0.142857  0.142857  0.111111      4.000000
  0.285714  0.142857  0.111111      8.000000
  0.428571  0.142857  0.111111      8.000000
 -0.428571  0.142857  0.111111      8.000000
 -0.285714  0.142857  0.111111      8.000000
 -0.142857  0.142857  0.111111      4.000000
  0.285714  0.285714  0.111111      4.000000
  0.428571  0.285714  0.111111      8.000000
 -0.428571  0.285714  0.111111      8.000000
 -0.285714  0.285714  0.111111      4.000000
  0.428571  0.428571  0.111111      4.000000
 -0.428571  0.428571  0.111111      4.000000
  0.000000  0.000000  0.222222      2.000000
  0.142857  0.000000  0.222222      8.000000
  0.285714 -0.000000  0.222222      8.000000
  0.428571 -0.000000  0.222222      8.000000
  0.142857  0.142857  0.222222      4.000000
  0.285714  0.142857  0.222222      8.000000
  0.428571  0.142857  0.222222      8.000000
 -0.428571  0.142857  0.222222      8.000000
 -0.285714  0.142857  0.222222      8.000000
 -0.142857  0.142857  0.222222      4.000000
  0.285714  0.285714  0.222222      4.000000
  0.428571  0.285714  0.222222      8.000000
 -0.428571  0.285714  0.222222      8.000000
 -0.285714  0.285714  0.222222      4.000000
  0.428571  0.428571  0.222222      4.000000
 -0.428571  0.428571  0.222222      4.000000
  0.000000  0.000000  0.333333      2.000000
  0.142857  0.000000  0.333333      8.000000
  0.285714 -0.000000  0.333333      8.000000
  0.428571 -0.000000  0.333333      8.000000
  0.142857  0.142857  0.333333      4.000000
  0.285714  0.142857  0.333333      8.000000
  0.428571  0.142857  0.333333      8.000000
 -0.428571  0.142857  0.333333      8.000000
 -0.285714  0.142857  0.333333      8.000000
 -0.142857  0.142857  0.333333      4.000000
  0.285714  0.285714  0.333333      4.000000
  0.428571  0.285714  0.333333      8.000000
 -0.428571  0.285714  0.333333      8.000000
 -0.285714  0.285714  0.333333      4.000000
  0.428571  0.428571  0.333333      4.000000
 -0.428571  0.428571  0.333333      4.000000
  0.000000  0.000000  0.444444      2.000000
  0.142857  0.000000  0.444444      8.000000
  0.285714 -0.000000  0.444444      8.000000
  0.428571 -0.000000  0.444444      8.000000
  0.142857  0.142857  0.444444      4.000000
  0.285714  0.142857  0.444444      8.000000
  0.428571  0.142857  0.444444      8.000000
 -0.428571  0.142857  0.444444      8.000000
 -0.285714  0.142857  0.444444      8.000000
 -0.142857  0.142857  0.444444      4.000000
  0.285714  0.285714  0.444444      4.000000
  0.428571  0.285714  0.444444      8.000000
 -0.428571  0.285714  0.444444      8.000000
 -0.285714  0.285714  0.444444      4.000000
  0.428571  0.428571  0.444444      4.000000
 -0.428571  0.428571  0.444444      4.000000
 
 Following cartesian coordinates:
            Coordinates               Weight
  0.000000  0.000000  0.000000      1.000000
  0.015113 -0.012953  0.000000      4.000000
  0.030225 -0.025907  0.000000      4.000000
  0.045338 -0.038860  0.000000      4.000000
  0.030225 -0.000000  0.000000      2.000000
  0.045338 -0.012953  0.000000      4.000000
  0.060450 -0.025907  0.000000      4.000000
 -0.030225  0.051814  0.000000      4.000000
 -0.015113  0.038860  0.000000      4.000000
  0.000000  0.025907  0.000000      2.000000
  0.060450  0.000000  0.000000      2.000000
  0.075563 -0.012953  0.000000      4.000000
 -0.015113  0.064767  0.000000      4.000000
 -0.000000  0.051814  0.000000      2.000000
  0.090676  0.000000  0.000000      2.000000
  0.000000  0.077720  0.000000      2.000000
  0.000000  0.000000  0.020393      2.000000
  0.015113 -0.012953  0.020393      8.000000
  0.030225 -0.025907  0.020393      8.000000
  0.045338 -0.038860  0.020393      8.000000
  0.030225 -0.000000  0.020393      4.000000
  0.045338 -0.012953  0.020393      8.000000
  0.060450 -0.025907  0.020393      8.000000
 -0.030225  0.051814  0.020393      8.000000
 -0.015113  0.038860  0.020393      8.000000
  0.000000  0.025907  0.020393      4.000000
  0.060450  0.000000  0.020393      4.000000
  0.075563 -0.012953  0.020393      8.000000
 -0.015113  0.064767  0.020393      8.000000
 -0.000000  0.051814  0.020393      4.000000
  0.090676  0.000000  0.020393      4.000000
  0.000000  0.077720  0.020393      4.000000
  0.000000  0.000000  0.040787      2.000000
  0.015113 -0.012953  0.040787      8.000000
  0.030225 -0.025907  0.040787      8.000000
  0.045338 -0.038860  0.040787      8.000000
  0.030225 -0.000000  0.040787      4.000000
  0.045338 -0.012953  0.040787      8.000000
  0.060450 -0.025907  0.040787      8.000000
 -0.030225  0.051814  0.040787      8.000000
 -0.015113  0.038860  0.040787      8.000000
  0.000000  0.025907  0.040787      4.000000
  0.060450  0.000000  0.040787      4.000000
  0.075563 -0.012953  0.040787      8.000000
 -0.015113  0.064767  0.040787      8.000000
 -0.000000  0.051814  0.040787      4.000000
  0.090676  0.000000  0.040787      4.000000
  0.000000  0.077720  0.040787      4.000000
  0.000000  0.000000  0.061180      2.000000
  0.015113 -0.012953  0.061180      8.000000
  0.030225 -0.025907  0.061180      8.000000
  0.045338 -0.038860  0.061180      8.000000
  0.030225 -0.000000  0.061180      4.000000
  0.045338 -0.012953  0.061180      8.000000
  0.060450 -0.025907  0.061180      8.000000
 -0.030225  0.051814  0.061180      8.000000
 -0.015113  0.038860  0.061180      8.000000
  0.000000  0.025907  0.061180      4.000000
  0.060450  0.000000  0.061180      4.000000
  0.075563 -0.012953  0.061180      8.000000
 -0.015113  0.064767  0.061180      8.000000
 -0.000000  0.051814  0.061180      4.000000
  0.090676  0.000000  0.061180      4.000000
  0.000000  0.077720  0.061180      4.000000
  0.000000  0.000000  0.081574      2.000000
  0.015113 -0.012953  0.081574      8.000000
  0.030225 -0.025907  0.081574      8.000000
  0.045338 -0.038860  0.081574      8.000000
  0.030225 -0.000000  0.081574      4.000000
  0.045338 -0.012953  0.081574      8.000000
  0.060450 -0.025907  0.081574      8.000000
 -0.030225  0.051814  0.081574      8.000000
 -0.015113  0.038860  0.081574      8.000000
  0.000000  0.025907  0.081574      4.000000
  0.060450  0.000000  0.081574      4.000000
  0.075563 -0.012953  0.081574      8.000000
 -0.015113  0.064767  0.081574      8.000000
 -0.000000  0.051814  0.081574      4.000000
  0.090676  0.000000  0.081574      4.000000
  0.000000  0.077720  0.081574      4.000000
 


--------------------------------------------------------------------------------------------------------




 Dimension of arrays:
   k-points           NKPTS =     80   k-points in BZ     NKDIM =     80   number of bands    NBANDS=    100
   number of dos      NEDOS =    301   number of ions     NIONS =     16
   non local maximal  LDIM  =      6   non local SUM 2l+1 LMDIM =     18
   total plane-waves  NPLWV = 131712
   max r-space proj   IRMAX =   5947   max aug-charges    IRDMAX=  20422
   dimension x,y,z NGX =    56 NGY =   56 NGZ =   42
   dimension x,y,z NGXF=   112 NGYF=  112 NGZF=   84
   support grid    NGXF=   112 NGYF=  112 NGZF=   84
   ions per type =               8   8
   NGX,Y,Z   is equivalent  to a cutoff of  12.82, 12.82, 12.82 a.u.
   NGXF,Y,Z  is equivalent  to a cutoff of  25.64, 25.64, 25.63 a.u.

 SYSTEM =  unknown system                          
 POSCAR =  Fe8 Se8                                 

 Startparameter for this run:
   NWRITE =      2    write-flag & timer
   PREC   = accura    normal or accurate (medium, high low for compatibility)
   ISTART =      0    job   : 0-new  1-cont  2-samecut
   ICHARG =      2    charge: 1-file 2-atom 10-const
   ISPIN  =      2    spin polarized calculation?
   LNONCOLLINEAR =      F non collinear calculations
   LSORBIT =      F    spin-orbit coupling
   INIWAV =      1    electr: 0-lowe 1-rand  2-diag
   LASPH  =      T    aspherical Exc in radial PAW
 Electronic Relaxation 1
   ENCUT  =  550.0 eV  40.42 Ry    6.36 a.u.  13.89 13.89 10.42*2*pi/ulx,y,z
   ENINI  =  550.0     initial cutoff
   ENAUG  =  578.3 eV  augmentation charge cutoff
   NELM   =    100;   NELMIN=  2; NELMDL=  0     # of ELM steps 
   EDIFF  = 0.2E-03   stopping-criterion for ELM
   LREAL  =      T    real-space projection
   NLSPLINE    = F    spline interpolate recip. space projectors
   LCOMPAT=      F    compatible to vasp.4.4
   GGA_COMPAT  = T    GGA compatible to vasp.4.4-vasp.4.6
   LMAXPAW     = -100 max onsite density
   LMAXMIX     =    4 max onsite mixed and CHGCAR
   VOSKOWN=      0    Vosko Wilk Nusair interpolation
   ROPT   =   -0.00025  -0.00025
 Ionic relaxation
   EDIFFG = 0.2E-02   stopping-criterion for IOM
   NSW    =     99    number of steps for IOM
   NBLOCK =      1;   KBLOCK =     99    inner block; outer block 
   IBRION =      2    ionic relax: 0-MD 1-quasi-New 2-CG
   NFREE  =      1    steps in history (QN), initial steepest desc. (CG)
   ISIF   =      4    stress and relaxation
   IWAVPR =     11    prediction:  0-non 1-charg 2-wave 3-comb
   ISYM   =      2    0-nonsym 1-usesym 2-fastsym
   LCORR  =      T    Harris-Foulkes like correction to forces

   POTIM  = 0.5000    time-step for ionic-motion
   TEIN   =    0.0    initial temperature
   TEBEG  =    0.0;   TEEND  =   0.0 temperature during run
   SMASS  =  -3.00    Nose mass-parameter (am)
   estimated Nose-frequenzy (Omega)   =  0.10E-29 period in steps = 0.13E+47 mass=  -0.121E-26a.u.
   SCALEE = 1.0000    scale energy and forces
   NPACO  =    256;   APACO  = 10.0  distance and # of slots for P.C.
   PSTRESS=    0.0 pullay stress

  Mass of Ions in am
   POMASS =  55.85 78.96
  Ionic Valenz
   ZVAL   =  14.00  6.00
  Atomic Wigner-Seitz radii
   RWIGS  =  -1.00 -1.00
  virtual crystal weights 
   VCA    =   1.00  1.00
   NELECT =     160.0000    total number of electrons
   NUPDOWN=      -1.0000    fix difference up-down

 DOS related values:
   EMIN   =  10.00;   EMAX   =-10.00  energy-range for DOS
   EFERMI =   0.00;   METHOD = LEGACY      
   ISMEAR =     0;   SIGMA  =   0.05  broadening in eV -4-tet -1-fermi 0-gaus

 Electronic relaxation 2 (details)
   IALGO  =     68    algorithm
   LDIAG  =      T    sub-space diagonalisation (order eigenvalues)
   LSUBROT=      F    optimize rotation matrix (better conditioning)
   TURBO    =      0    0=normal 1=particle mesh
   IRESTART =      0    0=no restart 2=restart with 2 vectors
   NREBOOT  =      0    no. of reboots
   NMIN     =      0    reboot dimension
   EREF     =   0.00    reference energy to select bands
   IMIX   =      4    mixing-type and parameters
     AMIX     =   0.40;   BMIX     =  1.00
     AMIX_MAG =   1.60;   BMIX_MAG =  1.00
     AMIN     =   0.10
     WC   =   100.;   INIMIX=   1;  MIXPRE=   1;  MAXMIX= -45

 Intra band minimization:
   WEIMIN = 0.0010     energy-eigenvalue tresh-hold
   EBREAK =  0.50E-06  absolut break condition
   DEPER  =   0.30     relativ break condition  

   TIME   =   0.40     timestep for ELM

  volume/ion in A,a.u.               =      17.75       119.78
  Fermi-wavevector in a.u.,A,eV,Ry     =   1.352100  2.555098 24.873811  1.828174
  Thomas-Fermi vector in A             =   2.479467
 
 Write flags
   LWAVE        =      F    write WAVECAR
   LDOWNSAMPLE  =      F    k-point downsampling of WAVECAR
   LCHARG       =      T    write CHGCAR
   LVTOT        =      F    write LOCPOT, total local potential
   LVHAR        =      F    write LOCPOT, Hartree potential only
   LELF         =      F    write electronic localiz. function (ELF)
   LORBIT       =     11    0 simple, 1 ext, 2 COOP (PROOUT), +10 PAW based schemes


 Dipole corrections
   LMONO  =      F    monopole corrections only (constant potential shift)
   LDIPOL =      F    correct potential (dipole corrections)
   IDIPOL =      0    1-x, 2-y, 3-z, 4-all directions 
   EPSILON=  1.0000000 bulk dielectric constant

 Exchange correlation treatment:
   GGA     =    --    GGA type
   LEXCH   =     8    internal setting for exchange type
   LIBXC   =     F    Libxc                    
   VOSKOWN =     0    Vosko Wilk Nusair interpolation
   LHFCALC =     F    Hartree Fock is set to
   LHFONE  =     F    Hartree Fock one center treatment
   AEXX    =    0.0000 exact exchange contribution

 Linear response parameters
   LEPSILON=     F    determine dielectric tensor
   LRPA    =     F    only Hartree local field effects (RPA)
   LNABLA  =     F    use nabla operator in PAW spheres
   LVEL    =     F    velocity operator in full k-point grid
   CSHIFT  =0.1000    complex shift for real part using Kramers Kronig
   OMEGAMAX=  -1.0    maximum frequency
   DEG_THRESHOLD= 0.2000000E-02 threshold for treating states as degnerate
   RTIME   =   -0.100 relaxation time in fs
  (WPLASMAI=    0.000 imaginary part of plasma frequency in eV, 0.658/RTIME)
   DFIELD  = 0.0000000 0.0000000 0.0000000 field for delta impulse in time
 
  Optional k-point grid parameters
   LKPOINTS_OPT  =     F    use optional k-point grid
   KPOINTS_OPT_MODE=     1    mode for optional k-point grid
 
 Orbital magnetization related:
   ORBITALMAG=     F  switch on orbital magnetization
   LCHIMAG   =     F  perturbation theory with respect to B field
   DQ        =  0.001000  dq finite difference perturbation B field
   LLRAUG    =     F  two centre corrections for induced B field
   LBONE     =     F  B-component reconstruction in AE one-centre
   LVGVCALC  =     T  calculate vGv susceptibility
   LVGVAPPL  =     F  apply vGv susceptibility instead of pGv for G=0

 Random number generation:
   RANDOM_GENERATOR = DEFAULT
   PCG_SEED         = not used


--------------------------------------------------------------------------------------------------------


 conjugate gradient relaxation of ions
 charge density and potential will be updated during run
 spin polarized calculation
 RMM-DIIS sequential band-by-band and
  variant of blocked Davidson during initial phase
 perform sub-space diagonalisation
    before iterative eigenvector-optimisation
 modified Broyden-mixing scheme, WC =      100.0
 initial mixing is a Kerker type mixing with AMIX =  0.4000 and BMIX =      1.0000
 Hartree-type preconditioning will be used
 using additional bands           20
 real space projection scheme for non local part
 use partial core corrections
 calculate Harris-corrections to forces 
   (improved forces if not selfconsistent)
 use gradient corrections 
 use of overlap-Matrix (Vanderbilt PP)
 Gauss-broadening in eV      SIGMA  =   0.05


--------------------------------------------------------------------------------------------------------


  energy-cutoff  :      550.00
  volume of cell :      284.00
      direct lattice vectors                 reciprocal lattice vectors
     4.726422276 -5.514279522  0.000000000     0.105788262 -0.090673677  0.000000000
     4.726422276  5.514279522  0.000000000     0.105788262  0.090673677  0.000000000
     0.000000000  0.000000000  5.448375695     0.000000000  0.000000000  0.183540941

  length of vectors
     7.262667979  7.262667979  5.448375695     0.139330083  0.139330083  0.183540941


 
 k-points in units of 2pi/SCALE and weight: KPOINTS                                 
   0.00000000  0.00000000  0.00000000       0.002
   0.01511261 -0.01295338  0.00000000       0.009
   0.03022522 -0.02590676  0.00000000       0.009
   0.04533783 -0.03886015  0.00000000       0.009
   0.03022522  0.00000000  0.00000000       0.005
   0.04533783 -0.01295338  0.00000000       0.009
   0.06045044 -0.02590676  0.00000000       0.009
  -0.03022522  0.05181353  0.00000000       0.009
  -0.01511261  0.03886015  0.00000000       0.009
  -0.00000000  0.02590676  0.00000000       0.005
   0.06045044 -0.00000000  0.00000000       0.005
   0.07556304 -0.01295338  0.00000000       0.009
  -0.01511261  0.06476691  0.00000000       0.009
   0.00000000  0.05181353  0.00000000       0.005
   0.09067565 -0.00000000  0.00000000       0.005
  -0.00000000  0.07772029  0.00000000       0.005
   0.00000000  0.00000000  0.02039344       0.005
   0.01511261 -0.01295338  0.02039344       0.018
   0.03022522 -0.02590676  0.02039344       0.018
   0.04533783 -0.03886015  0.02039344       0.018
   0.03022522  0.00000000  0.02039344       0.009
   0.04533783 -0.01295338  0.02039344       0.018
   0.06045044 -0.02590676  0.02039344       0.018
  -0.03022522  0.05181353  0.02039344       0.018
  -0.01511261  0.03886015  0.02039344       0.018
  -0.00000000  0.02590676  0.02039344       0.009
   0.06045044 -0.00000000  0.02039344       0.009
   0.07556304 -0.01295338  0.02039344       0.018
  -0.01511261  0.06476691  0.02039344       0.018
   0.00000000  0.05181353  0.02039344       0.009
   0.09067565 -0.00000000  0.02039344       0.009
  -0.00000000  0.07772029  0.02039344       0.009
   0.00000000  0.00000000  0.04078688       0.005
   0.01511261 -0.01295338  0.04078688       0.018
   0.03022522 -0.02590676  0.04078688       0.018
   0.04533783 -0.03886015  0.04078688       0.018
   0.03022522  0.00000000  0.04078688       0.009
   0.04533783 -0.01295338  0.04078688       0.018
   0.06045044 -0.02590676  0.04078688       0.018
  -0.03022522  0.05181353  0.04078688       0.018
  -0.01511261  0.03886015  0.04078688       0.018
  -0.00000000  0.02590676  0.04078688       0.009
   0.06045044 -0.00000000  0.04078688       0.009
   0.07556304 -0.01295338  0.04078688       0.018
  -0.01511261  0.06476691  0.04078688       0.018
   0.00000000  0.05181353  0.04078688       0.009
   0.09067565 -0.00000000  0.04078688       0.009
  -0.00000000  0.07772029  0.04078688       0.009
   0.00000000  0.00000000  0.06118031       0.005
   0.01511261 -0.01295338  0.06118031       0.018
   0.03022522 -0.02590676  0.06118031       0.018
   0.04533783 -0.03886015  0.06118031       0.018
   0.03022522  0.00000000  0.06118031       0.009
   0.04533783 -0.01295338  0.06118031       0.018
   0.06045044 -0.02590676  0.06118031       0.018
  -0.03022522  0.05181353  0.06118031       0.018
  -0.01511261  0.03886015  0.06118031       0.018
  -0.00000000  0.02590676  0.06118031       0.009
   0.06045044 -0.00000000  0.06118031       0.009
   0.07556304 -0.01295338  0.06118031       0.018
  -0.01511261  0.06476691  0.06118031       0.018
   0.00000000  0.05181353  0.06118031       0.009
   0.09067565 -0.00000000  0.06118031       0.009
  -0.00000000  0.07772029  0.06118031       0.009
   0.00000000  0.00000000  0.08157375       0.005
   0.01511261 -0.01295338  0.08157375       0.018
   0.03022522 -0.02590676  0.08157375       0.018
   0.04533783 -0.03886015  0.08157375       0.018
   0.03022522  0.00000000  0.08157375       0.009
   0.04533783 -0.01295338  0.08157375       0.018
   0.06045044 -0.02590676  0.08157375       0.018
  -0.03022522  0.05181353  0.08157375       0.018
  -0.01511261  0.03886015  0.08157375       0.018
  -0.00000000  0.02590676  0.08157375       0.009
   0.06045044 -0.00000000  0.08157375       0.009
   0.07556304 -0.01295338  0.08157375       0.018
  -0.01511261  0.06476691  0.08157375       0.018
   0.00000000  0.05181353  0.08157375       0.009
   0.09067565 -0.00000000  0.08157375       0.009
  -0.00000000  0.07772029  0.08157375       0.009
 
 k-points in reciprocal lattice and weights: KPOINTS                                 
   0.00000000  0.00000000  0.00000000       0.002
   0.14285714  0.00000000  0.00000000       0.009
   0.28571429 -0.00000000  0.00000000       0.009
   0.42857143 -0.00000000  0.00000000       0.009
   0.14285714  0.14285714  0.00000000       0.005
   0.28571429  0.14285714  0.00000000       0.009
   0.42857143  0.14285714  0.00000000       0.009
  -0.42857143  0.14285714  0.00000000       0.009
  -0.28571429  0.14285714  0.00000000       0.009
  -0.14285714  0.14285714  0.00000000       0.005
   0.28571429  0.28571429  0.00000000       0.005
   0.42857143  0.28571429  0.00000000       0.009
  -0.42857143  0.28571429  0.00000000       0.009
  -0.28571429  0.28571429  0.00000000       0.005
   0.42857143  0.42857143  0.00000000       0.005
  -0.42857143  0.42857143  0.00000000       0.005
   0.00000000  0.00000000  0.11111111       0.005
   0.14285714  0.00000000  0.11111111       0.018
   0.28571429 -0.00000000  0.11111111       0.018
   0.42857143 -0.00000000  0.11111111       0.018
   0.14285714  0.14285714  0.11111111       0.009
   0.28571429  0.14285714  0.11111111       0.018
   0.42857143  0.14285714  0.11111111       0.018
  -0.42857143  0.14285714  0.11111111       0.018
  -0.28571429  0.14285714  0.11111111       0.018
  -0.14285714  0.14285714  0.11111111       0.009
   0.28571429  0.28571429  0.11111111       0.009
   0.42857143  0.28571429  0.11111111       0.018
  -0.42857143  0.28571429  0.11111111       0.018
  -0.28571429  0.28571429  0.11111111       0.009
   0.42857143  0.42857143  0.11111111       0.009
  -0.42857143  0.42857143  0.11111111       0.009
   0.00000000  0.00000000  0.22222222       0.005
   0.14285714  0.00000000  0.22222222       0.018
   0.28571429 -0.00000000  0.22222222       0.018
   0.42857143 -0.00000000  0.22222222       0.018
   0.14285714  0.14285714  0.22222222       0.009
   0.28571429  0.14285714  0.22222222       0.018
   0.42857143  0.14285714  0.22222222       0.018
  -0.42857143  0.14285714  0.22222222       0.018
  -0.28571429  0.14285714  0.22222222       0.018
  -0.14285714  0.14285714  0.22222222       0.009
   0.28571429  0.28571429  0.22222222       0.009
   0.42857143  0.28571429  0.22222222       0.018
  -0.42857143  0.28571429  0.22222222       0.018
  -0.28571429  0.28571429  0.22222222       0.009
   0.42857143  0.42857143  0.22222222       0.009
  -0.42857143  0.42857143  0.22222222       0.009
   0.00000000  0.00000000  0.33333333       0.005
   0.14285714  0.00000000  0.33333333       0.018
   0.28571429 -0.00000000  0.33333333       0.018
   0.42857143 -0.00000000  0.33333333       0.018
   0.14285714  0.14285714  0.33333333       0.009
   0.28571429  0.14285714  0.33333333       0.018
   0.42857143  0.14285714  0.33333333       0.018
  -0.42857143  0.14285714  0.33333333       0.018
  -0.28571429  0.14285714  0.33333333       0.018
  -0.14285714  0.14285714  0.33333333       0.009
   0.28571429  0.28571429  0.33333333       0.009
   0.42857143  0.28571429  0.33333333       0.018
  -0.42857143  0.28571429  0.33333333       0.018
  -0.28571429  0.28571429  0.33333333       0.009
   0.42857143  0.42857143  0.33333333       0.009
  -0.42857143  0.42857143  0.33333333       0.009
   0.00000000  0.00000000  0.44444444       0.005
   0.14285714  0.00000000  0.44444444       0.018
   0.28571429 -0.00000000  0.44444444       0.018
   0.42857143 -0.00000000  0.44444444       0.018
   0.14285714  0.14285714  0.44444444       0.009
   0.28571429  0.14285714  0.44444444       0.018
   0.42857143  0.14285714  0.44444444       0.018
  -0.42857143  0.14285714  0.44444444       0.018
  -0.28571429  0.14285714  0.44444444       0.018
  -0.14285714  0.14285714  0.44444444       0.009
   0.28571429  0.28571429  0.44444444       0.009
   0.42857143  0.28571429  0.44444444       0.018
  -0.42857143  0.28571429  0.44444444       0.018
  -0.28571429  0.28571429  0.44444444       0.009
   0.42857143  0.42857143  0.44444444       0.009
  -0.42857143  0.42857143  0.44444444       0.009
 
 position of ions in fractional coordinates (direct lattice) 
   0.00000000  0.00000000  0.00000000
   0.00000000  0.50000000  0.00000000
   0.50000000  0.00000000  0.00000000
   0.50000000  0.50000000  0.00000000
   0.25000000  0.25000000  0.00000000
   0.25000000  0.75000000  0.00000000
   0.75000000  0.25000000  0.00000000
   0.75000000  0.75000000  0.00000000
   0.37500000  0.12500000  0.66861213
   0.37500000  0.62500000  0.66861213
   0.87500000  0.12500000  0.66861213
   0.87500000  0.62500000  0.66861213
   0.12500000  0.37500000  0.33138787
   0.12500000  0.87500000  0.33138787
   0.62500000  0.37500000  0.33138787
   0.62500000  0.87500000  0.33138787
 
 position of ions in cartesian coordinates  (Angst):
   0.00000000  0.00000000  0.00000000
   2.36321114  2.75713976  0.00000000
   2.36321114 -2.75713976  0.00000000
   4.72642228  0.00000000  0.00000000
   2.36321114  0.00000000  0.00000000
   4.72642228  2.75713976  0.00000000
   4.72642228 -2.75713976  0.00000000
   7.08963341 -0.00000000  0.00000000
   2.36321114 -1.37856988  3.64285009
   4.72642228  1.37856988  3.64285009
   4.72642228 -4.13570964  3.64285009
   7.08963341 -1.37856988  3.64285009
   2.36321114  1.37856988  1.80552560
   4.72642228  4.13570964  1.80552560
   4.72642228 -1.37856988  1.80552560
   7.08963341  1.37856988  1.80552560
 


--------------------------------------------------------------------------------------------------------


 k-point   1 :   0.0000 0.0000 0.0000  plane waves:    8287
 k-point   2 :   0.1429 0.0000 0.0000  plane waves:    8310
 k-point   3 :   0.2857-0.0000 0.0000  plane waves:    8313
 k-point   4 :   0.4286-0.0000 0.0000  plane waves:    8337
 k-point   5 :   0.1429 0.1429 0.0000  plane waves:    8340
 k-point   6 :   0.2857 0.1429 0.0000  plane waves:    8336
 k-point   7 :   0.4286 0.1429 0.0000  plane waves:    8336
 k-point   8 :  -0.4286 0.1429 0.0000  plane waves:    8319
 k-point   9 :  -0.2857 0.1429 0.0000  plane waves:    8309
 k-point  10 :  -0.1429 0.1429 0.0000  plane waves:    8311
 k-point  11 :   0.2857 0.2857 0.0000  plane waves:    8332
 k-point  12 :   0.4286 0.2857 0.0000  plane waves:    8331
 k-point  13 :  -0.4286 0.2857 0.0000  plane waves:    8332
 k-point  14 :  -0.2857 0.2857 0.0000  plane waves:    8347
 k-point  15 :   0.4286 0.4286 0.0000  plane waves:    8322
 k-point  16 :  -0.4286 0.4286 0.0000  plane waves:    8341
 k-point  17 :   0.0000 0.0000 0.1111  plane waves:    8319
 k-point  18 :   0.1429 0.0000 0.1111  plane waves:    8325
 k-point  19 :   0.2857-0.0000 0.1111  plane waves:    8333
 k-point  20 :   0.4286-0.0000 0.1111  plane waves:    8343
 k-point  21 :   0.1429 0.1429 0.1111  plane waves:    8328
 k-point  22 :   0.2857 0.1429 0.1111  plane waves:    8332
 k-point  23 :   0.4286 0.1429 0.1111  plane waves:    8316
 k-point  24 :  -0.4286 0.1429 0.1111  plane waves:    8331
 k-point  25 :  -0.2857 0.1429 0.1111  plane waves:    8321
 k-point  26 :  -0.1429 0.1429 0.1111  plane waves:    8320
 k-point  27 :   0.2857 0.2857 0.1111  plane waves:    8321
 k-point  28 :   0.4286 0.2857 0.1111  plane waves:    8321
 k-point  29 :  -0.4286 0.2857 0.1111  plane waves:    8321
 k-point  30 :  -0.2857 0.2857 0.1111  plane waves:    8312
 k-point  31 :   0.4286 0.4286 0.1111  plane waves:    8321
 k-point  32 :  -0.4286 0.4286 0.1111  plane waves:    8328
 k-point  33 :   0.0000 0.0000 0.2222  plane waves:    8305
 k-point  34 :   0.1429 0.0000 0.2222  plane waves:    8311
 k-point  35 :   0.2857-0.0000 0.2222  plane waves:    8322
 k-point  36 :   0.4286-0.0000 0.2222  plane waves:    8323
 k-point  37 :   0.1429 0.1429 0.2222  plane waves:    8322
 k-point  38 :   0.2857 0.1429 0.2222  plane waves:    8329
 k-point  39 :   0.4286 0.1429 0.2222  plane waves:    8309
 k-point  40 :  -0.4286 0.1429 0.2222  plane waves:    8326
 k-point  41 :  -0.2857 0.1429 0.2222  plane waves:    8318
 k-point  42 :  -0.1429 0.1429 0.2222  plane waves:    8321
 k-point  43 :   0.2857 0.2857 0.2222  plane waves:    8324
 k-point  44 :   0.4286 0.2857 0.2222  plane waves:    8324
 k-point  45 :  -0.4286 0.2857 0.2222  plane waves:    8327
 k-point  46 :  -0.2857 0.2857 0.2222  plane waves:    8318
 k-point  47 :   0.4286 0.4286 0.2222  plane waves:    8307
 k-point  48 :  -0.4286 0.4286 0.2222  plane waves:    8321
 k-point  49 :   0.0000 0.0000 0.3333  plane waves:    8307
 k-point  50 :   0.1429 0.0000 0.3333  plane waves:    8291
 k-point  51 :   0.2857-0.0000 0.3333  plane waves:    8316
 k-point  52 :   0.4286-0.0000 0.3333  plane waves:    8315
 k-point  53 :   0.1429 0.1429 0.3333  plane waves:    8304
 k-point  54 :   0.2857 0.1429 0.3333  plane waves:    8318
 k-point  55 :   0.4286 0.1429 0.3333  plane waves:    8320
 k-point  56 :  -0.4286 0.1429 0.3333  plane waves:    8326
 k-point  57 :  -0.2857 0.1429 0.3333  plane waves:    8316
 k-point  58 :  -0.1429 0.1429 0.3333  plane waves:    8291
 k-point  59 :   0.2857 0.2857 0.3333  plane waves:    8306
 k-point  60 :   0.4286 0.2857 0.3333  plane waves:    8317
 k-point  61 :  -0.4286 0.2857 0.3333  plane waves:    8310
 k-point  62 :  -0.2857 0.2857 0.3333  plane waves:    8323
 k-point  63 :   0.4286 0.4286 0.3333  plane waves:    8314
 k-point  64 :  -0.4286 0.4286 0.3333  plane waves:    8318
 k-point  65 :   0.0000 0.0000 0.4444  plane waves:    8276
 k-point  66 :   0.1429 0.0000 0.4444  plane waves:    8280
 k-point  67 :   0.2857-0.0000 0.4444  plane waves:    8310
 k-point  68 :   0.4286-0.0000 0.4444  plane waves:    8307
 k-point  69 :   0.1429 0.1429 0.4444  plane waves:    8277
 k-point  70 :   0.2857 0.1429 0.4444  plane waves:    8290
 k-point  71 :   0.4286 0.1429 0.4444  plane waves:    8311
 k-point  72 :  -0.4286 0.1429 0.4444  plane waves:    8302
 k-point  73 :  -0.2857 0.1429 0.4444  plane waves:    8314
 k-point  74 :  -0.1429 0.1429 0.4444  plane waves:    8305
 k-point  75 :   0.2857 0.2857 0.4444  plane waves:    8303
 k-point  76 :   0.4286 0.2857 0.4444  plane waves:    8324
 k-point  77 :  -0.4286 0.2857 0.4444  plane waves:    8325
 k-point  78 :  -0.2857 0.2857 0.4444  plane waves:    8316
 k-point  79 :   0.4286 0.4286 0.4444  plane waves:    8322
 k-point  80 :  -0.4286 0.4286 0.4444  plane waves:    8336

 maximum and minimum number of plane-waves per node :      8347     8276

 maximum number of plane-waves:      8347
 maximum index in each direction: 
   IXMAX=   14   IYMAX=   13   IZMAX=   10
   IXMIN=  -14   IYMIN=  -14   IZMIN=  -10


 serial   3D FFT for wavefunctions
 parallel 3D FFT for charge:
    minimum data exchange during FFTs selected (reduces bandwidth)


 total amount of memory used by VASP MPI-rank0   170194. kBytes
=======================================================================

   base      :      30000. kBytes
   nonlr-proj:      11664. kBytes
   fftplans  :       2458. kBytes
   grid      :      15239. kBytes
   one-center:        497. kBytes
   wavefun   :     110336. kBytes
 
     INWAV:  cpu time      0.0000: real time      0.0001
 Broyden mixing: mesh for mixing (old mesh)
   NGX = 27   NGY = 27   NGZ = 21
  (NGX  =112   NGY  =112   NGZ  = 84)
  gives a total of  15309 points

 initial charge density was supplied:
 charge density of overlapping atoms calculated
 number of electron     160.0000000 magnetization       0.0000000
 keeping initial charge density in first step


--------------------------------------------------------------------------------------------------------


 Maximum index for non-local projection operator         5721
 Maximum index for augmentation-charges         1135 (set IRDMAX)


--------------------------------------------------------------------------------------------------------


 First call to EWALD:  gamma=   0.270
 Maximum number of real-space cells 3x 3x 3
 Maximum number of reciprocal cells 3x 3x 2

    FEWALD:  cpu time      0.0013: real time      0.0014


--------------------------------------- Ionic step        1  -------------------------------------------




--------------------------------------- Iteration      1(   1)  ---------------------------------------


    POTLOK:  cpu time      0.0481: real time      0.0544
    SETDIJ:  cpu time      0.2734: real time      0.2742
     EDDAV:  cpu time     23.7568: real time     23.8464
       DOS:  cpu time      0.0022: real time      0.0023
    --------------------------------------------
      LOOP:  cpu time     24.0805: real time     24.1773

 eigenvalue-minimisations  : 33840
 total energy-change (2. order) : 0.2051610E+04  (-0.8895691E+04)
 number of electron     160.0000000 magnetization       0.0000000
 augmentation part      160.0000000 magnetization       0.0000000

 Free energy of the ion-electron system (eV)
  ---------------------------------------------------
  alpha Z        PSCENC =       894.19572282
  Ewald energy   TEWEN  =    -11903.37144333
  -Hartree energ DENC   =     -8643.63271019
  -exchange      EXHF   =         0.00000000
  -V(xc)+E(xc)   XCENC  =       567.90922878
  PAW double counting   =     15528.57853435   -16124.40356803
  entropy T*S    EENTRO =        -0.00820492
  eigenvalues    EBANDS =        21.50115025
  atomic energy  EATOM  =     21710.84102437
  Solvation  Ediel_sol  =         0.00000000
  ---------------------------------------------------
  free energy    TOTEN  =      2051.60973408 eV

  energy without entropy =     2051.61793900  energy(sigma->0) =     2051.61383654


--------------------------------------------------------------------------------------------------------




--------------------------------------- Iteration      1(   2)  ---------------------------------------


     EDDAV:  cpu time     22.7305: real time     22.8477
       DOS:  cpu time      0.0022: real time      0.0022
    --------------------------------------------
      LOOP:  cpu time     22.7328: real time     22.8499

 eigenvalue-minimisations  : 32000
 total energy-change (2. order) :-0.1930960E+04  (-0.1874962E+04)
 number of electron     160.0000000 magnetization       0.0000000
 augmentation part      160.0000000 magnetization       0.0000000

 Free energy of the ion-electron system (eV)
  ---------------------------------------------------
  alpha Z        PSCENC =       894.19572282
  Ewald energy   TEWEN  =    -11903.37144333
  -Hartree energ DENC   =     -8643.63271019
  -exchange      EXHF   =         0.00000000
  -V(xc)+E(xc)   XCENC  =       567.90922878
  PAW double counting   =     15528.57853435   -16124.40356803
  entropy T*S    EENTRO =        -0.01335483
  eigenvalues    EBANDS =     -1909.45390992
  atomic energy  EATOM  =     21710.84102437
  Solvation  Ediel_sol  =         0.00000000
  ---------------------------------------------------
  free energy    TOTEN  =       120.64952401 eV

  energy without entropy =      120.66287884  energy(sigma->0) =      120.65620142


--------------------------------------------------------------------------------------------------------




--------------------------------------- Iteration      1(   3)  ---------------------------------------


     EDDAV:  cpu time     29.8005: real time     29.9532
       DOS:  cpu time      0.0026: real time      0.0027
    --------------------------------------------
      LOOP:  cpu time     29.8031: real time     29.9559

 eigenvalue-minimisations  : 44760
 total energy-change (2. order) :-0.2045557E+03  (-0.1817138E+03)
 number of electron     160.0000000 magnetization       0.0000000
 augmentation part      160.0000000 magnetization       0.0000000

 Free energy of the ion-electron system (eV)
  ---------------------------------------------------
  alpha Z        PSCENC =       894.19572282
  Ewald energy   TEWEN  =    -11903.37144333
  -Hartree energ DENC   =     -8643.63271019
  -exchange      EXHF   =         0.00000000
  -V(xc)+E(xc)   XCENC  =       567.90922878
  PAW double counting   =     15528.57853435   -16124.40356803
  entropy T*S    EENTRO =        -0.02521178
  eigenvalues    EBANDS =     -2113.99774145
  atomic energy  EATOM  =     21710.84102437
  Solvation  Ediel_sol  =         0.00000000
  ---------------------------------------------------
  free energy    TOTEN  =       -83.90616448 eV

  energy without entropy =      -83.88095270  energy(sigma->0) =      -83.89355859


--------------------------------------------------------------------------------------------------------




--------------------------------------- Iteration      1(   4)  ---------------------------------------


     EDDAV:  cpu time     30.3635: real time     30.4752
       DOS:  cpu time      0.0024: real time      0.0024
    --------------------------------------------
      LOOP:  cpu time     30.3659: real time     30.4776

 eigenvalue-minimisations  : 46060
 total energy-change (2. order) :-0.1371871E+02  (-0.1337668E+02)
 number of electron     160.0000000 magnetization       0.0000000
 augmentation part      160.0000000 magnetization       0.0000000

 Free energy of the ion-electron system (eV)
  ---------------------------------------------------
  alpha Z        PSCENC =       894.19572282
  Ewald energy   TEWEN  =    -11903.37144333
  -Hartree energ DENC   =     -8643.63271019
  -exchange      EXHF   =         0.00000000
  -V(xc)+E(xc)   XCENC  =       567.90922878
  PAW double counting   =     15528.57853435   -16124.40356803
  entropy T*S    EENTRO =        -0.02529207
  eigenvalues    EBANDS =     -2127.71637286
  atomic energy  EATOM  =     21710.84102437
  Solvation  Ediel_sol  =         0.00000000
  ---------------------------------------------------
  free energy    TOTEN  =       -97.62487617 eV

  energy without entropy =      -97.59958410  energy(sigma->0) =      -97.61223014


--------------------------------------------------------------------------------------------------------




--------------------------------------- Iteration      1(   5)  ---------------------------------------


     EDDAV:  cpu time     29.8385: real time     29.9853
       DOS:  cpu time      0.0024: real time      0.0024
    CHARGE:  cpu time      0.5999: real time      0.6033
    MIXING:  cpu time      0.0016: real time      0.0016
    --------------------------------------------
      LOOP:  cpu time     30.4424: real time     30.5927

 eigenvalue-minimisations  : 45120
 total energy-change (2. order) :-0.3331927E+00  (-0.3323610E+00)
 number of electron     159.9999811 magnetization      -0.0000000
 augmentation part       53.4067033 magnetization      -0.0000000

 Broyden mixing:
  rms(total) = 0.26216E+01    rms(broyden)= 0.26214E+01
  rms(prec ) = 0.41322E+01
  weight for this iteration     100.00

 Free energy of the ion-electron system (eV)
  ---------------------------------------------------
  alpha Z        PSCENC =       894.19572282
  Ewald energy   TEWEN  =    -11903.37144333
  -Hartree energ DENC   =     -8643.63271019
  -exchange      EXHF   =         0.00000000
  -V(xc)+E(xc)   XCENC  =       567.90922878
  PAW double counting   =     15528.57853435   -16124.40356803
  entropy T*S    EENTRO =        -0.02514645
  eigenvalues    EBANDS =     -2128.04971118
  atomic energy  EATOM  =     21710.84102437
  Solvation  Ediel_sol  =         0.00000000
  ---------------------------------------------------
  free energy    TOTEN  =       -97.95806888 eV

  energy without entropy =      -97.93292242  energy(sigma->0) =      -97.94549565


--------------------------------------------------------------------------------------------------------




--------------------------------------- Iteration      1(   6)  ---------------------------------------


    POTLOK:  cpu time      0.0402: real time      0.0404
    SETDIJ:  cpu time      0.2745: real time      0.2753
    EDDIAG:  cpu time      3.6157: real time      3.6298
  RMM-DIIS:  cpu time     12.5156: real time     12.5567
    ORTHCH:  cpu time      0.5561: real time      0.5581
       DOS:  cpu time      0.0019: real time      0.0019
    CHARGE:  cpu time      0.6085: real time      0.6117
    MIXING:  cpu time      0.0014: real time      0.0014
    --------------------------------------------
      LOOP:  cpu time     17.6139: real time     17.6754

 eigenvalue-minimisations  : 32031
 total energy-change (2. order) :-0.1231198E+02  (-0.1485109E+02)
 number of electron     159.9999767 magnetization      -0.0000000
 augmentation part       69.0320639 magnetization      -0.0000000

 Broyden mixing:
  rms(total) = 0.45887E+01    rms(broyden)= 0.45886E+01
  rms(prec ) = 0.76147E+01
  weight for this iteration     100.00

 eigenvalues of (default mixing * dielectric matrix)
  average eigenvalue GAMMA=   0.3185
  0.3185

 Free energy of the ion-electron system (eV)
  ---------------------------------------------------
  alpha Z        PSCENC =       894.19572282
  Ewald energy   TEWEN  =    -11903.37144333
  -Hartree energ DENC   =     -8214.56618395
  -exchange      EXHF   =         0.00000000
  -V(xc)+E(xc)   XCENC  =       555.83338097
  PAW double counting   =     15074.81675597   -15640.41395966
  entropy T*S    EENTRO =        -0.02054616
  eigenvalues    EBANDS =     -2587.58479641
  atomic energy  EATOM  =     21710.84102437
  Solvation  Ediel_sol  =         0.00000000
  ---------------------------------------------------
  free energy    TOTEN  =      -110.27004540 eV

  energy without entropy =     -110.24949924  energy(sigma->0) =     -110.25977232


--------------------------------------------------------------------------------------------------------




--------------------------------------- Iteration      1(   7)  ---------------------------------------


    POTLOK:  cpu time      0.0400: real time      0.0403
    SETDIJ:  cpu time      0.2690: real time      0.2697
    EDDIAG:  cpu time      3.6134: real time      3.6262
  RMM-DIIS:  cpu time     12.4610: real time     12.5019
    ORTHCH:  cpu time      0.5565: real time      0.5585
       DOS:  cpu time      0.0020: real time      0.0020
    CHARGE:  cpu time      0.6345: real time      0.6372
    MIXING:  cpu time      0.0013: real time      0.0013
    --------------------------------------------
      LOOP:  cpu time     17.5776: real time     17.6369

 eigenvalue-minimisations  : 32008
 total energy-change (2. order) : 0.1985548E+02  (-0.3713707E+01)
 number of electron     159.9999803 magnetization      -0.0000000
 augmentation part       58.1645413 magnetization      -0.0000000

 Broyden mixing:
  rms(total) = 0.87990E+00    rms(broyden)= 0.87934E+00
  rms(prec ) = 0.10555E+01
  weight for this iteration     100.00

 eigenvalues of (default mixing * dielectric matrix)
  average eigenvalue GAMMA=   0.4620
  0.6436  0.2803

 Free energy of the ion-electron system (eV)
  ---------------------------------------------------
  alpha Z        PSCENC =       894.19572282
  Ewald energy   TEWEN  =    -11903.37144333
  -Hartree energ DENC   =     -8475.96615108
  -exchange      EXHF   =         0.00000000
  -V(xc)+E(xc)   XCENC  =       560.93703685
  PAW double counting   =     15543.11785000   -16139.79967253
  entropy T*S    EENTRO =        -0.02699633
  eigenvalues    EBANDS =     -2280.34193660
  atomic energy  EATOM  =     21710.84102437
  Solvation  Ediel_sol  =         0.00000000
  ---------------------------------------------------
  free energy    TOTEN  =       -90.41456583 eV

  energy without entropy =      -90.38756950  energy(sigma->0) =      -90.40106767


--------------------------------------------------------------------------------------------------------




--------------------------------------- Iteration      1(   8)  ---------------------------------------


    POTLOK:  cpu time      0.0565: real time      0.0876
    SETDIJ:  cpu time      0.2700: real time      0.2708
    EDDIAG:  cpu time      3.6002: real time      3.6127
  RMM-DIIS:  cpu time     15.8557: real time     15.9084
    ORTHCH:  cpu time      0.5573: real time      0.5593
       DOS:  cpu time      0.0020: real time      0.0020
    CHARGE:  cpu time      0.5910: real time      0.5933
    MIXING:  cpu time      0.0014: real time      0.0015
    --------------------------------------------
      LOOP:  cpu time     20.9341: real time     21.0356

 eigenvalue-minimisations  : 41131
 total energy-change (2. order) :-0.4369073E+00  (-0.2945723E+00)
 number of electron     159.9999803 magnetization       0.0000000
 augmentation part       58.5624900 magnetization       0.0000000

 Broyden mixing:
  rms(total) = 0.37663E+00    rms(broyden)= 0.37635E+00
  rms(prec ) = 0.50342E+00
  weight for this iteration     100.00

 eigenvalues of (default mixing * dielectric matrix)
  average eigenvalue GAMMA=   0.7177
  0.3223  0.9154  0.9154

 Free energy of the ion-electron system (eV)
  ---------------------------------------------------
  alpha Z        PSCENC =       894.19572282
  Ewald energy   TEWEN  =    -11903.37144333
  -Hartree energ DENC   =     -8465.26039179
  -exchange      EXHF   =         0.00000000
  -V(xc)+E(xc)   XCENC  =       561.23332415
  PAW double counting   =     15626.66072309   -16230.61749052
  entropy T*S    EENTRO =        -0.02506785
  eigenvalues    EBANDS =     -2284.50787407
  atomic energy  EATOM  =     21710.84102437
  Solvation  Ediel_sol  =         0.00000000
  ---------------------------------------------------
  free energy    TOTEN  =       -90.85147314 eV

  energy without entropy =      -90.82640529  energy(sigma->0) =      -90.83893921


--------------------------------------------------------------------------------------------------------




--------------------------------------- Iteration      1(   9)  ---------------------------------------


    POTLOK:  cpu time      0.0398: real time      0.0401
    SETDIJ:  cpu time      0.2708: real time      0.2719
    EDDIAG:  cpu time      3.5916: real time      3.6047
  RMM-DIIS:  cpu time     17.0006: real time     17.0578
    ORTHCH:  cpu time      0.5562: real time      0.5580
       DOS:  cpu time      0.0020: real time      0.0020
    CHARGE:  cpu time      0.6276: real time      0.6300
    MIXING:  cpu time      0.0013: real time      0.0013
    --------------------------------------------
      LOOP:  cpu time     22.0899: real time     22.1659

 eigenvalue-minimisations  : 46170
 total energy-change (2. order) :-0.4974396E-01  (-0.7274731E-01)
 number of electron     159.9999804 magnetization      -0.0000000
 augmentation part       58.8084655 magnetization      -0.0000000

 Broyden mixing:
  rms(total) = 0.20649E+00    rms(broyden)= 0.20623E+00
  rms(prec ) = 0.25805E+00
  weight for this iteration     100.00

 eigenvalues of (default mixing * dielectric matrix)
  average eigenvalue GAMMA=   0.9372
  0.3197  1.5140  1.1655  0.7496

 Free energy of the ion-electron system (eV)
  ---------------------------------------------------
  alpha Z        PSCENC =       894.19572282
  Ewald energy   TEWEN  =    -11903.37144333
  -Hartree energ DENC   =     -8453.08237944
  -exchange      EXHF   =         0.00000000
  -V(xc)+E(xc)   XCENC  =       561.34287799
  PAW double counting   =     15729.83799480   -16340.05282377
  entropy T*S    EENTRO =        -0.02305566
  eigenvalues    EBANDS =     -2290.58913487
  atomic energy  EATOM  =     21710.84102437
  Solvation  Ediel_sol  =         0.00000000
  ---------------------------------------------------
  free energy    TOTEN  =       -90.90121710 eV

  energy without entropy =      -90.87816144  energy(sigma->0) =      -90.88968927


--------------------------------------------------------------------------------------------------------




--------------------------------------- Iteration      1(  10)  ---------------------------------------


    POTLOK:  cpu time      0.0396: real time      0.0399
    SETDIJ:  cpu time      0.2707: real time      0.2714
    EDDIAG:  cpu time      3.5973: real time      3.6106
  RMM-DIIS:  cpu time     17.7860: real time     17.8436
    ORTHCH:  cpu time      0.5598: real time      0.5627
       DOS:  cpu time      0.0020: real time      0.0020
    CHARGE:  cpu time      0.5889: real time      0.5911
    MIXING:  cpu time      0.0014: real time      0.0014
    --------------------------------------------
      LOOP:  cpu time     22.8458: real time     22.9227

 eigenvalue-minimisations  : 45346
 total energy-change (2. order) :-0.2798741E-02  (-0.1767329E-01)
 number of electron     159.9999804 magnetization       0.0000000
 augmentation part       58.9765692 magnetization       0.0000000

 Broyden mixing:
  rms(total) = 0.85898E-01    rms(broyden)= 0.85730E-01
  rms(prec ) = 0.96319E-01
  weight for this iteration     100.00

 eigenvalues of (default mixing * dielectric matrix)
  average eigenvalue GAMMA=   1.0801
  2.4262  0.3195  0.9861  0.9861  0.6828

 Free energy of the ion-electron system (eV)
  ---------------------------------------------------
  alpha Z        PSCENC =       894.19572282
  Ewald energy   TEWEN  =    -11903.37144333
  -Hartree energ DENC   =     -8446.29752596
  -exchange      EXHF   =         0.00000000
  -V(xc)+E(xc)   XCENC  =       561.43548807
  PAW double counting   =     15816.60733020   -16431.20009773
  entropy T*S    EENTRO =        -0.02129497
  eigenvalues    EBANDS =     -2293.09321930
  atomic energy  EATOM  =     21710.84102437
  Solvation  Ediel_sol  =         0.00000000
  ---------------------------------------------------
  free energy    TOTEN  =       -90.90401584 eV

  energy without entropy =      -90.88272087  energy(sigma->0) =      -90.89336835


--------------------------------------------------------------------------------------------------------




--------------------------------------- Iteration      1(  11)  ---------------------------------------


    POTLOK:  cpu time      0.0400: real time      0.0825
    SETDIJ:  cpu time      0.2718: real time      0.2725
    EDDIAG:  cpu time      3.5814: real time      3.5941
  RMM-DIIS:  cpu time     16.6860: real time     16.7417
    ORTHCH:  cpu time      0.5546: real time      0.5564
       DOS:  cpu time      0.0020: real time      0.0020
    CHARGE:  cpu time      0.6212: real time      0.6234
    MIXING:  cpu time      0.0016: real time      0.0016
    --------------------------------------------
      LOOP:  cpu time     21.7586: real time     21.8742

 eigenvalue-minimisations  : 44161
 total energy-change (2. order) :-0.7299000E-02  (-0.3477491E-02)
 number of electron     159.9999804 magnetization      -0.0000000
 augmentation part       58.9807714 magnetization      -0.0000000

 Broyden mixing:
  rms(total) = 0.31621E-01    rms(broyden)= 0.31588E-01
  rms(prec ) = 0.36060E-01
  weight for this iteration     100.00

 eigenvalues of (default mixing * dielectric matrix)
  average eigenvalue GAMMA=   1.1124
  2.2862  1.5913  0.3195  0.9925  0.8412  0.6440

 Free energy of the ion-electron system (eV)
  ---------------------------------------------------
  alpha Z        PSCENC =       894.19572282
  Ewald energy   TEWEN  =    -11903.37144333
  -Hartree energ DENC   =     -8444.83242409
  -exchange      EXHF   =         0.00000000
  -V(xc)+E(xc)   XCENC  =       561.48461063
  PAW double counting   =     15858.71301891   -16474.96246094
  entropy T*S    EENTRO =        -0.02188579
  eigenvalues    EBANDS =     -2292.95747740
  atomic energy  EATOM  =     21710.84102437
  Solvation  Ediel_sol  =         0.00000000
  ---------------------------------------------------
  free energy    TOTEN  =       -90.91131484 eV

  energy without entropy =      -90.88942905  energy(sigma->0) =      -90.90037194


--------------------------------------------------------------------------------------------------------




--------------------------------------- Iteration      1(  12)  ---------------------------------------


    POTLOK:  cpu time      0.0403: real time      0.0406
    SETDIJ:  cpu time      0.2716: real time      0.2724
    EDDIAG:  cpu time      3.6324: real time      3.6451
  RMM-DIIS:  cpu time     16.0548: real time     16.1059
    ORTHCH:  cpu time      0.5640: real time      0.5659
       DOS:  cpu time      0.0020: real time      0.0020
    CHARGE:  cpu time      0.6274: real time      0.6298
    MIXING:  cpu time      0.0016: real time      0.0016
    --------------------------------------------
      LOOP:  cpu time     21.1940: real time     21.2632

 eigenvalue-minimisations  : 41126
 total energy-change (2. order) :-0.2721327E-02  (-0.7781877E-03)
 number of electron     159.9999804 magnetization       0.0000000
 augmentation part       58.9717480 magnetization       0.0000000

 Broyden mixing:
  rms(total) = 0.14672E-01    rms(broyden)= 0.14652E-01
  rms(prec ) = 0.18162E-01
  weight for this iteration     100.00

 eigenvalues of (default mixing * dielectric matrix)
  average eigenvalue GAMMA=   1.1041
  2.4201  1.5570  0.3195  1.0240  1.0240  0.7514  0.6327

 Free energy of the ion-electron system (eV)
  ---------------------------------------------------
  alpha Z        PSCENC =       894.19572282
  Ewald energy   TEWEN  =    -11903.37144333
  -Hartree energ DENC   =     -8445.51058337
  -exchange      EXHF   =         0.00000000
  -V(xc)+E(xc)   XCENC  =       561.48925335
  PAW double counting   =     15859.82141966   -16475.88586720
  entropy T*S    EENTRO =        -0.02243118
  eigenvalues    EBANDS =     -2292.47113128
  atomic energy  EATOM  =     21710.84102437
  Solvation  Ediel_sol  =         0.00000000
  ---------------------------------------------------
  free energy    TOTEN  =       -90.91403617 eV

  energy without entropy =      -90.89160499  energy(sigma->0) =      -90.90282058


--------------------------------------------------------------------------------------------------------




--------------------------------------- Iteration      1(  13)  ---------------------------------------


    POTLOK:  cpu time      0.0401: real time      0.0403
    SETDIJ:  cpu time      0.2744: real time      0.2751
    EDDIAG:  cpu time      3.6788: real time      3.6926
  RMM-DIIS:  cpu time     11.1845: real time     11.2184
    ORTHCH:  cpu time      0.5602: real time      0.5624
       DOS:  cpu time      0.0020: real time      0.0020
    --------------------------------------------
      LOOP:  cpu time     15.7400: real time     15.7909

 eigenvalue-minimisations  : 26927
 total energy-change (2. order) : 0.1074213E-03  (-0.1534039E-03)
 number of electron     159.9999804 magnetization      -0.0000000
 augmentation part       58.9717480 magnetization      -0.0000000

 Free energy of the ion-electron system (eV)
  ---------------------------------------------------
  alpha Z        PSCENC =       894.19572282
  Ewald energy   TEWEN  =    -11903.37144333
  -Hartree energ DENC   =     -8446.01853171
  -exchange      EXHF   =         0.00000000
  -V(xc)+E(xc)   XCENC  =       561.50566697
  PAW double counting   =     15858.99663165   -16474.84969423
  entropy T*S    EENTRO =        -0.02239030
  eigenvalues    EBANDS =     -2292.19091497
  atomic energy  EATOM  =     21710.84102437
  Solvation  Ediel_sol  =         0.00000000
  ---------------------------------------------------
  free energy    TOTEN  =       -90.91392875 eV

  energy without entropy =      -90.89153844  energy(sigma->0) =      -90.90273359


--------------------------------------------------------------------------------------------------------




 average (electrostatic) potential at core
  the test charge radii are     0.9500  1.0808
  (the norm of the test charge is              1.0000)
       1 -46.4158       2 -46.4158       3 -46.4158       4 -46.4158       5 -46.4158
       6 -46.4158       7 -46.4158       8 -46.4158       9 -54.2677      10 -54.2677
      11 -54.2677      12 -54.2677      13 -54.2677      14 -54.2677      15 -54.2677
      16 -54.2677
 
 
 
 E-fermi :   4.6857     XC(G=0): -10.9418     alpha+bet :-10.2455

 Fermi energy:         4.6857389847

 spin component 1

 k-point     1 :       0.0000    0.0000    0.0000
  band No.  band energies     occupation 
      1     -49.9357      1.00000
      2     -49.9219      1.00000
      3     -49.9219      1.00000
      4     -49.9126      1.00000
      5     -49.8926      1.00000
      6     -49.7752      1.00000
      7     -49.7652      1.00000
      8     -49.7652      1.00000
      9     -49.7520      1.00000
     10     -49.6916      1.00000
     11     -49.6916      1.00000
     12     -49.4868      1.00000
     13     -47.3392      1.00000
     14     -47.3360      1.00000
     15     -47.3360      1.00000
     16     -47.3346      1.00000
     17     -47.3279      1.00000
     18     -47.1075      1.00000
     19     -47.1075      1.00000
     20     -46.9603      1.00000
     21     -46.9602      1.00000
     22     -46.9602      1.00000
     23     -46.9561      1.00000
     24     -46.8823      1.00000
     25     -10.2362      1.00000
     26      -8.7696      1.00000
     27      -8.7696      1.00000
     28      -8.7552      1.00000
     29      -8.7552      1.00000
     30      -8.4637      1.00000
     31      -8.1274      1.00000
     32      -7.8926      1.00000
     33      -1.8463      1.00000
     34      -1.6131      1.00000
     35      -0.7176      1.00000
     36      -0.7176      1.00000
     37      -0.6431      1.00000
     38      -0.6431      1.00000
     39      -0.3727      1.00000
     40       0.0182      1.00000
     41       0.3142      1.00000
     42       0.4251      1.00000
     43       0.5930      1.00000
     44       0.5930      1.00000
     45       0.5976      1.00000
     46       0.6189      1.00000
     47       0.6189      1.00000
     48       0.8584      1.00000
     49       1.0539      1.00000
     50       1.2326      1.00000
     51       1.2326      1.00000
     52       1.6544      1.00000
     53       1.6544      1.00000
     54       1.7809      1.00000
     55       2.0012      1.00000
     56       2.0042      1.00000
     57       2.3211      1.00000
     58       2.3284      1.00000
     59       2.3284      1.00000
     60       2.3682      1.00000
     61       2.3682      1.00000
     62       2.4243      1.00000
     63       2.5443      1.00000
     64       2.6459      1.00000
     65       2.9063      1.00000
     66       2.9063      1.00000
     67       3.0086      1.00000
     68       3.1944      1.00000
     69       3.1975      1.00000
     70       3.2426      1.00000
     71       3.3346      1.00000
     72       3.3346      1.00000
     73       3.9063      1.00000
     74       3.9063      1.00000
     75       4.0396      1.00000
     76       4.0396      1.00000
     77       4.1959      1.00000
     78       4.2272      1.00000
     79       4.4251      1.00000
     80       4.4534      1.00000
     81       4.8966      0.00000
     82       5.1239      0.00000
     83       5.1240      0.00000
     84       5.1526      0.00000
     85       5.1526      0.00000
     86       5.2120      0.00000
     87       5.4839      0.00000
     88       5.5087      0.00000
     89       5.5088      0.00000
     90       5.5469      0.00000
     91       5.5471      0.00000
     92       5.8246      0.00000
     93       6.1033      0.00000
     94       6.2195      0.00000
     95       6.2266      0.00000
     96       6.2331      0.00000
     97       6.9563      0.00000
     98       6.9836      0.00000
     99       7.4543      0.00000
    100       8.1581      0.00000

 k-point     2 :       0.1429    0.0000    0.0000
  band No.  band energies     occupation 
      1     -49.9353      1.00000
      2     -49.9247      1.00000
      3     -49.9194      1.00000
      4     -49.9128      1.00000
      5     -49.8876      1.00000
      6     -49.7750      1.00000
      7     -49.7678      1.00000
      8     -49.7624      1.00000
      9     -49.7523      1.00000
     10     -49.7367      1.00000
     11     -49.6464      1.00000
     12     -49.4920      1.00000
     13     -47.3391      1.00000
     14     -47.3365      1.00000
     15     -47.3355      1.00000
     16     -47.3346      1.00000
     17     -47.3224      1.00000
     18     -47.1569      1.00000
     19     -47.0578      1.00000
     20     -46.9605      1.00000
     21     -46.9603      1.00000
     22     -46.9596      1.00000
     23     -46.9562      1.00000
     24     -46.8880      1.00000
     25     -10.1982      1.00000
     26      -9.0712      1.00000
     27      -8.7807      1.00000
     28      -8.7028      1.00000
     29      -8.4860      1.00000
     30      -8.4815      1.00000
     31      -8.1570      1.00000
     32      -7.8997      1.00000
     33      -1.7956      1.00000
     34      -1.5291      1.00000
     35      -0.7301      1.00000
     36      -0.6978      1.00000
     37      -0.6707      1.00000
     38      -0.6087      1.00000
     39      -0.4243      1.00000
     40       0.0254      1.00000
     41       0.3030      1.00000
     42       0.4139      1.00000
     43       0.5197      1.00000
     44       0.5360      1.00000
     45       0.6172      1.00000
     46       0.6682      1.00000
[...]
         0         1         2         3         4         5         6         7         8         9
 total charge-density along one line
 
 soft charge-density along one line, spin component           2
         0         1         2         3         4         5         6         7         8         9
 total charge-density along one line
 
 pseudopotential strength for first ion, spin component:           1
-54.405   0.025  -0.000  27.766  -0.021   0.000  -0.000  -0.000
  0.025 -54.482   0.000  -0.021  27.824  -0.000   0.000  -0.000
 -0.000   0.000 -54.332   0.000  -0.000  27.707  -0.000   0.000
 27.766  -0.021   0.000  -9.720   0.016  -0.000   0.000   0.000
 -0.021  27.824  -0.000   0.016  -9.760   0.000  -0.000   0.000
  0.000  -0.000  27.707  -0.000   0.000  -9.682   0.000  -0.000
 -0.000   0.000  -0.000   0.000  -0.000   0.000  -8.271   0.000
 -0.000  -0.000   0.000   0.000   0.000  -0.000   0.000  -8.090
  0.000  -0.000   0.000  -0.000   0.000  -0.000   0.000  -0.051
  0.000  -0.000  -0.000  -0.000   0.000   0.000  -0.043  -0.000
  0.000  -0.000  -0.000  -0.000   0.000   0.000   0.000  -0.101
  0.000  -0.000   0.000  -0.000   0.000  -0.000  -0.212  -0.000
  0.000   0.000  -0.000  -0.000  -0.000   0.000  -0.000  -0.256
 -0.000   0.000  -0.000   0.000  -0.000   0.000  -0.000   0.012
 -0.000   0.000   0.000   0.000  -0.000  -0.000   0.010   0.000
 -0.000   0.000   0.000   0.000  -0.000  -0.000  -0.000   0.024
  0.000   0.000   0.000  -0.000  -0.000  -0.000   0.000  -0.007
 -0.000  -0.000  -0.000   0.000   0.000   0.000  -0.000   0.001
 pseudopotential strength for first ion, spin component:           2
-52.374   0.103  -0.000  26.212  -0.075   0.000  -0.000  -0.000
  0.103 -52.405   0.000  -0.075  26.234  -0.000   0.000  -0.000
 -0.000   0.000 -52.352   0.000  -0.000  26.187  -0.000   0.000
 26.212  -0.075   0.000  -8.622   0.055  -0.000   0.000   0.000
 -0.075  26.234  -0.000   0.055  -8.638   0.000  -0.000   0.000
  0.000  -0.000  26.187  -0.000   0.000  -8.608   0.000  -0.000
 -0.000   0.000  -0.000   0.000  -0.000   0.000  -6.234   0.000
 -0.000  -0.000   0.000   0.000   0.000  -0.000   0.000  -6.583
  0.000  -0.000   0.000  -0.000   0.000  -0.000   0.000   0.119
  0.000  -0.000  -0.000  -0.000   0.000   0.000   0.113  -0.000
  0.000  -0.000  -0.000  -0.000   0.000   0.000   0.000   0.028
  0.000  -0.000   0.000  -0.000   0.000  -0.000  -0.689  -0.000
  0.000   0.000  -0.000  -0.000  -0.000   0.000  -0.000  -0.607
 -0.000   0.000  -0.000   0.000  -0.000   0.000  -0.000  -0.026
 -0.000   0.000   0.000   0.000  -0.000  -0.000  -0.025   0.000
 -0.000   0.000   0.000   0.000  -0.000  -0.000  -0.000  -0.008
  0.000   0.000   0.000  -0.000  -0.000  -0.000   0.000  -0.013
 -0.000  -0.000  -0.000   0.000   0.000   0.000  -0.000   0.003
 total augmentation occupancy for first ion, spin component:           1
  2.012  -0.018   0.000   0.060  -0.043  -0.000   0.000   0.000   0.000   0.000   0.000   0.000  -0.000  -0.000   0.000  -0.000
 -0.018   2.015   0.000  -0.043   0.069   0.000   0.000  -0.000  -0.000   0.000   0.000  -0.000   0.000  -0.000   0.000   0.000
  0.000   0.000   2.011  -0.000   0.000   0.056  -0.000  -0.000   0.000   0.000  -0.000   0.000  -0.000   0.000   0.000  -0.000
  0.060  -0.043  -0.000   0.201  -0.104  -0.000   0.000   0.000   0.000   0.000   0.000  -0.000   0.000   0.000  -0.000  -0.000
 -0.043   0.069   0.000  -0.104   0.223  -0.000   0.000  -0.000  -0.000   0.000   0.000  -0.000   0.000  -0.000  -0.000   0.000
  0.000   0.000   0.056   0.000   0.000   0.184   0.000   0.000  -0.000   0.000   0.000   0.000   0.000   0.000  -0.000   0.000
  0.000   0.000  -0.000   0.000   0.000   0.000   1.265   0.000  -0.000  -0.103  -0.000  -0.052   0.000  -0.000  -0.058  -0.000
  0.000   0.000  -0.000   0.000   0.000   0.000   0.000   1.460  -0.029   0.000  -0.096   0.000   0.102  -0.153  -0.000   0.089
 -0.000  -0.000   0.000   0.000  -0.000  -0.000  -0.000  -0.029   1.305  -0.000  -0.130   0.000  -0.154   0.101   0.000  -0.078
  0.000   0.000   0.000   0.000   0.000   0.000  -0.103  -0.000  -0.000   1.278   0.000  -0.060   0.000  -0.000  -0.023  -0.000
  0.000   0.000  -0.000   0.000  -0.000   0.000   0.000  -0.096  -0.130  -0.000   1.513  -0.000   0.093  -0.076  -0.000   0.184
  0.000  -0.000   0.000  -0.000  -0.000   0.000  -0.052  -0.000   0.000  -0.060  -0.000   0.175   0.000  -0.000  -0.026  -0.000
 -0.000  -0.000  -0.000   0.000   0.000   0.000   0.000   0.102  -0.154   0.000   0.093  -0.000   0.252  -0.075  -0.000   0.090
 -0.000  -0.000   0.000   0.000   0.000   0.000   0.000  -0.153   0.101  -0.000  -0.076   0.000  -0.075   0.177  -0.000  -0.018
  0.000   0.000  -0.000  -0.000  -0.000   0.000  -0.058  -0.000  -0.000  -0.023   0.000  -0.026  -0.000  -0.000   0.166  -0.000
  0.000   0.000  -0.000  -0.000   0.000   0.000  -0.000   0.089  -0.078   0.000   0.184   0.000   0.090  -0.018   0.000   0.144
  0.000  -0.000   0.000   0.000   0.000   0.000   0.000  -0.003  -0.049   0.000   0.086   0.000  -0.312   0.027   0.000  -0.005
  0.000   0.000   0.000   0.000  -0.000   0.000  -0.000   0.004   0.025   0.000  -0.015   0.000   0.021  -0.006  -0.000   0.003
 total augmentation occupancy for first ion, spin component:           2
 -0.005   0.000  -0.000  -0.002  -0.000   0.000   0.000  -0.000  -0.000  -0.000   0.000  -0.000   0.000   0.000   0.000   0.000
  0.000  -0.007   0.000  -0.000  -0.007  -0.000  -0.000   0.000  -0.000  -0.000   0.000   0.000  -0.000   0.000  -0.000   0.000
 -0.000   0.000  -0.007  -0.000   0.000  -0.004   0.000   0.000  -0.000  -0.000  -0.000  -0.000   0.000   0.000  -0.000   0.000
 -0.002  -0.000  -0.000   0.014  -0.002   0.000  -0.000   0.000  -0.000  -0.000   0.000  -0.000   0.000   0.000  -0.000  -0.000
 -0.000  -0.007   0.000  -0.002   0.003   0.000  -0.000  -0.000   0.000  -0.000   0.000  -0.000   0.000   0.000   0.000   0.000
 -0.000   0.000  -0.004   0.000  -0.000   0.013   0.000   0.000   0.000   0.000  -0.000  -0.000  -0.000   0.000  -0.000   0.000
  0.000  -0.000  -0.000  -0.000  -0.000  -0.000   0.681   0.000   0.000   0.122  -0.000  -0.269   0.000   0.000   0.003  -0.000
  0.000  -0.000   0.000   0.000   0.000   0.000   0.000   0.376   0.132   0.000   0.052  -0.000  -0.188  -0.013   0.000  -0.030
  0.000   0.000  -0.000   0.000   0.000   0.000  -0.000   0.132   0.512  -0.000   0.165   0.000  -0.011  -0.203   0.000  -0.021
 -0.000  -0.000   0.000  -0.000  -0.000   0.000   0.122  -0.000  -0.000   0.644  -0.000   0.005  -0.000  -0.000  -0.262  -0.000
  0.000   0.000  -0.000   0.000  -0.000  -0.000   0.000   0.052   0.165  -0.000   0.231  -0.000  -0.016  -0.015  -0.000  -0.144
  0.000   0.000   0.000  -0.000  -0.000   0.000  -0.269  -0.000   0.000   0.005  -0.000   0.053   0.000   0.000   0.006  -0.000
  0.000  -0.000   0.000   0.000   0.000  -0.000  -0.000  -0.188  -0.011   0.000  -0.016   0.000   0.007   0.026  -0.000  -0.002
  0.000  -0.000   0.000   0.000   0.000   0.000  -0.000  -0.013  -0.203  -0.000  -0.015   0.000   0.026   0.002   0.000   0.005
  0.000  -0.000   0.000  -0.000   0.000   0.000   0.003  -0.000  -0.000  -0.262  -0.000   0.006   0.000   0.000   0.035  -0.000
  0.000   0.000   0.000   0.000   0.000   0.000  -0.000  -0.030  -0.021   0.000  -0.144   0.000  -0.002   0.005   0.000  -0.020
  0.000   0.000   0.000  -0.000  -0.000   0.000  -0.000   0.113   0.033  -0.000  -0.045  -0.000  -0.029   0.003   0.000  -0.021
  0.000   0.000   0.000   0.000   0.000   0.000  -0.000   0.019   0.018  -0.000  -0.015  -0.000  -0.003  -0.003  -0.000   0.000


------------------------ aborting loop because EDIFF is reached ----------------------------------------





 total charge

# of ion       s       p       d       tot
------------------------------------------
    1        0.349   6.308   6.107  12.763
    2        0.349   6.308   6.107  12.763
    3        0.349   6.308   6.107  12.763
    4        0.349   6.308   6.107  12.763
    5        0.349   6.308   6.107  12.763
    6        0.349   6.308   6.107  12.763
    7        0.349   6.308   6.107  12.763
    8        0.349   6.308   6.107  12.763
    9        1.496   2.253   0.065   3.814
   10        1.496   2.253   0.065   3.814
   11        1.496   2.253   0.065   3.814
   12        1.496   2.253   0.065   3.814
   13        1.496   2.253   0.065   3.814
   14        1.496   2.253   0.065   3.814
   15        1.496   2.253   0.065   3.814
   16        1.496   2.253   0.065   3.814
--------------------------------------------------
tot         14.758  68.488  49.371 132.617



 magnetization (x)

# of ion       s       p       d       tot
------------------------------------------
    1        0.025   0.015   2.384   2.424
    2       -0.025  -0.015  -2.384  -2.424
    3       -0.025  -0.015  -2.384  -2.424
    4        0.025   0.015   2.384   2.424
    5        0.025   0.015   2.384   2.424
    6       -0.025  -0.015  -2.384  -2.424
    7       -0.025  -0.015  -2.384  -2.424
    8        0.025   0.015   2.384   2.424
    9        0.000   0.000   0.000   0.000
   10        0.000   0.000   0.000   0.000
   11        0.000   0.000   0.000   0.000
   12        0.000   0.000   0.000   0.000
   13        0.000   0.000   0.000   0.000
   14        0.000   0.000   0.000   0.000
   15        0.000   0.000   0.000   0.000
   16        0.000   0.000   0.000   0.000
--------------------------------------------------
tot         -0.000   0.000   0.000  -0.000
 
    CHARGE:  cpu time      0.6372: real time      0.6397
    FORLOC:  cpu time      0.0023: real time      0.0023
    FORNL :  cpu time      5.3961: real time      5.4119
    STRESS:  cpu time     16.1734: real time     16.2206
    FORCOR:  cpu time      0.0401: real time      0.0402
    FORHAR:  cpu time      0.0054: real time      0.0054
    MIXING:  cpu time      0.0013: real time      0.0013
    OFIELD:  cpu time      0.0000: real time      0.0000
    FORVDW:  cpu time      0.8470: real time      0.8493

  FORCE on cell =-STRESS in cart. coord.  units (eV):
  Direction    XX          YY          ZZ          XY          YZ          ZX
  --------------------------------------------------------------------------------------
  Alpha Z   894.19572   894.19572   894.19572
  Ewald   -1496.27660 -2232.43923 -8236.86912     0.00000    -0.00000    -0.00000
  Hartree  5075.69627  4422.31008 -1111.24783     0.00000     0.00000    -0.00000
  E(xc)    -897.99555  -900.34715  -899.40718     0.00000     0.00000    -0.00000
  Local   -5524.08248 -4148.91340  7423.66493     0.00000     0.00000    -0.00000
  n-local  -278.18373  -251.09005  -243.12782    -0.74107    -0.46829    -0.72529
  augment   528.37122   515.57213   511.33812     0.00000    -0.00000     0.00000
  Kinetic  1708.38881  1710.84069  1671.70110     3.79806     0.03038     0.73279
  Fock        0.00000     0.00000     0.00000     0.00000     0.00000     0.00000
  vdW        -6.75757    -6.78896    -7.07009    -0.00000     0.00000     0.00000
  -------------------------------------------------------------------------------------
  Total       3.35609     3.33982     3.17784     0.00000    -0.00000     0.00000
  in kB      18.93330    18.84152    17.92767     0.00000    -0.00000     0.00000
  external pressure =       18.57 kB  Pullay stress =        0.00 kB


 VOLUME and BASIS-vectors are now :
 -----------------------------------------------------------------------------
  energy-cutoff  :      550.00
  volume of cell :      284.00
      direct lattice vectors                 reciprocal lattice vectors
     4.746790211 -5.490104264  0.000000000     0.105334337 -0.091072952  0.000000000
     4.746790211  5.490104264 -0.000000000     0.105334337  0.091072952  0.000000000
     0.000000000  0.000000000  5.448885903    -0.000000000  0.000000000  0.183523755

  length of vectors
     7.257634747  7.257634747  5.448885903     0.139246562  0.139246562  0.183523755


 FORCES acting on ions
    electron-ion (+dipol)            ewald-force                    non-local-force                 convergence-correction
 -----------------------------------------------------------------------------------------------
   -.208E-12 0.177E-13 0.191E-13   -.156E-12 0.355E-14 -.107E-13   -.923E-23 0.110E-21 -.112E-22   -.450E-12 0.508E-12 -.571E-13
   0.911E-12 0.135E-11 0.444E-13   -.144E-12 0.355E-14 -.977E-14   -.682E-22 0.120E-21 -.323E-22   -.507E-12 0.417E-12 -.111E-12
   0.104E-11 0.602E-12 0.348E-10   -.168E-12 0.284E-13 0.000E+00   0.205E-21 0.373E-21 0.170E-21   0.284E-12 -.569E-12 0.827E-12
   0.719E-11 0.943E-11 0.157E-10   -.156E-12 0.000E+00 0.355E-14   -.135E-21 -.471E-22 -.922E-22   0.362E-12 -.403E-12 0.606E-12
   0.495E-11 0.410E-11 0.735E-11   0.154E-12 -.782E-13 0.124E-13   0.204E-21 0.107E-21 -.106E-21   0.315E-13 0.383E-13 0.346E-13
   -.342E-12 -.333E-11 0.789E-11   0.142E-12 -.568E-13 0.107E-13   -.256E-21 -.266E-21 -.188E-22   0.421E-13 -.213E-12 0.166E-12
   -.209E-10 -.252E-10 -.461E-10   0.213E-12 -.103E-12 0.391E-13   0.201E-21 -.101E-21 -.127E-21   -.341E-12 0.272E-12 0.462E-12
   0.154E-11 0.455E-11 -.445E-10   0.212E-12 -.853E-13 0.426E-13   0.419E-22 -.857E-22 -.516E-22   -.466E-12 0.324E-12 0.465E-12
   -.735E-07 0.272E-11 0.302E+03   -.318E-13 0.711E-14 -.303E+03   0.152E-17 0.352E-17 0.101E+01   -.508E-13 0.110E-12 0.214E-01
   -.735E-07 -.532E-12 0.302E+03   -.284E-13 0.353E-13 -.303E+03   -.223E-17 0.232E-17 0.101E+01   -.996E-13 0.552E-13 0.214E-01
   -.735E-07 0.560E-11 0.302E+03   -.284E-13 0.482E-15 -.303E+03   0.551E-17 -.452E-17 0.101E+01   0.929E-13 -.690E-13 0.214E-01
   -.735E-07 -.320E-12 0.302E+03   -.326E-13 0.213E-13 -.303E+03   -.361E-17 0.312E-17 0.101E+01   0.833E-13 -.736E-13 0.214E-01
   0.735E-07 0.344E-12 -.302E+03   -.106E-13 0.485E-13 0.303E+03   0.929E-18 -.664E-17 -.101E+01   0.140E-13 0.159E-13 -.214E-01
   0.735E-07 0.834E-12 -.302E+03   -.136E-13 0.683E-13 0.303E+03   0.796E-19 0.603E-17 -.101E+01   0.689E-14 -.253E-13 -.214E-01
   0.735E-07 -.447E-12 -.302E+03   0.134E-13 0.452E-13 0.303E+03   -.336E-17 -.291E-17 -.101E+01   -.982E-14 -.876E-14 -.214E-01
   0.735E-07 -.204E-11 -.302E+03   0.179E-13 0.724E-13 0.303E+03   0.782E-19 0.257E-17 -.101E+01   -.319E-13 -.272E-14 -.214E-01
 -----------------------------------------------------------------------------------------------
   -.109E-10 -.229E-11 -.421E-10   -.170E-13 0.108E-13 0.000E+00   -.108E-17 0.349E-17 0.000E+00   -.104E-11 0.375E-12 0.194E-11
 
 
 POSITION                                       TOTAL-FORCE (eV/Angst)
 -----------------------------------------------------------------------------------
      0.00000     -0.00000     -0.00000         0.000000     -0.000000     -0.000000
      2.37340      2.74505     -0.00000         0.000000     -0.000000     -0.000000
      2.37340     -2.74505      0.00000         0.000000     -0.000000     -0.000000
      4.74679      0.00000     -0.00000         0.000000     -0.000000     -0.000000
      2.37340      0.00000     -0.00000         0.000000     -0.000000     -0.000000
      4.74679      2.74505     -0.00000         0.000000     -0.000000     -0.000000
      4.74679     -2.74505      0.00000         0.000000     -0.000000     -0.000000
      7.12019     -0.00000     -0.00000         0.000000     -0.000000     -0.000000
      2.37340     -1.37253      3.61906        -0.000000      0.000000      0.004342
      4.74679      1.37253      3.61906         0.000000     -0.000000      0.004342
      4.74679     -4.11758      3.61906         0.000000     -0.000000      0.004342
      7.12019     -1.37253      3.61906        -0.000000     -0.000000      0.004342
      2.37340      1.37253      1.82983        -0.000000     -0.000000     -0.004342
      4.74679      4.11758      1.82983         0.000000     -0.000000     -0.004342
      4.74679     -1.37253      1.82983        -0.000000      0.000000     -0.004342
      7.12019      1.37253      1.82983         0.000000      0.000000     -0.004342
 -----------------------------------------------------------------------------------
    total drift:                               -0.000000     -0.000000     -0.000000


--------------------------------------------------------------------------------------------------------



  FREE ENERGIE OF THE ION-ELECTRON SYSTEM (eV)
  ---------------------------------------------------
  free  energy   TOTEN  =       -98.33151135 eV

  energy  without entropy=      -98.30739124  energy(sigma->0) =      -98.31945129
 
 d Force = 0.3846633E-03[-0.236E-03, 0.101E-02]  d Energy = 0.2152023E-02-0.177E-02
 d Force = 0.1657726E+02[ 0.165E+02, 0.167E+02]  d Ewald  = 0.3006456E+02-0.135E+02


--------------------------------------------------------------------------------------------------------


    POTLOK:  cpu time      0.3461: real time      0.3470


--------------------------------------------------------------------------------------------------------




--------------------------------------------------------------------------------------------------------


  
 reached required accuracy - stopping structural energy minimisation
     LOOP+:  cpu time    136.4222: real time    137.0118
    4ORBIT:  cpu time      0.0000: real time      0.0000



 total charge

# of ion       s       p       d       tot
------------------------------------------
    1        0.349   6.308   6.107  12.763
    2        0.349   6.308   6.107  12.763
    3        0.349   6.308   6.107  12.763
    4        0.349   6.308   6.107  12.763
    5        0.349   6.308   6.107  12.763
    6        0.349   6.308   6.107  12.763
    7        0.349   6.308   6.107  12.763
    8        0.349   6.308   6.107  12.763
    9        1.496   2.253   0.065   3.814
   10        1.496   2.253   0.065   3.814
   11        1.496   2.253   0.065   3.814
   12        1.496   2.253   0.065   3.814
   13        1.496   2.253   0.065   3.814
   14        1.496   2.253   0.065   3.814
   15        1.496   2.253   0.065   3.814
   16        1.496   2.253   0.065   3.814
--------------------------------------------------
tot         14.758  68.488  49.371 132.617



 magnetization (x)

# of ion       s       p       d       tot
------------------------------------------
    1        0.025   0.015   2.384   2.424
    2       -0.025  -0.015  -2.384  -2.424
    3       -0.025  -0.015  -2.384  -2.424
    4        0.025   0.015   2.384   2.424
    5        0.025   0.015   2.384   2.424
    6       -0.025  -0.015  -2.384  -2.424
    7       -0.025  -0.015  -2.384  -2.424
    8        0.025   0.015   2.384   2.424
    9        0.000   0.000   0.000   0.000
   10        0.000   0.000   0.000   0.000
   11        0.000   0.000   0.000   0.000
   12        0.000   0.000   0.000   0.000
   13        0.000   0.000   0.000   0.000
   14        0.000   0.000   0.000   0.000
   15        0.000   0.000   0.000   0.000
   16        0.000   0.000   0.000   0.000
--------------------------------------------------
tot         -0.000   0.000   0.000  -0.000
 

 total amount of memory used by VASP MPI-rank0   170194. kBytes
=======================================================================

   base      :      30000. kBytes
   nonlr-proj:      11664. kBytes
   fftplans  :       2458. kBytes
   grid      :      15239. kBytes
   one-center:        497. kBytes
   wavefun   :     110336. kBytes
 
  
  
 General timing and accounting informations for this job:
 ========================================================
  
                  Total CPU time used (sec):      820.559
                            User time (sec):      818.614
                          System time (sec):        1.945
                         Elapsed time (sec):      826.282
  
                   Maximum memory used (kb):      463944.
                   Average memory used (kb):          N/A
  
                          Minor page faults:       244767
                          Major page faults:            0
                 Voluntary context switches:        39948
