 running   20 mpi-ranks, on    5 nodes
 distrk:  each k-point on   20 cores,    1 groups
 distr:  one band on    1 cores,   20 groups
 vasp.6.4.1 05Apr23 (build Jun 01 2023 13:46:15) complex                        
  
 POSCAR found type information on POSCAR FeSe
 POSCAR found :  2 types and      16 ions
 Reading from existing POTCAR
 scaLAPACK will be used
 -----------------------------------------------------------------------------
|                                                                             |
|           W    W    AA    RRRRR   N    N  II  N    N   GGGG   !!!           |
|           W    W   A  A   R    R  NN   N  II  NN   N  G    G  !!!           |
|           W    W  A    A  R    R  N N  N  II  N N  N  G       !!!           |
|           W WW W  AAAAAA  RRRRR   N  N N  II  N  N N  G  GGG   !            |
|           WW  WW  A    A  R   R   N   NN  II  N   NN  G    G                |
|           W    W  A    A  R    R  N    N  II  N    N   GGGG   !!!           |
|                                                                             |
|     For optimal performance we recommend to set                             |
|       NCORE = 2 up to number-of-cores-per-socket                            |
|     NCORE specifies how many cores store one orbital (NPAR=cpu/NCORE).      |
|     This setting can greatly improve the performance of VASP for DFT.       |
|     The default, NCORE=1 might be grossly inefficient on modern             |
|     multi-core architectures or massively parallel machines. Do your        |
|     own testing! More info at https://www.vasp.at/wiki/index.php/NCORE      |
|     Unfortunately you need to use the default for GW and RPA                |
|     calculations (for HF NCORE is supported but not extensively tested      |
|     yet).                                                                   |
|                                                                             |
 -----------------------------------------------------------------------------

 Reading from existing POTCAR
 LDA part: xc-table for Pade appr. of Perdew
 POSCAR, INCAR and KPOINTS ok, starting setup
 FFT: planning ... GRIDC
 FFT: planning ... GRID_SOFT
 FFT: planning ... GRID
 WAVECAR not read
 WARNING: random wavefunctions but no delay for mixing, default for NELMDL
 entering main loop
       N       E                     dE             d eps       ncg     rms          rms(c)
DAV:   1     0.204967230287E+04    0.20497E+04   -0.88912E+04 33660   0.201E+03
DAV:   2     0.120352055402E+03   -0.19293E+04   -0.18727E+04 32000   0.592E+02
DAV:   3    -0.837848030481E+02   -0.20414E+03   -0.18056E+03 44800   0.193E+02
DAV:   4    -0.976542129182E+02   -0.13869E+02   -0.13476E+02 46440   0.513E+01
DAV:   5    -0.979903609679E+02   -0.33615E+00   -0.33529E+00 45380   0.831E+00    0.266E+01
RMM:   6    -0.111412271187E+03   -0.13422E+02   -0.15318E+02 34654   0.811E+01    0.471E+01
RMM:   7    -0.903520909077E+02    0.21060E+02   -0.38992E+01 32068   0.479E+01    0.914E+00
RMM:   8    -0.908621402308E+02   -0.51005E+00   -0.33952E+00 46135   0.519E+00    0.408E+00
RMM:   9    -0.909108877740E+02   -0.48748E-01   -0.78917E-01 52424   0.266E+00    0.217E+00
RMM:  10    -0.909167432211E+02   -0.58554E-02   -0.20294E-01 51391   0.135E+00    0.960E-01
RMM:  11    -0.909219575583E+02   -0.52143E-02   -0.38790E-02 50410   0.729E-01    0.359E-01
RMM:  12    -0.909261821756E+02   -0.42246E-02   -0.86606E-03 47890   0.301E-01    0.158E-01
RMM:  13    -0.909261951459E+02   -0.12970E-04   -0.19656E-03 34975   0.150E-01
   1 F= -.98321754E+02 E0= -.98321754E+02  d E =0.000000E+00  mag=    -0.0000
 -----------------------------------------------------------------------------
|                                                                             |
|           W    W    AA    RRRRR   N    N  II  N    N   GGGG   !!!           |
|           W    W   A  A   R    R  NN   N  II  NN   N  G    G  !!!           |
|           W    W  A    A  R    R  N N  N  II  N N  N  G       !!!           |
|           W WW W  AAAAAA  RRRRR   N  N N  II  N  N N  G  GGG   !            |
|           WW  WW  A    A  R   R   N   NN  II  N   NN  G    G                |
|           W    W  A    A  R    R  N    N  II  N    N   GGGG   !!!           |
|                                                                             |
|     Tetrahedron method does not include variations of the Fermi             |
|     occupations, so forces and stress will be inaccurate. We suggest        |
|     using a different smearing scheme ISMEAR = 1 or 2 for metals in         |
|     relaxations.                                                            |
|                                                                             |
 -----------------------------------------------------------------------------

