       N       E                     dE             d eps       ncg     rms          rms(c)
DAV:   1     0.173783359622E+04    0.17378E+04   -0.91296E+04 32256   0.245E+03
DAV:   2     0.728814832357E+01   -0.17305E+04   -0.16988E+04 32416   0.609E+02
DAV:   3    -0.102701766212E+03   -0.10999E+03   -0.10888E+03 38976   0.161E+02
DAV:   4    -0.104873144150E+03   -0.21714E+01   -0.21700E+01 32896   0.244E+01
DAV:   5    -0.104920090026E+03   -0.46946E-01   -0.46951E-01 41088   0.354E+00    0.427E+01
DAV:   6    -0.105281154099E+03   -0.36106E+00   -0.19213E+02 36576   0.805E+01    0.528E+01
DAV:   7    -0.119766021290E+03   -0.14485E+02   -0.47799E+02 42944   0.959E+01    0.671E+01
DAV:   8    -0.943503703762E+02    0.25416E+02   -0.67700E+01 42880   0.650E+01    0.188E+01
DAV:   9    -0.936353302029E+02    0.71504E+00   -0.26798E+01 39520   0.228E+01    0.201E+01
DAV:  10    -0.932724556295E+02    0.36287E+00   -0.23756E+01 43872   0.209E+01    0.175E+01
DAV:  11    -0.931286619088E+02    0.14379E+00   -0.16492E+01 45376   0.149E+01    0.140E+01
DAV:  12    -0.926026005728E+02    0.52606E+00   -0.92527E+00 44544   0.991E+00    0.665E+00
DAV:  13    -0.927990342174E+02   -0.19643E+00   -0.23317E+00 43488   0.580E+00    0.792E+00
DAV:  14    -0.926954081526E+02    0.10363E+00   -0.18056E+00 42944   0.545E+00    0.581E+00
DAV:  15    -0.927382227145E+02   -0.42815E-01   -0.79160E-02 36768   0.129E+00    0.546E+00
DAV:  16    -0.929865091526E+02   -0.24829E+00   -0.16916E+00 44096   0.819E+00    0.776E+00
DAV:  17    -0.928299261815E+02    0.15658E+00   -0.19084E+00 43200   0.730E+00    0.240E+00
DAV:  18    -0.928789796762E+02   -0.49053E-01   -0.12677E-01 39488   0.162E+00    0.158E+00
DAV:  19    -0.928942890831E+02   -0.15309E-01   -0.12041E-01 43200   0.131E+00    0.743E-01
DAV:  20    -0.928945441182E+02   -0.25504E-03   -0.14123E-02 40800   0.617E-01    0.381E-01
DAV:  21    -0.928945219262E+02    0.22192E-04   -0.50381E-03 43008   0.363E-01    0.223E-01
DAV:  22    -0.928946829424E+02   -0.16102E-03   -0.14442E-03 41152   0.181E-01    0.174E-01
DAV:  23    -0.928947254867E+02   -0.42544E-04   -0.39869E-04 38464   0.156E-01    0.951E-02
DAV:  24    -0.928947460831E+02   -0.20596E-04   -0.26117E-04 42976   0.844E-02    0.368E-02
DAV:  25    -0.928947688080E+02   -0.22725E-04   -0.72042E-05 42144   0.362E-02    0.431E-02
DAV:  26    -0.928947611076E+02    0.77004E-05   -0.32505E-05 42080   0.331E-02    0.228E-02
DAV:  27    -0.928947656351E+02   -0.45275E-05   -0.15293E-05 38240   0.233E-02    0.108E-02
DAV:  28    -0.928947625430E+02    0.30921E-05   -0.43048E-06 28576   0.109E-02    0.575E-03
DAV:  29    -0.928947634705E+02   -0.92755E-06   -0.13503E-06 17984   0.732E-03
   1 F= -.92894763E+02 E0= -.92894763E+02  d E =0.000000E+00  mag=     1.8668
