 vasp.6.4.3 19Mar24 (build Mar 26 2024 14:05:37) complex                        
  
 executed on             LinuxIFC date 2024.12.16  15:33:23
 running  128 mpi-ranks, on    1 nodes
 distrk:  each k-point on   32 cores,    4 groups
 distr:  one band on NCORE=   1 cores,   32 groups


--------------------------------------------------------------------------------------------------------


 INCAR:
   ALGO = Normal
   EDIFF = 1e-06
   EDIFFG = -0.01
   ENCUT = 520
   GGA = Pe
   IBRION = -1
   ISIF = 4
   ISMEAR = -5
   ISPIN = 2
   KPAR = 4
   LCHARG = True
   LORBIT = 11
   LREAL = False
   LWAVE = False
   MAGMOM = 1*-2.331 1*2.216 1*2.214 1*-2.326 1*-2.327 1*2.361 1*-2.331 1*2.216 1*2.214 2*-0.087 1*0.184
   NELM = 200
   NSW = 0
   PREC = Accurate
   SIGMA = 0.2

 POTCAR:    PAW_PBE Fe_pv 02Aug2007               
 POTCAR:    PAW_PBE Pt 04Feb2005                  
 -----------------------------------------------------------------------------
|                                                                             |
|           W    W    AA    RRRRR   N    N  II  N    N   GGGG   !!!           |
|           W    W   A  A   R    R  NN   N  II  NN   N  G    G  !!!           |
|           W    W  A    A  R    R  N N  N  II  N N  N  G       !!!           |
|           W WW W  AAAAAA  RRRRR   N  N N  II  N  N N  G  GGG   !            |
|           WW  WW  A    A  R   R   N   NN  II  N   NN  G    G                |
|           W    W  A    A  R    R  N    N  II  N    N   GGGG   !!!           |
|                                                                             |
|     For optimal performance we recommend to set                             |
|       NCORE = 2 up to number-of-cores-per-socket                            |
|     NCORE specifies how many cores store one orbital (NPAR=cpu/NCORE).      |
|     This setting can greatly improve the performance of VASP for DFT.       |
|     The default, NCORE=1 might be grossly inefficient on modern             |
|     multi-core architectures or massively parallel machines. Do your        |
|     own testing! More info at https://www.vasp.at/wiki/index.php/NCORE      |
|     Unfortunately you need to use the default for GW and RPA                |
|     calculations (for HF NCORE is supported but not extensively tested      |
|     yet).                                                                   |
|                                                                             |
 -----------------------------------------------------------------------------

 POTCAR:    PAW_PBE Fe_pv 02Aug2007               
   SHA256 =  5d22e414b1f82158bf2c7ecb8b97b28fd0923e48cadc1c3bf74d524558f5dd32 Fe_pv/POTCAR          
   COPYR  = (c) Copyright 02Aug2007 Georg Kresse                                                    
   COPYR  = This file is part of the software VASP. Any use, copying, and all other rights are regul
   COPYR  = If you do not have a valid VASP license, you may not use, copy or distribute this file. 
   VRHFIN =Fe:  3pd7s1                                                                              
   LEXCH  = PE                                                                                      
   EATOM  =  2457.4239 eV,  180.6156 Ry                                                             
                                                                                                    
   TITEL  = PAW_PBE Fe_pv 02Aug2007                                                                 
   LULTRA =        F    use ultrasoft PP ?                                                          
   IUNSCR =        1    unscreen: 0-lin 1-nonlin 2-no                                               
   RPACOR =    1.750    partial core radius                                                         
   POMASS =   55.847; ZVAL   =   14.000    mass and valenz                                          
   RCORE  =    2.200    outmost cutoff radius                                                       
   RWIGS  =    2.200; RWIGS  =    1.164    wigner-seitz radius (au A)                               
   ENMAX  =  293.238; ENMIN  =  219.928 eV                                                          
   ICORE  =        3    local potential                                                             
   LCOR   =        T    correct aug charges                                                         
   LPAW   =        T    paw PP                                                                      
   EAUG   =  578.342                                                                                
   DEXC   =    0.000                                                                                
   RMAX   =    2.249    core radius for proj-oper                                                   
   RAUG   =    1.300    factor for augmentation sphere                                              
   RDEP   =    2.296    radius for radial grids                                                     
   RDEPT  =    1.766    core radius for aug-charge                                                  
                                                                                                    
   Atomic configuration                                                                             
    8 entries                                                                                       
     n  l   j            E        occ.                                                              
     1  0  0.50     -6993.8440   2.0000                                                             
     2  0  0.50      -814.6047   2.0000                                                             
     2  1  1.50      -693.3689   6.0000                                                             
     3  0  0.50       -89.4732   2.0000                                                             
     3  1  1.50       -55.6373   6.0000                                                             
     3  2  2.50        -3.8151   7.0000                                                             
     4  0  0.50        -4.2551   1.0000                                                             
     4  3  2.50        -1.3606   0.0000                                                             
   Description                                                                                      
     l       E           TYP  RCUT    TYP  RCUT                                                     
     1    -55.6372668     23  2.000                                                                 
     1     -5.4423304     23  2.000                                                                 
     2     -3.8151096     23  2.200                                                                 
     2     -5.1756922     23  2.200                                                                 
     0     -4.2550951     23  2.200                                                                 
     0     27.2116520     23  2.200                                                                 
     3     -1.3605826     23  2.200                                                                 
  local pseudopotential read in
  partial core-charges read in
  partial kinetic energy density read in
  atomic valenz-charges read in
  non local Contribution for L=           1  read in
    real space projection operators read in
  non local Contribution for L=           1  read in
    real space projection operators read in
  non local Contribution for L=           2  read in
    real space projection operators read in
  non local Contribution for L=           2  read in
    real space projection operators read in
  non local Contribution for L=           0  read in
    real space projection operators read in
  non local Contribution for L=           0  read in
    real space projection operators read in
    PAW grid and wavefunctions read in
 
   number of l-projection  operators is LMAX  =           6
   number of lm-projection operators is LMMAX =          18
 
 POTCAR:    PAW_PBE Pt 04Feb2005                  
   SHA256 =  3ed90460adef76debcff1cfb73ee1349b515b1a3db03439735b44de3a8db7dc8 Pt/POTCAR             
   COPYR  = (c) Copyright 04Feb2005 Georg Kresse                                                    
   COPYR  = This file is part of the software VASP. Any use, copying, and all other rights are regul
   COPYR  = If you do not have a valid VASP license, you may not use, copy or distribute this file. 
   VRHFIN =Pt: s1d9                                                                                 
   LEXCH  = PE                                                                                      
   EATOM  =   729.1176 eV,   53.5886 Ry                                                             
                                                                                                    
   TITEL  = PAW_PBE Pt 04Feb2005                                                                    
   LULTRA =        F    use ultrasoft PP ?                                                          
   IUNSCR =        1    unscreen: 0-lin 1-nonlin 2-no                                               
   RPACOR =    2.330    partial core radius                                                         
   POMASS =  195.080; ZVAL   =   10.000    mass and valenz                                          
   RCORE  =    2.600    outmost cutoff radius                                                       
   RWIGS  =    2.750; RWIGS  =    1.455    wigner-seitz radius (au A)                               
   ENMAX  =  230.283; ENMIN  =  172.712 eV                                                          
   ICORE  =        3    local potential                                                             
   LCOR   =        T    correct aug charges                                                         
   LPAW   =        T    paw PP                                                                      
   EAUG   =  358.966                                                                                
   DEXC   =    0.000                                                                                
   RMAX   =    2.658    core radius for proj-oper                                                   
   RAUG   =    1.300    factor for augmentation sphere                                              
   RDEP   =    2.761    radius for radial grids                                                     
   RDEPT  =    2.203    core radius for aug-charge                                                  
                                                                                                    
   Atomic configuration                                                                             
   16 entries                                                                                       
     n  l   j            E        occ.                                                              
     1  0  0.50    -78401.1885   2.0000                                                             
     2  0  0.50    -13770.7750   2.0000                                                             
     2  1  1.50    -11931.0468   6.0000                                                             
     3  0  0.50     -3234.7234   2.0000                                                             
     3  1  1.50     -2699.2216   6.0000                                                             
     3  2  2.50     -2119.5714  10.0000                                                             
     4  0  0.50      -695.1528   2.0000                                                             
     4  1  1.50      -519.6034   6.0000                                                             
     4  2  2.50      -306.6786  10.0000                                                             
     4  3  3.50       -70.1041  14.0000                                                             
     5  0  0.50      -101.7747   2.0000                                                             
     5  1  1.50       -55.9873   6.0000                                                             
     5  2  2.50        -6.1423   9.0000                                                             
     6  0  0.50        -5.6573   1.0000                                                             
     6  1  1.50        -6.8029   0.0000                                                             
     5  3  2.50        -1.3606   0.0000                                                             
   Description                                                                                      
     l       E           TYP  RCUT    TYP  RCUT                                                     
     2     -6.1423404     23  2.500                                                                 
     2     -7.5029230     23  2.500                                                                 
     0     -5.6573207     23  2.500                                                                 
     0      0.7416693     23  2.500                                                                 
     1     -2.7211652     23  2.600                                                                 
     1     20.4087390     23  2.600                                                                 
     3     -1.3605826     23  2.500                                                                 
  local pseudopotential read in
  partial core-charges read in
  partial kinetic energy density read in
  atomic valenz-charges read in
  non local Contribution for L=           2  read in
    real space projection operators read in
  non local Contribution for L=           2  read in
    real space projection operators read in
  non local Contribution for L=           0  read in
    real space projection operators read in
  non local Contribution for L=           0  read in
    real space projection operators read in
  non local Contribution for L=           1  read in
    real space projection operators read in
  non local Contribution for L=           1  read in
    real space projection operators read in
    PAW grid and wavefunctions read in
 
   number of l-projection  operators is LMAX  =           6
   number of lm-projection operators is LMMAX =          18
 
  PAW_PBE Fe_pv 02Aug2007               :
 energy of atom  1       EATOM=-2457.4239
 kinetic energy error for atom=    0.0062 (will be added to EATOM!!)
  PAW_PBE Pt 04Feb2005                  :
 energy of atom  2       EATOM= -729.1176
 kinetic energy error for atom=    0.0032 (will be added to EATOM!!)
 
 
 POSCAR: Fe9 Pt3
  positions in direct lattice
  velocities in cartesian coordinates


 exchange-correlation table for PE
   RHO(1)=    0.500       N(1)  =     2000
   RHO(2)=  100.500       N(2)  =     4000
 


--------------------------------------------------------------------------------------------------------


 ion  position               nearest neighbor table
   1  0.000  0.500  0.167-   5 2.54   5 2.54   4 2.54   4 2.54   7 2.55   7 2.55   7 2.55   7 2.55
                            10 2.58  10 2.58  11 2.58  11 2.58
   2  0.000  0.500  0.500-  11 2.54  11 2.54   8 2.55   8 2.55   8 2.55   8 2.55  12 2.56  12 2.56
                             6 2.56   6 2.56   5 2.58   5 2.58
   3  0.000  0.500  0.834-  10 2.54  10 2.54   9 2.55   9 2.55   9 2.55   9 2.55   6 2.56   6 2.56
                            12 2.56  12 2.56   4 2.58   4 2.58
   4  0.500  0.500  0.002-   1 2.54   7 2.54   7 2.54   1 2.54  10 2.55  10 2.55  10 2.55  10 2.55
                             9 2.58   3 2.58   9 2.58   3 2.58
   5  0.500  0.500  0.331-   1 2.54   7 2.54   7 2.54   1 2.54  11 2.55  11 2.55  11 2.55  11 2.55
                             8 2.58   2 2.58   8 2.58   2 2.58
   6  0.500  0.500  0.667-  12 2.55  12 2.55  12 2.55  12 2.55   9 2.56   3 2.56   3 2.56   9 2.56
                             2 2.56   8 2.56   2 2.56   8 2.56
   7  0.500  0.000  0.167-   5 2.54   5 2.54   4 2.54   4 2.54   1 2.55   1 2.55   1 2.55   1 2.55
                            10 2.58  10 2.58  11 2.58  11 2.58
   8  0.500  0.000  0.500-  11 2.54  11 2.54   2 2.55   2 2.55   2 2.55   2 2.55  12 2.56  12 2.56
                             6 2.56   6 2.56   5 2.58   5 2.58
   9  0.500  0.000  0.834-  10 2.54  10 2.54   3 2.55   3 2.55   3 2.55   3 2.55   6 2.56   6 2.56
                            12 2.56  12 2.56   4 2.58   4 2.58
  10  0.000  0.000  0.998-   3 2.54   9 2.54   3 2.54   9 2.54   4 2.55   4 2.55   4 2.55   4 2.55
                             1 2.58   7 2.58   7 2.58   1 2.58
  11  0.000  0.000  0.335-   2 2.54   8 2.54   2 2.54   8 2.54   5 2.55   5 2.55   5 2.55   5 2.55
                             1 2.58   7 2.58   7 2.58   1 2.58
  12  0.000  0.000  0.667-   6 2.55   6 2.55   6 2.55   6 2.55   2 2.56   8 2.56   8 2.56   2 2.56
                             3 2.56   3 2.56   9 2.56   9 2.56
 
  LATTYP: Found a simple tetragonal cell.
 ALAT       =     3.6082462937
 C/A-ratio  =     3.0227332397
  
  Lattice vectors:
  
 A1 = (   3.6082462937,   0.0000000000,   0.0000000000)
 A2 = (   0.0000000000,   3.6082462937,   0.0000000000)
 A3 = (   0.0000000000,   0.0000000000,  10.9067660089)


Analysis of symmetry for initial positions (statically):
=====================================================================
 Subroutine PRICEL returns:
 Original cell was already a primitive cell.
 

 Routine SETGRP: Setting up the symmetry group for a 
 simple tetragonal supercell.


 Subroutine GETGRP returns: Found  8 space group operations
 (whereof  8 operations were pure point group operations)
 out of a pool of 16 trial point group operations.


The static configuration has the point symmetry C_4v.


Analysis of symmetry for dynamics (positions and initial velocities):
=====================================================================
 Subroutine PRICEL returns:
 Original cell was already a primitive cell.
 

 Routine SETGRP: Setting up the symmetry group for a 
 simple tetragonal supercell.


 Subroutine GETGRP returns: Found  8 space group operations
 (whereof  8 operations were pure point group operations)
 out of a pool of 16 trial point group operations.


The dynamic configuration has the point symmetry C_4v.


Analysis of structural, dynamic, and magnetic symmetry:
=====================================================================
 Subroutine PRICEL returns:
 Original cell was already a primitive cell.
 

 Routine SETGRP: Setting up the symmetry group for a 
 simple tetragonal supercell.


 Subroutine GETGRP returns: Found  8 space group operations
 (whereof  8 operations were pure point group operations)
 out of a pool of 16 trial point group operations.


The overall configuration has the point symmetry C_4v.


 Subroutine INISYM returns: Found  8 space group operations
 (whereof  8 operations are pure point group operations),
 and found     1 'primitive' translations


----------------------------------------------------------------------------------------

                                     Primitive cell                                     

  volume of cell :     142.0000

  direct lattice vectors                    reciprocal lattice vectors
     3.608246294  0.000000000  0.000000000     0.277142944  0.000000000  0.000000000
     0.000000000  3.608246294  0.000000000     0.000000000  0.277142944  0.000000000
     0.000000000  0.000000000 10.906766009     0.000000000  0.000000000  0.091686206

  length of vectors
     3.608246294  3.608246294 10.906766009     0.277142944  0.277142944  0.091686206

  position of ions in fractional coordinates (direct lattice)
     0.000000000  0.500000000  0.166639475
     0.000000000  0.500000000  0.499625549
     0.000000000  0.500000000  0.833737698
     0.500000000  0.500000000  0.002324709
     0.500000000  0.500000000  0.330938591
     0.500000000  0.500000000  0.666734069
     0.500000000  0.000000000  0.166639475
     0.500000000  0.000000000  0.499625549
     0.500000000  0.000000000  0.833737698
     0.000000000  0.000000000  0.997948850
     0.000000000  0.000000000  0.335367696
     0.000000000  0.000000000  0.666680642

  ion indices of the primitive-cell ions
   primitive index   ion index
                 1           1
                 2           2
                 3           3
                 4           4
                 5           5
                 6           6
                 7           7
                 8           8
                 9           9
                10          10
                11          11
                12          12

----------------------------------------------------------------------------------------

 
 
 KPOINTS: pymatgen with grid density = 8800 / numb

Automatic generation of k-mesh.
 Grid dimensions read from file:
 generate k-points for:   13   13    4

 Generating k-lattice:

  Cartesian coordinates                     Fractional coordinates (reciprocal lattice)
     0.021318688  0.000000000  0.000000000     0.076923077  0.000000000  0.000000000
     0.000000000  0.021318688  0.000000000     0.000000000  0.076923077  0.000000000
     0.000000000  0.000000000  0.022921552     0.000000000  0.000000000  0.250000000

  Length of vectors
     0.021318688  0.021318688  0.022921552

  Shift w.r.t. Gamma in fractional coordinates (k-lattice)
     0.000000000  0.000000000  0.000000000

 TETIRR: Found   1010 inequivalent tetrahedra from     4056
 
 Subroutine IBZKPT returns following result:
 ===========================================
 
 Found     84 irreducible k-points:
 
 Following reciprocal coordinates:
            Coordinates               Weight
  0.000000  0.000000  0.000000      1.000000
  0.076923  0.000000  0.000000      4.000000
  0.153846  0.000000  0.000000      4.000000
  0.230769  0.000000  0.000000      4.000000
  0.307692  0.000000  0.000000      4.000000
  0.384615  0.000000  0.000000      4.000000
  0.461538  0.000000  0.000000      4.000000
  0.076923  0.076923  0.000000      4.000000
  0.153846  0.076923  0.000000      8.000000
  0.230769  0.076923  0.000000      8.000000
  0.307692  0.076923  0.000000      8.000000
  0.384615  0.076923  0.000000      8.000000
  0.461538  0.076923  0.000000      8.000000
  0.153846  0.153846  0.000000      4.000000
  0.230769  0.153846  0.000000      8.000000
  0.307692  0.153846  0.000000      8.000000
  0.384615  0.153846  0.000000      8.000000
  0.461538  0.153846  0.000000      8.000000
  0.230769  0.230769  0.000000      4.000000
  0.307692  0.230769  0.000000      8.000000
  0.384615  0.230769  0.000000      8.000000
  0.461538  0.230769  0.000000      8.000000
  0.307692  0.307692  0.000000      4.000000
  0.384615  0.307692  0.000000      8.000000
  0.461538  0.307692  0.000000      8.000000
  0.384615  0.384615  0.000000      4.000000
  0.461538  0.384615  0.000000      8.000000
  0.461538  0.461538  0.000000      4.000000
  0.000000  0.000000  0.250000      2.000000
  0.076923  0.000000  0.250000      8.000000
  0.153846  0.000000  0.250000      8.000000
  0.230769  0.000000  0.250000      8.000000
  0.307692  0.000000  0.250000      8.000000
  0.384615  0.000000  0.250000      8.000000
  0.461538  0.000000  0.250000      8.000000
  0.076923  0.076923  0.250000      8.000000
  0.153846  0.076923  0.250000     16.000000
  0.230769  0.076923  0.250000     16.000000
  0.307692  0.076923  0.250000     16.000000
  0.384615  0.076923  0.250000     16.000000
  0.461538  0.076923  0.250000     16.000000
  0.153846  0.153846  0.250000      8.000000
  0.230769  0.153846  0.250000     16.000000
  0.307692  0.153846  0.250000     16.000000
  0.384615  0.153846  0.250000     16.000000
  0.461538  0.153846  0.250000     16.000000
  0.230769  0.230769  0.250000      8.000000
  0.307692  0.230769  0.250000     16.000000
  0.384615  0.230769  0.250000     16.000000
  0.461538  0.230769  0.250000     16.000000
  0.307692  0.307692  0.250000      8.000000
  0.384615  0.307692  0.250000     16.000000
  0.461538  0.307692  0.250000     16.000000
  0.384615  0.384615  0.250000      8.000000
  0.461538  0.384615  0.250000     16.000000
  0.461538  0.461538  0.250000      8.000000
  0.000000  0.000000  0.500000      1.000000
  0.076923  0.000000  0.500000      4.000000
  0.153846  0.000000  0.500000      4.000000
  0.230769  0.000000  0.500000      4.000000
  0.307692  0.000000  0.500000      4.000000
  0.384615  0.000000  0.500000      4.000000
  0.461538  0.000000  0.500000      4.000000
  0.076923  0.076923  0.500000      4.000000
  0.153846  0.076923  0.500000      8.000000
  0.230769  0.076923  0.500000      8.000000
  0.307692  0.076923  0.500000      8.000000
  0.384615  0.076923  0.500000      8.000000
  0.461538  0.076923  0.500000      8.000000
  0.153846  0.153846  0.500000      4.000000
  0.230769  0.153846  0.500000      8.000000
  0.307692  0.153846  0.500000      8.000000
  0.384615  0.153846  0.500000      8.000000
  0.461538  0.153846  0.500000      8.000000
  0.230769  0.230769  0.500000      4.000000
  0.307692  0.230769  0.500000      8.000000
  0.384615  0.230769  0.500000      8.000000
  0.461538  0.230769  0.500000      8.000000
  0.307692  0.307692  0.500000      4.000000
  0.384615  0.307692  0.500000      8.000000
  0.461538  0.307692  0.500000      8.000000
  0.384615  0.384615  0.500000      4.000000
  0.461538  0.384615  0.500000      8.000000
  0.461538  0.461538  0.500000      4.000000
 
 Following cartesian coordinates:
            Coordinates               Weight
  0.000000  0.000000  0.000000      1.000000
  0.021319  0.000000  0.000000      4.000000
  0.042637  0.000000  0.000000      4.000000
  0.063956  0.000000  0.000000      4.000000
  0.085275  0.000000  0.000000      4.000000
  0.106593  0.000000  0.000000      4.000000
  0.127912  0.000000  0.000000      4.000000
  0.021319  0.021319  0.000000      4.000000
  0.042637  0.021319  0.000000      8.000000
  0.063956  0.021319  0.000000      8.000000
  0.085275  0.021319  0.000000      8.000000
  0.106593  0.021319  0.000000      8.000000
  0.127912  0.021319  0.000000      8.000000
  0.042637  0.042637  0.000000      4.000000
  0.063956  0.042637  0.000000      8.000000
  0.085275  0.042637  0.000000      8.000000
  0.106593  0.042637  0.000000      8.000000
  0.127912  0.042637  0.000000      8.000000
  0.063956  0.063956  0.000000      4.000000
  0.085275  0.063956  0.000000      8.000000
  0.106593  0.063956  0.000000      8.000000
  0.127912  0.063956  0.000000      8.000000
  0.085275  0.085275  0.000000      4.000000
  0.106593  0.085275  0.000000      8.000000
  0.127912  0.085275  0.000000      8.000000
  0.106593  0.106593  0.000000      4.000000
  0.127912  0.106593  0.000000      8.000000
  0.127912  0.127912  0.000000      4.000000
  0.000000  0.000000  0.022922      2.000000
  0.021319  0.000000  0.022922      8.000000
  0.042637  0.000000  0.022922      8.000000
  0.063956  0.000000  0.022922      8.000000
  0.085275  0.000000  0.022922      8.000000
  0.106593  0.000000  0.022922      8.000000
  0.127912  0.000000  0.022922      8.000000
  0.021319  0.021319  0.022922      8.000000
  0.042637  0.021319  0.022922     16.000000
  0.063956  0.021319  0.022922     16.000000
  0.085275  0.021319  0.022922     16.000000
  0.106593  0.021319  0.022922     16.000000
  0.127912  0.021319  0.022922     16.000000
  0.042637  0.042637  0.022922      8.000000
  0.063956  0.042637  0.022922     16.000000
  0.085275  0.042637  0.022922     16.000000
  0.106593  0.042637  0.022922     16.000000
  0.127912  0.042637  0.022922     16.000000
  0.063956  0.063956  0.022922      8.000000
  0.085275  0.063956  0.022922     16.000000
  0.106593  0.063956  0.022922     16.000000
  0.127912  0.063956  0.022922     16.000000
  0.085275  0.085275  0.022922      8.000000
  0.106593  0.085275  0.022922     16.000000
  0.127912  0.085275  0.022922     16.000000
  0.106593  0.106593  0.022922      8.000000
  0.127912  0.106593  0.022922     16.000000
  0.127912  0.127912  0.022922      8.000000
  0.000000  0.000000  0.045843      1.000000
  0.021319  0.000000  0.045843      4.000000
  0.042637  0.000000  0.045843      4.000000
  0.063956  0.000000  0.045843      4.000000
  0.085275  0.000000  0.045843      4.000000
  0.106593  0.000000  0.045843      4.000000
  0.127912  0.000000  0.045843      4.000000
  0.021319  0.021319  0.045843      4.000000
  0.042637  0.021319  0.045843      8.000000
  0.063956  0.021319  0.045843      8.000000
  0.085275  0.021319  0.045843      8.000000
  0.106593  0.021319  0.045843      8.000000
  0.127912  0.021319  0.045843      8.000000
  0.042637  0.042637  0.045843      4.000000
  0.063956  0.042637  0.045843      8.000000
  0.085275  0.042637  0.045843      8.000000
  0.106593  0.042637  0.045843      8.000000
  0.127912  0.042637  0.045843      8.000000
  0.063956  0.063956  0.045843      4.000000
  0.085275  0.063956  0.045843      8.000000
  0.106593  0.063956  0.045843      8.000000
  0.127912  0.063956  0.045843      8.000000
  0.085275  0.085275  0.045843      4.000000
  0.106593  0.085275  0.045843      8.000000
  0.127912  0.085275  0.045843      8.000000
  0.106593  0.106593  0.045843      4.000000
  0.127912  0.106593  0.045843      8.000000
  0.127912  0.127912  0.045843      4.000000
 


--------------------------------------------------------------------------------------------------------




 Dimension of arrays:
   k-points           NKPTS =     84   k-points in BZ     NKDIM =     84   number of bands    NBANDS=     96
   number of dos      NEDOS =    301   number of ions     NIONS =     12
   non local maximal  LDIM  =      6   non local SUM 2l+1 LMDIM =     18
   total plane-waves  NPLWV =  65856
   max r-space proj   IRMAX =      1   max aug-charges    IRDMAX=  28286
   dimension x,y,z NGX =    28 NGY =   28 NGZ =   84
   dimension x,y,z NGXF=    56 NGYF=   56 NGZF=  168
   support grid    NGXF=    56 NGYF=   56 NGZF=  168
   ions per type =               9   3
   NGX,Y,Z   is equivalent  to a cutoff of  12.90, 12.90, 12.80 a.u.
   NGXF,Y,Z  is equivalent  to a cutoff of  25.80, 25.80, 25.61 a.u.

 SYSTEM =  unknown system                          
 POSCAR =  Fe9 Pt3                                 

 Startparameter for this run:
   NWRITE =      2    write-flag & timer
   PREC   = accura    normal or accurate (medium, high low for compatibility)
   ISTART =      0    job   : 0-new  1-cont  2-samecut
   ICHARG =      2    charge: 1-file 2-atom 10-const
   ISPIN  =      2    spin polarized calculation?
   LNONCOLLINEAR =      F non collinear calculations
   LSORBIT =      F    spin-orbit coupling
   INIWAV =      1    electr: 0-lowe 1-rand  2-diag
   LASPH  =      F    aspherical Exc in radial PAW
 Electronic Relaxation 1
   ENCUT  =  520.0 eV  38.22 Ry    6.18 a.u.   6.71  6.71 20.28*2*pi/ulx,y,z
   ENINI  =  520.0     initial cutoff
   ENAUG  =  578.3 eV  augmentation charge cutoff
   NELM   =    200;   NELMIN=  2; NELMDL=  0     # of ELM steps 
   EDIFF  = 0.1E-05   stopping-criterion for ELM
   LREAL  =      F    real-space projection
   NLSPLINE    = F    spline interpolate recip. space projectors
   LCOMPAT=      F    compatible to vasp.4.4
   GGA_COMPAT  = T    GGA compatible to vasp.4.4-vasp.4.6
   LMAXPAW     = -100 max onsite density
   LMAXMIX     =    2 max onsite mixed and CHGCAR
   VOSKOWN=      0    Vosko Wilk Nusair interpolation
   ROPT   =    0.00000   0.00000
 Ionic relaxation
   EDIFFG = -.1E-01   stopping-criterion for IOM
   NSW    =      0    number of steps for IOM
   NBLOCK =      1;   KBLOCK =      1    inner block; outer block 
   IBRION =     -1    ionic relax: 0-MD 1-quasi-New 2-CG
   NFREE  =      0    steps in history (QN), initial steepest desc. (CG)
   ISIF   =      4    stress and relaxation
   IWAVPR =     10    prediction:  0-non 1-charg 2-wave 3-comb
   ISYM   =      2    0-nonsym 1-usesym 2-fastsym
   LCORR  =      T    Harris-Foulkes like correction to forces

   POTIM  = 0.5000    time-step for ionic-motion
   TEIN   =    0.0    initial temperature
   TEBEG  =    0.0;   TEEND  =   0.0 temperature during run
   SMASS  =  -3.00    Nose mass-parameter (am)
   estimated Nose-frequenzy (Omega)   =  0.10E-29 period in steps = 0.13E+47 mass=  -0.298E-27a.u.
   SCALEE = 1.0000    scale energy and forces
   NPACO  =    256;   APACO  = 10.0  distance and # of slots for P.C.
   PSTRESS=    0.0 pullay stress

  Mass of Ions in am
   POMASS =  55.85195.08
  Ionic Valenz
   ZVAL   =  14.00 10.00
  Atomic Wigner-Seitz radii
   RWIGS  =  -1.00 -1.00
  virtual crystal weights 
   VCA    =   1.00  1.00
   NELECT =     156.0000    total number of electrons
   NUPDOWN=      -1.0000    fix difference up-down

 DOS related values:
   EMIN   =  10.00;   EMAX   =-10.00  energy-range for DOS
   EFERMI =   0.00;   METHOD = LEGACY      
   ISMEAR =    -5;   SIGMA  =   0.20  broadening in eV -4-tet -1-fermi 0-gaus

 Electronic relaxation 2 (details)
   IALGO  =     38    algorithm
   LDIAG  =      T    sub-space diagonalisation (order eigenvalues)
   LSUBROT=      F    optimize rotation matrix (better conditioning)
   TURBO    =      0    0=normal 1=particle mesh
   IRESTART =      0    0=no restart 2=restart with 2 vectors
   NREBOOT  =      0    no. of reboots
   NMIN     =      0    reboot dimension
   EREF     =   0.00    reference energy to select bands
   IMIX   =      4    mixing-type and parameters
     AMIX     =   0.40;   BMIX     =  1.00
     AMIX_MAG =   1.60;   BMIX_MAG =  1.00
     AMIN     =   0.10
     WC   =   100.;   INIMIX=   1;  MIXPRE=   1;  MAXMIX= -45

 Intra band minimization:
   WEIMIN = 0.0000     energy-eigenvalue tresh-hold
   EBREAK =  0.26E-08  absolut break condition
   DEPER  =   0.30     relativ break condition  

   TIME   =   0.40     timestep for ELM

  volume/ion in A,a.u.               =      11.83        79.86
  Fermi-wavevector in a.u.,A,eV,Ry     =   1.689223  3.192168 38.823863  2.853473
  Thomas-Fermi vector in A             =   2.771388
 
 Write flags
   LWAVE        =      F    write WAVECAR
   LDOWNSAMPLE  =      F    k-point downsampling of WAVECAR
   LCHARG       =      T    write CHGCAR
   LVTOT        =      F    write LOCPOT, total local potential
   LVHAR        =      F    write LOCPOT, Hartree potential only
   WRT_POTENTIAL= false  ! write potential to hdf5 file
   LELF         =      F    write electronic localiz. function (ELF)
   LORBIT       =     11    0 simple, 1 ext, 2 COOP (PROOUT), +10 PAW based schemes


 Dipole corrections
   LMONO      =      F    monopole corrections only (constant potential shift)
   LDIPOL     =      F    correct potential (dipole corrections)
   IDIPOL     =      0    1-x, 2-y, 3-z, 4-all directions 
   EPSILON    =  1.0000000 bulk dielectric constant
   LVACPOTAV  =      F  vacuum potentials using an averaging scheme for the charge density
   VACPOTFLAT =  0.1000000 required flatness to determine vacuum potential
 Exchange correlation treatment:
   GGA     = PE    functional components
   XC_C    = 1    coefficients multiplying the functional components
   LIBXC   =     F    Libxc                    
   VOSKOWN =     0    Vosko Wilk Nusair interpolation
   LHFCALC =     F    Hartree Fock is set to
   LHFONE  =     F    Hartree Fock one center treatment
   AEXX    =    0.0000 exact exchange contribution

 Parameters of functionals:
   PE:
     No parameter
 
 Van der Waals corrections
   IVDW    =     0    specifies the selected vdW correction

 Linear response parameters
   LEPSILON=     F    determine dielectric tensor
   LRPA    =     F    only Hartree local field effects (RPA)
   LNABLA  =     F    use nabla operator in PAW spheres
   LVEL    =     F    velocity operator in full k-point grid
   CSHIFT  =0.1000    complex shift for real part using Kramers Kronig
   OMEGAMAX=  -1.0    maximum frequency
   DEG_THRESHOLD= 0.2000000E-02 threshold for treating states as degnerate
   RTIME   =   -0.100 relaxation time in fs
  (WPLASMAI=    0.000 imaginary part of plasma frequency in eV, 0.658/RTIME)
   DFIELD  = 0.0000000 0.0000000 0.0000000 field for delta impulse in time
 
  Optional k-point grid parameters
   LKPOINTS_OPT  =     F    use optional k-point grid
   KPOINTS_OPT_MODE=     1    mode for optional k-point grid
 
 Orbital magnetization related:
   ORBITALMAG=     F  switch on orbital magnetization
   LCHIMAG   =     F  perturbation theory with respect to B field
   DQ        =  0.001000  dq finite difference perturbation B field
   LLRAUG    =     F  two centre corrections for induced B field
   LBONE     =     F  B-component reconstruction in AE one-centre
   LVGVCALC  =     T  calculate vGv susceptibility
   LVGVAPPL  =     F  apply vGv susceptibility instead of pGv for G=0

 Random number generation:
   RANDOM_GENERATOR = DEFAULT
   PCG_SEED         = not used


--------------------------------------------------------------------------------------------------------


 Static calculation
 charge density and potential will be updated during run
 spin polarized calculation
 Variant of blocked Davidson
 Davidson routine will perform the subspace rotation
 perform sub-space diagonalisation
    after iterative eigenvector-optimisation
 modified Broyden-mixing scheme, WC =      100.0
 initial mixing is a Kerker type mixing with AMIX =  0.4000 and BMIX =      1.0000
 Hartree-type preconditioning will be used
 using additional bands           18
 reciprocal scheme for non local part
 use partial core corrections
 calculate Harris-corrections to forces 
   (improved forces if not selfconsistent)
 use gradient corrections 
 use of overlap-Matrix (Vanderbilt PP)
 Fermi weights with tetrahedron method with Bloechl corrections


--------------------------------------------------------------------------------------------------------


  energy-cutoff  :      520.00
  volume of cell :      142.00
      direct lattice vectors                 reciprocal lattice vectors
     3.608246294  0.000000000  0.000000000     0.277142944  0.000000000  0.000000000
     0.000000000  3.608246294  0.000000000     0.000000000  0.277142944  0.000000000
     0.000000000  0.000000000 10.906766009     0.000000000  0.000000000  0.091686206

  length of vectors
     3.608246294  3.608246294 10.906766009     0.277142944  0.277142944  0.091686206


 
 k-points in units of 2pi/SCALE and weight: pymatgen with grid density = 8800 / numb
   0.00000000  0.00000000  0.00000000       0.001
   0.02131869  0.00000000  0.00000000       0.006
   0.04263738  0.00000000  0.00000000       0.006
   0.06395606  0.00000000  0.00000000       0.006
   0.08527475  0.00000000  0.00000000       0.006
   0.10659344  0.00000000  0.00000000       0.006
   0.12791213  0.00000000  0.00000000       0.006
   0.02131869  0.02131869  0.00000000       0.006
   0.04263738  0.02131869  0.00000000       0.012
   0.06395606  0.02131869  0.00000000       0.012
   0.08527475  0.02131869  0.00000000       0.012
   0.10659344  0.02131869  0.00000000       0.012
   0.12791213  0.02131869  0.00000000       0.012
   0.04263738  0.04263738  0.00000000       0.006
   0.06395606  0.04263738  0.00000000       0.012
   0.08527475  0.04263738  0.00000000       0.012
   0.10659344  0.04263738  0.00000000       0.012
   0.12791213  0.04263738  0.00000000       0.012
   0.06395606  0.06395606  0.00000000       0.006
   0.08527475  0.06395606  0.00000000       0.012
   0.10659344  0.06395606  0.00000000       0.012
   0.12791213  0.06395606  0.00000000       0.012
   0.08527475  0.08527475  0.00000000       0.006
   0.10659344  0.08527475  0.00000000       0.012
   0.12791213  0.08527475  0.00000000       0.012
   0.10659344  0.10659344  0.00000000       0.006
   0.12791213  0.10659344  0.00000000       0.012
   0.12791213  0.12791213  0.00000000       0.006
   0.00000000  0.00000000  0.02292155       0.003
   0.02131869  0.00000000  0.02292155       0.012
   0.04263738  0.00000000  0.02292155       0.012
   0.06395606  0.00000000  0.02292155       0.012
   0.08527475  0.00000000  0.02292155       0.012
   0.10659344  0.00000000  0.02292155       0.012
   0.12791213  0.00000000  0.02292155       0.012
   0.02131869  0.02131869  0.02292155       0.012
   0.04263738  0.02131869  0.02292155       0.024
   0.06395606  0.02131869  0.02292155       0.024
   0.08527475  0.02131869  0.02292155       0.024
   0.10659344  0.02131869  0.02292155       0.024
   0.12791213  0.02131869  0.02292155       0.024
   0.04263738  0.04263738  0.02292155       0.012
   0.06395606  0.04263738  0.02292155       0.024
   0.08527475  0.04263738  0.02292155       0.024
   0.10659344  0.04263738  0.02292155       0.024
   0.12791213  0.04263738  0.02292155       0.024
   0.06395606  0.06395606  0.02292155       0.012
   0.08527475  0.06395606  0.02292155       0.024
   0.10659344  0.06395606  0.02292155       0.024
   0.12791213  0.06395606  0.02292155       0.024
   0.08527475  0.08527475  0.02292155       0.012
   0.10659344  0.08527475  0.02292155       0.024
   0.12791213  0.08527475  0.02292155       0.024
   0.10659344  0.10659344  0.02292155       0.012
   0.12791213  0.10659344  0.02292155       0.024
   0.12791213  0.12791213  0.02292155       0.012
   0.00000000  0.00000000  0.04584310       0.001
   0.02131869  0.00000000  0.04584310       0.006
   0.04263738  0.00000000  0.04584310       0.006
   0.06395606  0.00000000  0.04584310       0.006
   0.08527475  0.00000000  0.04584310       0.006
   0.10659344  0.00000000  0.04584310       0.006
   0.12791213  0.00000000  0.04584310       0.006
   0.02131869  0.02131869  0.04584310       0.006
   0.04263738  0.02131869  0.04584310       0.012
   0.06395606  0.02131869  0.04584310       0.012
   0.08527475  0.02131869  0.04584310       0.012
   0.10659344  0.02131869  0.04584310       0.012
   0.12791213  0.02131869  0.04584310       0.012
   0.04263738  0.04263738  0.04584310       0.006
   0.06395606  0.04263738  0.04584310       0.012
   0.08527475  0.04263738  0.04584310       0.012
   0.10659344  0.04263738  0.04584310       0.012
   0.12791213  0.04263738  0.04584310       0.012
   0.06395606  0.06395606  0.04584310       0.006
   0.08527475  0.06395606  0.04584310       0.012
   0.10659344  0.06395606  0.04584310       0.012
   0.12791213  0.06395606  0.04584310       0.012
   0.08527475  0.08527475  0.04584310       0.006
   0.10659344  0.08527475  0.04584310       0.012
   0.12791213  0.08527475  0.04584310       0.012
   0.10659344  0.10659344  0.04584310       0.006
   0.12791213  0.10659344  0.04584310       0.012
   0.12791213  0.12791213  0.04584310       0.006
 
 k-points in reciprocal lattice and weights: pymatgen with grid density = 8800 / numb
   0.00000000  0.00000000  0.00000000       0.001
   0.07692308  0.00000000  0.00000000       0.006
   0.15384615  0.00000000  0.00000000       0.006
   0.23076923  0.00000000  0.00000000       0.006
   0.30769231  0.00000000  0.00000000       0.006
   0.38461538  0.00000000  0.00000000       0.006
   0.46153846  0.00000000  0.00000000       0.006
   0.07692308  0.07692308  0.00000000       0.006
   0.15384615  0.07692308  0.00000000       0.012
   0.23076923  0.07692308  0.00000000       0.012
   0.30769231  0.07692308  0.00000000       0.012
   0.38461538  0.07692308  0.00000000       0.012
   0.46153846  0.07692308  0.00000000       0.012
   0.15384615  0.15384615  0.00000000       0.006
   0.23076923  0.15384615  0.00000000       0.012
   0.30769231  0.15384615  0.00000000       0.012
   0.38461538  0.15384615  0.00000000       0.012
   0.46153846  0.15384615  0.00000000       0.012
   0.23076923  0.23076923  0.00000000       0.006
   0.30769231  0.23076923  0.00000000       0.012
   0.38461538  0.23076923  0.00000000       0.012
   0.46153846  0.23076923  0.00000000       0.012
   0.30769231  0.30769231  0.00000000       0.006
   0.38461538  0.30769231  0.00000000       0.012
   0.46153846  0.30769231  0.00000000       0.012
   0.38461538  0.38461538  0.00000000       0.006
   0.46153846  0.38461538  0.00000000       0.012
   0.46153846  0.46153846  0.00000000       0.006
   0.00000000  0.00000000  0.25000000       0.003
   0.07692308  0.00000000  0.25000000       0.012
   0.15384615  0.00000000  0.25000000       0.012
   0.23076923  0.00000000  0.25000000       0.012
   0.30769231  0.00000000  0.25000000       0.012
   0.38461538  0.00000000  0.25000000       0.012
   0.46153846  0.00000000  0.25000000       0.012
   0.07692308  0.07692308  0.25000000       0.012
   0.15384615  0.07692308  0.25000000       0.024
   0.23076923  0.07692308  0.25000000       0.024
   0.30769231  0.07692308  0.25000000       0.024
   0.38461538  0.07692308  0.25000000       0.024
   0.46153846  0.07692308  0.25000000       0.024
   0.15384615  0.15384615  0.25000000       0.012
   0.23076923  0.15384615  0.25000000       0.024
   0.30769231  0.15384615  0.25000000       0.024
   0.38461538  0.15384615  0.25000000       0.024
   0.46153846  0.15384615  0.25000000       0.024
   0.23076923  0.23076923  0.25000000       0.012
   0.30769231  0.23076923  0.25000000       0.024
   0.38461538  0.23076923  0.25000000       0.024
   0.46153846  0.23076923  0.25000000       0.024
   0.30769231  0.30769231  0.25000000       0.012
   0.38461538  0.30769231  0.25000000       0.024
   0.46153846  0.30769231  0.25000000       0.024
   0.38461538  0.38461538  0.25000000       0.012
   0.46153846  0.38461538  0.25000000       0.024
   0.46153846  0.46153846  0.25000000       0.012
   0.00000000  0.00000000  0.50000000       0.001
   0.07692308  0.00000000  0.50000000       0.006
   0.15384615  0.00000000  0.50000000       0.006
   0.23076923  0.00000000  0.50000000       0.006
   0.30769231  0.00000000  0.50000000       0.006
   0.38461538  0.00000000  0.50000000       0.006
   0.46153846  0.00000000  0.50000000       0.006
   0.07692308  0.07692308  0.50000000       0.006
   0.15384615  0.07692308  0.50000000       0.012
   0.23076923  0.07692308  0.50000000       0.012
   0.30769231  0.07692308  0.50000000       0.012
   0.38461538  0.07692308  0.50000000       0.012
   0.46153846  0.07692308  0.50000000       0.012
   0.15384615  0.15384615  0.50000000       0.006
   0.23076923  0.15384615  0.50000000       0.012
   0.30769231  0.15384615  0.50000000       0.012
   0.38461538  0.15384615  0.50000000       0.012
   0.46153846  0.15384615  0.50000000       0.012
   0.23076923  0.23076923  0.50000000       0.006
   0.30769231  0.23076923  0.50000000       0.012
   0.38461538  0.23076923  0.50000000       0.012
   0.46153846  0.23076923  0.50000000       0.012
   0.30769231  0.30769231  0.50000000       0.006
   0.38461538  0.30769231  0.50000000       0.012
   0.46153846  0.30769231  0.50000000       0.012
   0.38461538  0.38461538  0.50000000       0.006
   0.46153846  0.38461538  0.50000000       0.012
   0.46153846  0.46153846  0.50000000       0.006
 
 position of ions in fractional coordinates (direct lattice) 
   0.00000000  0.50000000  0.16663948
   0.00000000  0.50000000  0.49962555
   0.00000000  0.50000000  0.83373770
   0.50000000  0.50000000  0.00232471
   0.50000000  0.50000000  0.33093859
   0.50000000  0.50000000  0.66673407
   0.50000000  0.00000000  0.16663948
   0.50000000  0.00000000  0.49962555
   0.50000000  0.00000000  0.83373770
   0.00000000  0.00000000  0.99794885
   0.00000000  0.00000000  0.33536770
   0.00000000  0.00000000  0.66668064
 
 position of ions in cartesian coordinates  (Angst):
   0.00000000  1.80412315  1.81749776
   0.00000000  1.80412315  5.44929896
   0.00000000  1.80412315  9.09338198
   1.80412315  1.80412315  0.02535505
   1.80412315  1.80412315  3.60946977
   1.80412315  1.80412315  7.27191248
   1.80412315  0.00000000  1.81749776
   1.80412315  0.00000000  5.44929896
   1.80412315  0.00000000  9.09338198
   0.00000000  0.00000000 10.88439460
   0.00000000  0.00000000  3.65777698
   0.00000000  0.00000000  7.27132976
 


--------------------------------------------------------------------------------------------------------


 k-point     1 :   0.0000 0.0000 0.0000  plane waves:    3857
 k-point     2 :   0.0769 0.0000 0.0000  plane waves:    3855
 k-point     3 :   0.1538 0.0000 0.0000  plane waves:    3841
 k-point     4 :   0.2308 0.0000 0.0000  plane waves:    3833
 k-point     5 :   0.3077 0.0000 0.0000  plane waves:    3834
 k-point     6 :   0.3846 0.0000 0.0000  plane waves:    3818
 k-point     7 :   0.4615 0.0000 0.0000  plane waves:    3804
 k-point     8 :   0.0769 0.0769 0.0000  plane waves:    3847
 k-point     9 :   0.1538 0.0769 0.0000  plane waves:    3842
 k-point    10 :   0.2308 0.0769 0.0000  plane waves:    3833
 k-point    11 :   0.3077 0.0769 0.0000  plane waves:    3830
 k-point    12 :   0.3846 0.0769 0.0000  plane waves:    3822
 k-point    13 :   0.4615 0.0769 0.0000  plane waves:    3808
 k-point    14 :   0.1538 0.1538 0.0000  plane waves:    3827
 k-point    15 :   0.2308 0.1538 0.0000  plane waves:    3829
 k-point    16 :   0.3077 0.1538 0.0000  plane waves:    3811
 k-point    17 :   0.3846 0.1538 0.0000  plane waves:    3813
 k-point    18 :   0.4615 0.1538 0.0000  plane waves:    3803
 k-point    19 :   0.2308 0.2308 0.0000  plane waves:    3821
 k-point    20 :   0.3077 0.2308 0.0000  plane waves:    3819
 k-point    21 :   0.3846 0.2308 0.0000  plane waves:    3819
 k-point    22 :   0.4615 0.2308 0.0000  plane waves:    3818
 k-point    23 :   0.3077 0.3077 0.0000  plane waves:    3800
 k-point    24 :   0.3846 0.3077 0.0000  plane waves:    3805
 k-point    25 :   0.4615 0.3077 0.0000  plane waves:    3826
 k-point    26 :   0.3846 0.3846 0.0000  plane waves:    3830
 k-point    27 :   0.4615 0.3846 0.0000  plane waves:    3853
 k-point    28 :   0.4615 0.4615 0.0000  plane waves:    3840
 k-point    29 :   0.0000 0.0000 0.2500  plane waves:    3821
 k-point    30 :   0.0769 0.0000 0.2500  plane waves:    3836
 k-point    31 :   0.1538 0.0000 0.2500  plane waves:    3842
 k-point    32 :   0.2308 0.0000 0.2500  plane waves:    3844
 k-point    33 :   0.3077 0.0000 0.2500  plane waves:    3833
 k-point    34 :   0.3846 0.0000 0.2500  plane waves:    3814
 k-point    35 :   0.4615 0.0000 0.2500  plane waves:    3817
 k-point    36 :   0.0769 0.0769 0.2500  plane waves:    3840
 k-point    37 :   0.1538 0.0769 0.2500  plane waves:    3831
 k-point    38 :   0.2308 0.0769 0.2500  plane waves:    3833
 k-point    39 :   0.3077 0.0769 0.2500  plane waves:    3824
 k-point    40 :   0.3846 0.0769 0.2500  plane waves:    3814
 k-point    41 :   0.4615 0.0769 0.2500  plane waves:    3815
 k-point    42 :   0.1538 0.1538 0.2500  plane waves:    3833
 k-point    43 :   0.2308 0.1538 0.2500  plane waves:    3830
 k-point    44 :   0.3077 0.1538 0.2500  plane waves:    3815
 k-point    45 :   0.3846 0.1538 0.2500  plane waves:    3816
 k-point    46 :   0.4615 0.1538 0.2500  plane waves:    3822
 k-point    47 :   0.2308 0.2308 0.2500  plane waves:    3822
 k-point    48 :   0.3077 0.2308 0.2500  plane waves:    3814
 k-point    49 :   0.3846 0.2308 0.2500  plane waves:    3811
 k-point    50 :   0.4615 0.2308 0.2500  plane waves:    3808
 k-point    51 :   0.3077 0.3077 0.2500  plane waves:    3808
 k-point    52 :   0.3846 0.3077 0.2500  plane waves:    3820
 k-point    53 :   0.4615 0.3077 0.2500  plane waves:    3822
 k-point    54 :   0.3846 0.3846 0.2500  plane waves:    3830
 k-point    55 :   0.4615 0.3846 0.2500  plane waves:    3837
 k-point    56 :   0.4615 0.4615 0.2500  plane waves:    3829
 k-point    57 :   0.0000 0.0000 0.5000  plane waves:    3824
 k-point    58 :   0.0769 0.0000 0.5000  plane waves:    3824
 k-point    59 :   0.1538 0.0000 0.5000  plane waves:    3824
 k-point    60 :   0.2308 0.0000 0.5000  plane waves:    3834
 k-point    61 :   0.3077 0.0000 0.5000  plane waves:    3828
 k-point    62 :   0.3846 0.0000 0.5000  plane waves:    3810
 k-point    63 :   0.4615 0.0000 0.5000  plane waves:    3822
 k-point    64 :   0.0769 0.0769 0.5000  plane waves:    3826
 k-point    65 :   0.1538 0.0769 0.5000  plane waves:    3840
 k-point    66 :   0.2308 0.0769 0.5000  plane waves:    3834
 k-point    67 :   0.3077 0.0769 0.5000  plane waves:    3818
 k-point    68 :   0.3846 0.0769 0.5000  plane waves:    3814
 k-point    69 :   0.4615 0.0769 0.5000  plane waves:    3810
 k-point    70 :   0.1538 0.1538 0.5000  plane waves:    3844
 k-point    71 :   0.2308 0.1538 0.5000  plane waves:    3824
 k-point    72 :   0.3077 0.1538 0.5000  plane waves:    3800
 k-point    73 :   0.3846 0.1538 0.5000  plane waves:    3828
 k-point    74 :   0.4615 0.1538 0.5000  plane waves:    3820
 k-point    75 :   0.2308 0.2308 0.5000  plane waves:    3818
 k-point    76 :   0.3077 0.2308 0.5000  plane waves:    3822
 k-point    77 :   0.3846 0.2308 0.5000  plane waves:    3812
 k-point    78 :   0.4615 0.2308 0.5000  plane waves:    3816
 k-point    79 :   0.3077 0.3077 0.5000  plane waves:    3812
 k-point    80 :   0.3846 0.3077 0.5000  plane waves:    3830
 k-point    81 :   0.4615 0.3077 0.5000  plane waves:    3822
 k-point    82 :   0.3846 0.3846 0.5000  plane waves:    3830
 k-point    83 :   0.4615 0.3846 0.5000  plane waves:    3828
 k-point    84 :   0.4615 0.4615 0.5000  plane waves:    3834

 maximum and minimum number of plane-waves per node :      3857     3800

 maximum number of plane-waves:      3857
 maximum index in each direction: 
   IXMAX=    6   IYMAX=    6   IZMAX=   20
   IXMIN=   -7   IYMIN=   -7   IZMIN=  -20


 serial   3D FFT for wavefunctions
 parallel 3D FFT for charge:
    minimum data exchange during FFTs selected (reduces bandwidth)


 total amount of memory used by VASP MPI-rank0   165518. kBytes
=======================================================================

   base      :      30000. kBytes
   nonl-proj :      94414. kBytes
   fftplans  :        888. kBytes
   grid      :       6813. kBytes
   one-center:        373. kBytes
   wavefun   :      33030. kBytes
 
     INWAV:  cpu time      0.0001: real time      0.0002
 Broyden mixing: mesh for mixing (old mesh)
   NGX = 13   NGY = 13   NGZ = 41
  (NGX  = 56   NGY  = 56   NGZ  =168)
  gives a total of   6929 points

 initial charge density was supplied:
 charge density of overlapping atoms calculated
 number of electron     156.0000000 magnetization       1.9160000
 keeping initial charge density in first step


--------------------------------------------------------------------------------------------------------


 Maximum index for augmentation-charges         1097 (set IRDMAX)


--------------------------------------------------------------------------------------------------------


 First call to EWALD:  gamma=   0.340
 Maximum number of real-space cells 4x 4x 2
 Maximum number of reciprocal cells 2x 2x 5

    FEWALD:  cpu time      0.0021: real time      0.0021


--------------------------------------- Ionic step        1  -------------------------------------------




--------------------------------------- Iteration      1(   1)  ---------------------------------------


    POTLOK:  cpu time      0.0275: real time      0.0486
    SETDIJ:  cpu time      0.0062: real time      0.0062
     EDDAV:  cpu time      4.0955: real time      4.1268
 BZINTS: Fermi energy:   25.809765;  156.000000 electrons
         Band energy: 0.672777E+03;  BLOECHL correction:   -0.092807
       DOS:  cpu time      0.0981: real time      0.0998
    --------------------------------------------
      LOOP:  cpu time      4.2274: real time      4.2814

 eigenvalue-minimisations  : 32256
 total energy-change (2. order) : 0.1737834E+04  (-0.9129636E+04)
 number of electron     156.0000000 magnetization       1.9160000
 augmentation part      156.0000000 magnetization       1.9160000

 Free energy of the ion-electron system (eV)
  ---------------------------------------------------
  alpha Z        PSCENC =      1198.52203918
  Ewald energy   TEWEN  =    -18667.47859193
  -Hartree energ DENC   =     -5705.75604109
  -exchange      EXHF   =         0.00000000
  -V(xc)+E(xc)   XCENC  =       659.75431157
  PAW double counting   =     20095.68276335   -20819.77068988
  entropy T*S    EENTRO =         0.00000000
  eigenvalues    EBANDS =       672.77686070
  atomic energy  EATOM  =     24304.10294433
  Solvation  Ediel_sol  =         0.00000000
  ---------------------------------------------------
  free energy    TOTEN  =      1737.83359622 eV

  energy without entropy =     1737.83359622  energy(sigma->0) =     1737.83359622


--------------------------------------------------------------------------------------------------------




--------------------------------------- Iteration      1(   2)  ---------------------------------------


     EDDAV:  cpu time      4.2044: real time      4.2457
 BZINTS: Fermi energy:   13.922079;  156.000000 electrons
         Band energy:-0.105777E+04;  BLOECHL correction:   -0.037225
       DOS:  cpu time      0.1025: real time      0.1033
    --------------------------------------------
      LOOP:  cpu time      4.3069: real time      4.3490

 eigenvalue-minimisations  : 32416
 total energy-change (2. order) :-0.1730545E+04  (-0.1698827E+04)
 number of electron     156.0000000 magnetization       1.9160000
 augmentation part      156.0000000 magnetization       1.9160000

 Free energy of the ion-electron system (eV)
  ---------------------------------------------------
  alpha Z        PSCENC =      1198.52203918
  Ewald energy   TEWEN  =    -18667.47859193
  -Hartree energ DENC   =     -5705.75604109
  -exchange      EXHF   =         0.00000000
  -V(xc)+E(xc)   XCENC  =       659.75431157
  PAW double counting   =     20095.68276335   -20819.77068988
  entropy T*S    EENTRO =         0.00000000
  eigenvalues    EBANDS =     -1057.76858720
  atomic energy  EATOM  =     24304.10294433
  Solvation  Ediel_sol  =         0.00000000
  ---------------------------------------------------
  free energy    TOTEN  =         7.28814832 eV

  energy without entropy =        7.28814832  energy(sigma->0) =        7.28814832


--------------------------------------------------------------------------------------------------------




--------------------------------------- Iteration      1(   3)  ---------------------------------------


     EDDAV:  cpu time      4.9885: real time      5.0363
 BZINTS: Fermi energy:   13.059866;  156.000000 electrons
         Band energy:-0.116776E+04;  BLOECHL correction:   -0.033861
       DOS:  cpu time      0.1011: real time      0.1019
    --------------------------------------------
      LOOP:  cpu time      5.0896: real time      5.1382

 eigenvalue-minimisations  : 38976
 total energy-change (2. order) :-0.1099899E+03  (-0.1088804E+03)
 number of electron     156.0000000 magnetization       1.9160000
 augmentation part      156.0000000 magnetization       1.9160000

 Free energy of the ion-electron system (eV)
  ---------------------------------------------------
  alpha Z        PSCENC =      1198.52203918
  Ewald energy   TEWEN  =    -18667.47859193
  -Hartree energ DENC   =     -5705.75604109
  -exchange      EXHF   =         0.00000000
  -V(xc)+E(xc)   XCENC  =       659.75431157
  PAW double counting   =     20095.68276335   -20819.77068988
  entropy T*S    EENTRO =         0.00000000
  eigenvalues    EBANDS =     -1167.75850173
  atomic energy  EATOM  =     24304.10294433
  Solvation  Ediel_sol  =         0.00000000
  ---------------------------------------------------
  free energy    TOTEN  =      -102.70176621 eV

  energy without entropy =     -102.70176621  energy(sigma->0) =     -102.70176621


--------------------------------------------------------------------------------------------------------




--------------------------------------- Iteration      1(   4)  ---------------------------------------


     EDDAV:  cpu time      4.3090: real time      4.3400
 BZINTS: Fermi energy:   13.050536;  156.000000 electrons
         Band energy:-0.116993E+04;  BLOECHL correction:   -0.033484
       DOS:  cpu time      0.1000: real time      0.1007
    --------------------------------------------
      LOOP:  cpu time      4.4091: real time      4.4407

 eigenvalue-minimisations  : 32896
 total energy-change (2. order) :-0.2171378E+01  (-0.2169960E+01)
 number of electron     156.0000000 magnetization       1.9160000
 augmentation part      156.0000000 magnetization       1.9160000

 Free energy of the ion-electron system (eV)
  ---------------------------------------------------
  alpha Z        PSCENC =      1198.52203918
  Ewald energy   TEWEN  =    -18667.47859193
  -Hartree energ DENC   =     -5705.75604109
  -exchange      EXHF   =         0.00000000
  -V(xc)+E(xc)   XCENC  =       659.75431157
  PAW double counting   =     20095.68276335   -20819.77068988
  entropy T*S    EENTRO =         0.00000000
  eigenvalues    EBANDS =     -1169.92987967
  atomic energy  EATOM  =     24304.10294433
  Solvation  Ediel_sol  =         0.00000000
  ---------------------------------------------------
  free energy    TOTEN  =      -104.87314415 eV

  energy without entropy =     -104.87314415  energy(sigma->0) =     -104.87314415


--------------------------------------------------------------------------------------------------------




--------------------------------------- Iteration      1(   5)  ---------------------------------------


     EDDAV:  cpu time      5.4329: real time      5.4729
 BZINTS: Fermi energy:   13.050395;  156.000000 electrons
         Band energy:-0.116998E+04;  BLOECHL correction:   -0.033462
       DOS:  cpu time      0.1003: real time      0.1010
    CHARGE:  cpu time      0.1543: real time      0.1553
    MIXING:  cpu time      0.0062: real time      0.0069
    --------------------------------------------
      LOOP:  cpu time      5.6937: real time      5.7362

 eigenvalue-minimisations  : 41088
 total energy-change (2. order) :-0.4694588E-01  (-0.4695106E-01)
 number of electron     155.9999737 magnetization       1.7329492
 augmentation part       79.2652171 magnetization       1.3524413

 Broyden mixing:
  rms(total) = 0.42689E+01    rms(broyden)= 0.42684E+01
  rms(prec ) = 0.47213E+01
  weight for this iteration     100.00

 Free energy of the ion-electron system (eV)
  ---------------------------------------------------
  alpha Z        PSCENC =      1198.52203918
  Ewald energy   TEWEN  =    -18667.47859193
  -Hartree energ DENC   =     -5705.75604109
  -exchange      EXHF   =         0.00000000
  -V(xc)+E(xc)   XCENC  =       659.75431157
  PAW double counting   =     20095.68276335   -20819.77068988
  entropy T*S    EENTRO =         0.00000000
  eigenvalues    EBANDS =     -1169.97682555
  atomic energy  EATOM  =     24304.10294433
  Solvation  Ediel_sol  =         0.00000000
  ---------------------------------------------------
  free energy    TOTEN  =      -104.92009003 eV

  energy without entropy =     -104.92009003  energy(sigma->0) =     -104.92009003


--------------------------------------------------------------------------------------------------------




--------------------------------------- Iteration      1(   6)  ---------------------------------------


    POTLOK:  cpu time      0.0434: real time      0.0443
    SETDIJ:  cpu time      0.0082: real time      0.0082
     EDDAV:  cpu time      4.8267: real time      4.8604
 BZINTS: Fermi energy:   10.381888;  156.000000 electrons
         Band energy:-0.156795E+04;  BLOECHL correction:   -0.031247
       DOS:  cpu time      0.1071: real time      0.1078
    CHARGE:  cpu time      0.1463: real time      0.1472
    MIXING:  cpu time      0.0043: real time      0.0044
    --------------------------------------------
      LOOP:  cpu time      5.1359: real time      5.1723

 eigenvalue-minimisations  : 36576
 total energy-change (2. order) :-0.3610641E+00  (-0.1921287E+02)
 number of electron     155.9999716 magnetization       1.7723382
 augmentation part       87.6501593 magnetization       1.4105169

 Broyden mixing:
  rms(total) = 0.52792E+01    rms(broyden)= 0.52790E+01
  rms(prec ) = 0.69529E+01
  weight for this iteration     100.00

 eigenvalues of (default mixing * dielectric matrix)
  average eigenvalue GAMMA=   0.3505
  0.3505

 Free energy of the ion-electron system (eV)
  ---------------------------------------------------
  alpha Z        PSCENC =      1198.52203918
  Ewald energy   TEWEN  =    -18667.47859193
  -Hartree energ DENC   =     -5311.38408320
  -exchange      EXHF   =         0.00000000
  -V(xc)+E(xc)   XCENC  =       642.30786310
  PAW double counting   =     20773.54637400   -21476.94514668
  entropy T*S    EENTRO =         0.00000000
  eigenvalues    EBANDS =     -1567.95255290
  atomic energy  EATOM  =     24304.10294433
  Solvation  Ediel_sol  =         0.00000000
  ---------------------------------------------------
  free energy    TOTEN  =      -105.28115410 eV

  energy without entropy =     -105.28115410  energy(sigma->0) =     -105.28115410


--------------------------------------------------------------------------------------------------------




--------------------------------------- Iteration      1(   7)  ---------------------------------------


    POTLOK:  cpu time      0.0438: real time      0.0446
    SETDIJ:  cpu time      0.0080: real time      0.0081
     EDDAV:  cpu time      5.4690: real time      5.5058
 BZINTS: Fermi energy:   11.548271;  156.000000 electrons
         Band energy:-0.146887E+04;  BLOECHL correction:   -0.037750
       DOS:  cpu time      0.1071: real time      0.1078
    CHARGE:  cpu time      0.1475: real time      0.1483
    MIXING:  cpu time      0.0029: real time      0.0030
    --------------------------------------------
      LOOP:  cpu time      5.7784: real time      5.8175

 eigenvalue-minimisations  : 42944
 total energy-change (2. order) :-0.1448487E+02  (-0.4779875E+02)
 number of electron     155.9999715 magnetization       2.0757065
 augmentation part       84.9635031 magnetization       1.1151204

 Broyden mixing:
  rms(total) = 0.67149E+01    rms(broyden)= 0.67146E+01
  rms(prec ) = 0.89406E+01
  weight for this iteration     100.00

 eigenvalues of (default mixing * dielectric matrix)
  average eigenvalue GAMMA=   0.4177
  0.6854  0.1501

 Free energy of the ion-electron system (eV)
  ---------------------------------------------------
  alpha Z        PSCENC =      1198.52203918
  Ewald energy   TEWEN  =    -18667.47859193
  -Hartree energ DENC   =     -5406.82260974
  -exchange      EXHF   =         0.00000000
  -V(xc)+E(xc)   XCENC  =       645.17618549
  PAW double counting   =     21218.57570891   -21942.97538028
  entropy T*S    EENTRO =         0.00000000
  eigenvalues    EBANDS =     -1468.86631725
  atomic energy  EATOM  =     24304.10294433
  Solvation  Ediel_sol  =         0.00000000
  ---------------------------------------------------
  free energy    TOTEN  =      -119.76602129 eV

  energy without entropy =     -119.76602129  energy(sigma->0) =     -119.76602129


--------------------------------------------------------------------------------------------------------




--------------------------------------- Iteration      1(   8)  ---------------------------------------


    POTLOK:  cpu time      0.0314: real time      0.0441
    SETDIJ:  cpu time      0.0077: real time      0.0078
     EDDAV:  cpu time      5.6977: real time      5.7344
 BZINTS: Fermi energy:   11.712168;  156.000000 electrons
         Band energy:-0.137114E+04;  BLOECHL correction:   -0.023251
       DOS:  cpu time      0.1071: real time      0.1077
    CHARGE:  cpu time      0.1484: real time      0.1492
    MIXING:  cpu time      0.0017: real time      0.0017
    --------------------------------------------
      LOOP:  cpu time      5.9941: real time      6.0448

 eigenvalue-minimisations  : 42880
 total energy-change (2. order) : 0.2541565E+02  (-0.6770010E+01)
 number of electron     155.9999729 magnetization       2.3401933
 augmentation part       83.1526947 magnetization       1.8753957

 Broyden mixing:
  rms(total) = 0.18752E+01    rms(broyden)= 0.18745E+01
  rms(prec ) = 0.22317E+01
  weight for this iteration     100.00

 eigenvalues of (default mixing * dielectric matrix)
  average eigenvalue GAMMA=   0.6106
  1.3035  0.3815  0.1468

 Free energy of the ion-electron system (eV)
  ---------------------------------------------------
  alpha Z        PSCENC =      1198.52203918
  Ewald energy   TEWEN  =    -18667.47859193
  -Hartree energ DENC   =     -5460.46436893
  -exchange      EXHF   =         0.00000000
  -V(xc)+E(xc)   XCENC  =       646.69109489
  PAW double counting   =     21764.56710281   -22509.15557592
  entropy T*S    EENTRO =         0.00000000
  eigenvalues    EBANDS =     -1371.13501480
  atomic energy  EATOM  =     24304.10294433
  Solvation  Ediel_sol  =         0.00000000
  ---------------------------------------------------
  free energy    TOTEN  =       -94.35037038 eV

  energy without entropy =      -94.35037038  energy(sigma->0) =      -94.35037038


--------------------------------------------------------------------------------------------------------




--------------------------------------- Iteration      1(   9)  ---------------------------------------


    POTLOK:  cpu time      0.0310: real time      0.0443
    SETDIJ:  cpu time      0.0081: real time      0.0082
     EDDAV:  cpu time      5.1468: real time      5.1810
 BZINTS: Fermi energy:   11.164199;  156.000000 electrons
         Band energy:-0.143502E+04;  BLOECHL correction:   -0.030823
       DOS:  cpu time      0.1075: real time      0.1082
    CHARGE:  cpu time      0.1479: real time      0.1487
    MIXING:  cpu time      0.0019: real time      0.0020
    --------------------------------------------
      LOOP:  cpu time      5.4433: real time      5.4923

 eigenvalue-minimisations  : 39520
 total energy-change (2. order) : 0.7150402E+00  (-0.2679756E+01)
 number of electron     155.9999724 magnetization       2.3406111
 augmentation part       84.3732496 magnetization       1.8304566

 Broyden mixing:
  rms(total) = 0.20136E+01    rms(broyden)= 0.20134E+01
  rms(prec ) = 0.28473E+01
  weight for this iteration     100.00

 eigenvalues of (default mixing * dielectric matrix)
  average eigenvalue GAMMA=   0.5118
  1.2936  0.1412  0.3062  0.3062

 Free energy of the ion-electron system (eV)
  ---------------------------------------------------
  alpha Z        PSCENC =      1198.52203918
  Ewald energy   TEWEN  =    -18667.47859193
  -Hartree energ DENC   =     -5388.65061334
  -exchange      EXHF   =         0.00000000
  -V(xc)+E(xc)   XCENC  =       644.10767478
  PAW double counting   =     22162.04464088   -22911.25983413
  entropy T*S    EENTRO =         0.00000000
  eigenvalues    EBANDS =     -1435.02358996
  atomic energy  EATOM  =     24304.10294433
  Solvation  Ediel_sol  =         0.00000000
  ---------------------------------------------------
  free energy    TOTEN  =       -93.63533020 eV

  energy without entropy =      -93.63533020  energy(sigma->0) =      -93.63533020


--------------------------------------------------------------------------------------------------------




--------------------------------------- Iteration      1(  10)  ---------------------------------------


    POTLOK:  cpu time      0.0432: real time      0.0443
    SETDIJ:  cpu time      0.0076: real time      0.0077
     EDDAV:  cpu time      5.7283: real time      5.7663
 BZINTS: Fermi energy:   11.152601;  156.000000 electrons
         Band energy:-0.143797E+04;  BLOECHL correction:   -0.029849
       DOS:  cpu time      0.1069: real time      0.1076
    CHARGE:  cpu time      0.1482: real time      0.1493
    MIXING:  cpu time      0.0018: real time      0.0018
    --------------------------------------------
      LOOP:  cpu time      6.0360: real time      6.0769

 eigenvalue-minimisations  : 43872
 total energy-change (2. order) : 0.3628746E+00  (-0.2375628E+01)
 number of electron     155.9999721 magnetization       2.3427938
 augmentation part       84.4661240 magnetization       1.9341750

 Broyden mixing:
  rms(total) = 0.17487E+01    rms(broyden)= 0.17485E+01
  rms(prec ) = 0.25486E+01
  weight for this iteration     100.00

 eigenvalues of (default mixing * dielectric matrix)
  average eigenvalue GAMMA=   0.4767
  1.2522  0.4417  0.4417  0.1434  0.1043

 Free energy of the ion-electron system (eV)
  ---------------------------------------------------
  alpha Z        PSCENC =      1198.52203918
  Ewald energy   TEWEN  =    -18667.47859193
  -Hartree energ DENC   =     -5384.56520151
  -exchange      EXHF   =         0.00000000
  -V(xc)+E(xc)   XCENC  =       644.05159321
  PAW double counting   =     22192.27816607   -22942.21220398
  entropy T*S    EENTRO =         0.00000000
  eigenvalues    EBANDS =     -1437.97120100
  atomic energy  EATOM  =     24304.10294433
  Solvation  Ediel_sol  =         0.00000000
  ---------------------------------------------------
  free energy    TOTEN  =       -93.27245563 eV

  energy without entropy =      -93.27245563  energy(sigma->0) =      -93.27245563


--------------------------------------------------------------------------------------------------------




--------------------------------------- Iteration      1(  11)  ---------------------------------------


    POTLOK:  cpu time      0.0435: real time      0.0445
    SETDIJ:  cpu time      0.0083: real time      0.0084
     EDDAV:  cpu time      6.0512: real time      6.0911
 BZINTS: Fermi energy:   11.153563;  156.000000 electrons
         Band energy:-0.143819E+04;  BLOECHL correction:   -0.028351
       DOS:  cpu time      0.1072: real time      0.1080
    CHARGE:  cpu time      0.1479: real time      0.1486
    MIXING:  cpu time      0.0020: real time      0.0020
    --------------------------------------------
      LOOP:  cpu time      6.3601: real time      6.4026

 eigenvalue-minimisations  : 45376
 total energy-change (2. order) : 0.1437937E+00  (-0.1649187E+01)
 number of electron     155.9999726 magnetization       2.3385935
 augmentation part       84.4617430 magnetization       1.8249500

 Broyden mixing:
  rms(total) = 0.13953E+01    rms(broyden)= 0.13952E+01
  rms(prec ) = 0.22584E+01
  weight for this iteration     100.00

 eigenvalues of (default mixing * dielectric matrix)
  average eigenvalue GAMMA=   0.4352
  1.2431  0.4698  0.4698  0.1948  0.1422  0.0918

 Free energy of the ion-electron system (eV)
  ---------------------------------------------------
  alpha Z        PSCENC =      1198.52203918
  Ewald energy   TEWEN  =    -18667.47859193
  -Hartree energ DENC   =     -5382.36546598
  -exchange      EXHF   =         0.00000000
  -V(xc)+E(xc)   XCENC  =       644.26995339
  PAW double counting   =     22250.82006070   -23002.80832991
  entropy T*S    EENTRO =         0.00000000
  eigenvalues    EBANDS =     -1438.19127168
  atomic energy  EATOM  =     24304.10294433
  Solvation  Ediel_sol  =         0.00000000
  ---------------------------------------------------
  free energy    TOTEN  =       -93.12866191 eV

  energy without entropy =      -93.12866191  energy(sigma->0) =      -93.12866191


--------------------------------------------------------------------------------------------------------




--------------------------------------- Iteration      1(  12)  ---------------------------------------


    POTLOK:  cpu time      0.0433: real time      0.0442
    SETDIJ:  cpu time      0.0081: real time      0.0082
     EDDAV:  cpu time      5.7291: real time      5.7667
 BZINTS: Fermi energy:   11.133203;  156.000000 electrons
         Band energy:-0.143886E+04;  BLOECHL correction:   -0.033149
       DOS:  cpu time      0.1068: real time      0.1080
    CHARGE:  cpu time      0.1478: real time      0.1486
    MIXING:  cpu time      0.0020: real time      0.0020
    --------------------------------------------
      LOOP:  cpu time      6.0370: real time      6.0776

 eigenvalue-minimisations  : 44544
 total energy-change (2. order) : 0.5260613E+00  (-0.9252692E+00)
 number of electron     155.9999726 magnetization       2.3657584
 augmentation part       84.4959252 magnetization       1.9043776

 Broyden mixing:
  rms(total) = 0.66464E+00    rms(broyden)= 0.66438E+00
  rms(prec ) = 0.86472E+00
  weight for this iteration     100.00

 eigenvalues of (default mixing * dielectric matrix)
  average eigenvalue GAMMA=   0.4631
  1.1942  0.6866  0.6866  0.3514  0.1437  0.1065  0.0726

 Free energy of the ion-electron system (eV)
  ---------------------------------------------------
  alpha Z        PSCENC =      1198.52203918
  Ewald energy   TEWEN  =    -18667.47859193
  -Hartree energ DENC   =     -5380.43561573
  -exchange      EXHF   =         0.00000000
  -V(xc)+E(xc)   XCENC  =       644.33233541
  PAW double counting   =     22277.81126423   -23030.60181929
  entropy T*S    EENTRO =         0.00000000
  eigenvalues    EBANDS =     -1438.85515677
  atomic energy  EATOM  =     24304.10294433
  Solvation  Ediel_sol  =         0.00000000
  ---------------------------------------------------
  free energy    TOTEN  =       -92.60260057 eV

  energy without entropy =      -92.60260057  energy(sigma->0) =      -92.60260057


--------------------------------------------------------------------------------------------------------




--------------------------------------- Iteration      1(  13)  ---------------------------------------


    POTLOK:  cpu time      0.0324: real time      0.0447
    SETDIJ:  cpu time      0.0081: real time      0.0082
     EDDAV:  cpu time      5.7838: real time      5.8218
 BZINTS: Fermi energy:   11.102386;  156.000000 electrons
         Band energy:-0.144234E+04;  BLOECHL correction:   -0.033022
       DOS:  cpu time      0.1074: real time      0.1083
    CHARGE:  cpu time      0.1480: real time      0.1488
    MIXING:  cpu time      0.0020: real time      0.0020
    --------------------------------------------
      LOOP:  cpu time      6.0818: real time      6.1338

 eigenvalue-minimisations  : 43488
 total energy-change (2. order) :-0.1964336E+00  (-0.2331687E+00)
 number of electron     155.9999727 magnetization       2.3794507
 augmentation part       84.6008907 magnetization       1.7769051

 Broyden mixing:
  rms(total) = 0.79234E+00    rms(broyden)= 0.79227E+00
  rms(prec ) = 0.11780E+01
  weight for this iteration     100.00

 eigenvalues of (default mixing * dielectric matrix)
  average eigenvalue GAMMA=   0.4439
  1.1670  0.7693  0.7693  0.3459  0.1615  0.1402  0.1166  0.0814

 Free energy of the ion-electron system (eV)
  ---------------------------------------------------
  alpha Z        PSCENC =      1198.52203918
  Ewald energy   TEWEN  =    -18667.47859193
  -Hartree energ DENC   =     -5375.66366213
  -exchange      EXHF   =         0.00000000
  -V(xc)+E(xc)   XCENC  =       644.54279540
  PAW double counting   =     22341.06667682   -23095.55117325
  entropy T*S    EENTRO =         0.00000000
  eigenvalues    EBANDS =     -1442.34006264
  atomic energy  EATOM  =     24304.10294433
  Solvation  Ediel_sol  =         0.00000000
  ---------------------------------------------------
  free energy    TOTEN  =       -92.79903422 eV

  energy without entropy =      -92.79903422  energy(sigma->0) =      -92.79903422


--------------------------------------------------------------------------------------------------------




--------------------------------------- Iteration      1(  14)  ---------------------------------------


    POTLOK:  cpu time      0.0323: real time      0.0444
    SETDIJ:  cpu time      0.0076: real time      0.0077
     EDDAV:  cpu time      5.7564: real time      5.7941
[...]
     81      11.6050      0.00000
     82      11.6610      0.00000
     83      11.7237      0.00000
     84      11.7750      0.00000
     85      11.9274      0.00000
     86      12.0273      0.00000
     87      12.0796      0.00000
     88      12.4862      0.00000
     89      12.5683      0.00000
     90      12.6990      0.00000
     91      12.7827      0.00000
     92      12.7950      0.00000
     93      13.0570      0.00000
     94      13.4376      0.00000
     95      13.5437      0.00000
     96      13.7948      0.00000


--------------------------------------------------------------------------------------------------------


 soft charge-density along one line, spin component           1
         0         1         2         3         4         5         6         7         8         9
 total charge-density along one line
 
 soft charge-density along one line, spin component           2
         0         1         2         3         4         5         6         7         8         9
 total charge-density along one line
 
 pseudopotential strength for first ion, spin component:           1
-41.890  -0.000   0.000   6.323   0.000  -0.000  -0.000   0.000
 -0.000 -41.884   0.000   0.000   6.321  -0.000  -0.000   0.000
  0.000   0.000 -41.830  -0.000  -0.000   6.298   0.000  -0.000
  6.323   0.000  -0.000   5.969   0.000  -0.000   0.000  -0.000
  0.000   6.321  -0.000   0.000   5.969  -0.000   0.000  -0.000
 -0.000  -0.000   6.298  -0.000  -0.000   5.974  -0.000   0.000
 -0.000  -0.000   0.000   0.000   0.000  -0.000   0.395   0.000
  0.000   0.000  -0.000  -0.000  -0.000   0.000   0.000   0.422
 -0.000   0.000   0.000   0.000  -0.000  -0.000  -0.000  -0.000
 -0.000  -0.000   0.000   0.000  -0.000  -0.000  -0.000   0.000
 -0.000  -0.000  -0.000   0.000   0.000   0.000   0.000   0.000
 -0.000  -0.000   0.000   0.000   0.000  -0.000  -0.159   0.000
  0.000   0.000  -0.000  -0.000  -0.000   0.000   0.000  -0.132
 -0.000   0.000   0.000   0.000  -0.000  -0.000  -0.000  -0.000
 -0.000  -0.000   0.000   0.000   0.000  -0.000  -0.000   0.000
 -0.000  -0.000  -0.000   0.000   0.000   0.000   0.000   0.000
 -0.000  -0.000   0.000  -0.000  -0.000   0.000  -0.000   0.000
 -0.000  -0.000   0.000  -0.000  -0.000   0.000  -0.000   0.000
 pseudopotential strength for first ion, spin component:           2
-43.906  -0.000   0.000   7.174   0.000  -0.000  -0.000   0.000
 -0.000 -43.893   0.000   0.000   7.168  -0.000  -0.000   0.000
  0.000   0.000 -43.767  -0.000  -0.000   7.118   0.000  -0.000
  7.174   0.000  -0.000   5.735   0.000  -0.000  -0.000  -0.000
  0.000   7.168  -0.000   0.000   5.736  -0.000   0.000  -0.000
 -0.000  -0.000   7.118  -0.000  -0.000   5.745  -0.000   0.000
 -0.000  -0.000   0.000  -0.000   0.000  -0.000  -1.146   0.000
  0.000   0.000  -0.000  -0.000  -0.000   0.000   0.000  -1.303
 -0.000   0.000   0.000   0.000  -0.000  -0.000  -0.000  -0.000
 -0.000  -0.000   0.000   0.000  -0.000  -0.000  -0.000   0.000
 -0.000  -0.000  -0.000   0.000   0.000   0.000   0.000   0.000
 -0.000  -0.000   0.000   0.000   0.000  -0.000  -1.674   0.000
  0.000   0.000  -0.000  -0.000  -0.000   0.000   0.000  -1.829
 -0.000   0.000   0.000   0.000  -0.000  -0.000  -0.000  -0.000
 -0.000  -0.000   0.000   0.000   0.000  -0.000  -0.000   0.000
 -0.000  -0.000  -0.000   0.000   0.000   0.000   0.000   0.000
 -0.000  -0.000   0.000  -0.000  -0.000   0.000  -0.000   0.000
 -0.000  -0.000   0.000  -0.000  -0.000  -0.000  -0.000   0.000
 total augmentation occupancy for first ion, spin component:           1
  1.992   0.000   0.000  -0.024   0.000   0.000   0.000   0.000   0.000   0.000   0.000   0.000  -0.000   0.000  -0.000   0.000
  0.000   1.992   0.000   0.000  -0.024   0.000   0.000   0.000   0.000   0.000  -0.000   0.000   0.000  -0.000  -0.000   0.000
  0.000   0.000   1.992   0.000   0.000  -0.024  -0.000   0.000   0.000   0.000  -0.000   0.000   0.000  -0.000  -0.000  -0.000
 -0.024   0.000   0.000   0.203   0.000   0.000   0.000   0.000   0.000   0.000   0.000  -0.000  -0.000   0.000  -0.000   0.000
  0.000  -0.024   0.000   0.000   0.205   0.000   0.000   0.000   0.000   0.000  -0.000   0.000   0.000  -0.000   0.000   0.000
  0.000   0.000  -0.024   0.000   0.000   0.194  -0.000   0.000   0.000   0.000   0.000   0.000   0.000   0.000  -0.000  -0.000
  0.000   0.000  -0.000   0.000   0.000  -0.000   2.611   0.000  -0.000   0.000   0.000  -1.582   0.000   0.000   0.000   0.000
  0.000   0.000   0.000   0.000   0.000   0.000   0.000   3.148   0.000   0.000   0.000   0.000  -2.373  -0.000   0.000   0.000
  0.000   0.000   0.000   0.000   0.000   0.000  -0.000   0.000   3.297   0.000   0.200   0.000   0.000  -2.048  -0.000  -0.072
  0.000   0.000   0.000   0.000   0.000   0.000   0.000   0.000   0.000   2.797   0.000   0.000   0.000   0.000  -1.706  -0.000
  0.000  -0.000  -0.000   0.000  -0.000   0.000   0.000   0.000   0.200   0.000   3.250   0.000   0.000  -0.073   0.000  -2.052
  0.000   0.000   0.000  -0.000   0.000   0.000  -1.582   0.000   0.000   0.000   0.000   1.948  -0.000   0.000   0.000   0.000
 -0.000   0.000   0.000  -0.000   0.000   0.000   0.000  -2.373   0.000   0.000   0.000  -0.000   2.831   0.000   0.000  -0.000
  0.000  -0.000  -0.000   0.000  -0.000   0.000   0.000  -0.000  -2.048   0.000  -0.073   0.000   0.000   2.110  -0.000  -0.005
 -0.000  -0.000  -0.000  -0.000   0.000  -0.000   0.000   0.000  -0.000  -1.706   0.000   0.000   0.000  -0.000   2.065   0.000
  0.000   0.000  -0.000   0.000   0.000  -0.000   0.000   0.000  -0.072  -0.000  -2.052   0.000  -0.000  -0.005   0.000   2.148
  0.000   0.000   0.000   0.000  -0.000  -0.000   0.000   0.000  -0.094   0.000   0.167   0.000   0.000   0.077   0.000  -0.109
  0.000  -0.000   0.000   0.000   0.000   0.000   0.000   0.000   0.010   0.000  -0.016   0.000   0.000  -0.007   0.000   0.009
 total augmentation occupancy for first ion, spin component:           2
  0.002   0.000   0.000   0.008   0.000   0.000   0.000   0.000   0.000  -0.000   0.000   0.000  -0.000   0.000   0.000   0.000
  0.000   0.002   0.000   0.000   0.008   0.000   0.000   0.000  -0.000   0.000  -0.000  -0.000  -0.000   0.000   0.000   0.000
  0.000   0.000   0.002   0.000  -0.000   0.009   0.000   0.000   0.000  -0.000   0.000   0.000   0.000   0.000   0.000  -0.000
  0.008   0.000   0.000  -0.002   0.000   0.000  -0.000  -0.000   0.000   0.000   0.000   0.000  -0.000   0.000  -0.000   0.000
  0.000   0.008  -0.000   0.000   0.008   0.000   0.000   0.000  -0.000   0.000  -0.000   0.000  -0.000   0.000   0.000   0.000
  0.000   0.000   0.009   0.000   0.000   0.005   0.000   0.000   0.000  -0.000  -0.000   0.000  -0.000   0.000   0.000   0.000
  0.000   0.000   0.000  -0.000   0.000   0.000  -1.872  -0.000   0.000   0.000   0.000   0.777   0.000   0.000   0.000   0.000
  0.000   0.000   0.000  -0.000   0.000   0.000  -0.000  -1.942   0.000   0.000   0.000   0.000   0.610   0.000   0.000   0.000
  0.000  -0.000   0.000   0.000  -0.000   0.000   0.000   0.000  -2.363   0.000  -0.086  -0.000   0.000   0.978   0.000   0.125
 -0.000   0.000  -0.000   0.000   0.000  -0.000   0.000   0.000   0.000  -1.989   0.000   0.000   0.000  -0.000   0.849   0.000
  0.000  -0.000   0.000   0.000  -0.000  -0.000   0.000   0.000  -0.086   0.000  -2.397   0.000  -0.000   0.124  -0.000   0.945
  0.000  -0.000   0.000   0.000   0.000   0.000   0.777   0.000  -0.000   0.000   0.000  -0.115  -0.000   0.000   0.000   0.000
 -0.000  -0.000   0.000  -0.000  -0.000  -0.000   0.000   0.610   0.000   0.000  -0.000  -0.000   0.118   0.000   0.000   0.000
  0.000   0.000   0.000   0.000   0.000   0.000   0.000   0.000   0.978  -0.000   0.124   0.000   0.000  -0.243  -0.000  -0.139
  0.000   0.000   0.000  -0.000   0.000   0.000   0.000   0.000   0.000   0.849  -0.000   0.000   0.000  -0.000  -0.131   0.000
  0.000   0.000  -0.000   0.000   0.000   0.000   0.000   0.000   0.125   0.000   0.945   0.000   0.000  -0.139   0.000  -0.170
  0.000  -0.000   0.000   0.000   0.000   0.000  -0.000   0.000  -0.021  -0.000  -0.026   0.000   0.000   0.011  -0.000   0.045
  0.000   0.000   0.000   0.000   0.000   0.000   0.000   0.000  -0.004   0.000   0.008   0.000   0.000   0.001   0.000  -0.002


------------------------ aborting loop because EDIFF is reached ----------------------------------------





 total charge

# of ion       s       p       d       tot
------------------------------------------
    1        0.373   6.377   6.111  12.861
    2        0.376   6.384   6.093  12.853
    3        0.376   6.384   6.093  12.853
    4        0.379   6.388   6.076  12.844
    5        0.379   6.388   6.076  12.843
    6        0.375   6.381   6.100  12.856
    7        0.373   6.377   6.111  12.861
    8        0.376   6.384   6.093  12.853
    9        0.376   6.384   6.093  12.853
   10        0.821   0.809   8.067   9.697
   11        0.821   0.808   8.067   9.696
   12        0.809   0.822   8.064   9.695
--------------------------------------------------
tot          5.833  59.889  79.044 144.765



 magnetization (x)

# of ion       s       p       d       tot
------------------------------------------
    1       -0.004   0.010  -2.325  -2.320
    2        0.008   0.004   2.196   2.208
    3        0.008   0.004   2.194   2.206
    4       -0.014  -0.024  -2.293  -2.331
    5       -0.014  -0.024  -2.293  -2.331
    6        0.002  -0.016   2.372   2.358
    7       -0.004   0.010  -2.325  -2.320
    8        0.008   0.004   2.196   2.208
    9        0.008   0.004   2.194   2.206
   10        0.009   0.021  -0.118  -0.087
   11        0.009   0.021  -0.117  -0.087
   12       -0.033  -0.084   0.297   0.179
--------------------------------------------------
tot         -0.018  -0.070   1.977   1.889
 
    CHARGE:  cpu time      0.1480: real time      0.1491
    FORLOC:  cpu time      0.0022: real time      0.0023
    FORNL :  cpu time      0.5137: real time      0.5167
    STRESS:  cpu time      3.8425: real time      3.8746
    FORCOR:  cpu time      0.0207: real time      0.0208
    FORHAR:  cpu time      0.0031: real time      0.0031
    MIXING:  cpu time      0.0132: real time      0.0133
    OFIELD:  cpu time      0.0016: real time      0.0016

  FORCE on cell =-STRESS in cart. coord.  units (eV):
  Direction    XX          YY          ZZ          XY          YZ          ZX
  --------------------------------------------------------------------------------------
  Alpha Z  1198.52204  1198.52204  1198.52204
  Ewald   -6219.18114 -6219.18114 -6229.13571    -0.00000    -0.00000    -0.00000
  Hartree  1792.16223  1792.16223  1780.69551    -0.00000    -0.00000    -0.00000
  E(xc)    -945.93629  -945.93629  -945.87569     0.00000    -0.00000     0.00000
  Local    1239.54920  1239.54920  1268.08572     0.00000     0.00000    -0.00000
  n-local  -197.05652  -209.89934  -202.71407    15.86074     0.10908     0.10923
  augment  1437.38210  1437.38210  1432.26127    -0.00000    -0.00000    -0.00000
  Kinetic  1725.46552  1702.93106  1711.35248     4.77405     0.31578     0.88558
  Fock        0.00000     0.00000     0.00000     0.00000     0.00000     0.00000
  -------------------------------------------------------------------------------------
  Total      13.21850    13.21850    13.19156     0.00000     0.00000     0.00000
  in kB     149.14348   149.14348   148.83954     0.00000     0.00000     0.00000
  external pressure =      149.04 kB  Pullay stress =        0.00 kB


 VOLUME and BASIS-vectors are now :
 -----------------------------------------------------------------------------
  energy-cutoff  :      520.00
  volume of cell :      142.00
      direct lattice vectors                 reciprocal lattice vectors
     3.608246294  0.000000000  0.000000000     0.277142944  0.000000000  0.000000000
     0.000000000  3.608246294  0.000000000     0.000000000  0.277142944  0.000000000
     0.000000000  0.000000000 10.906766009     0.000000000  0.000000000  0.091686206

  length of vectors
     3.608246294  3.608246294 10.906766009     0.277142944  0.277142944  0.091686206


 FORCES acting on ions
    electron-ion (+dipol)            ewald-force                    non-local-force                 convergence-correction
 -----------------------------------------------------------------------------------------------
   -.704E-13 0.100E-11 -.829E+00   -.932E-14 -.481E-14 0.819E+00   0.243E-21 -.144E-20 -.289E-03   0.278E-13 -.658E-14 0.120E-01
   -.705E-13 0.118E-11 -.963E+01   0.831E-14 -.628E-14 0.108E+02   0.457E-18 -.204E-18 -.112E+01   0.274E-13 -.188E-13 0.130E-01
   -.690E-13 0.249E-11 0.105E+02   0.443E-14 -.198E-13 -.116E+02   0.226E-18 0.223E-18 0.112E+01   0.331E-13 -.157E-13 -.260E-01
   0.111E-11 0.703E-11 0.283E+02   0.511E-13 -.526E-13 -.269E+02   0.571E-18 -.356E-18 -.142E+01   -.106E-12 -.137E-13 -.156E-01
   0.111E-11 0.711E-11 -.298E+02   0.489E-14 -.172E-13 0.283E+02   -.144E-18 -.615E-18 0.143E+01   -.142E-12 -.528E-14 0.226E-01
   0.111E-11 0.672E-11 0.139E+01   -.102E-13 -.388E-13 -.138E+01   0.221E-21 0.199E-21 -.469E-02   -.128E-12 -.263E-14 -.494E-02
   0.108E-11 -.322E-13 -.829E+00   0.541E-14 -.427E-13 0.819E+00   0.116E-20 -.154E-21 -.289E-03   -.718E-13 -.157E-13 0.120E-01
   0.108E-11 -.917E-13 -.963E+01   -.176E-14 0.141E-13 0.108E+02   0.120E-18 -.155E-18 -.112E+01   -.810E-13 -.200E-14 0.130E-01
   0.108E-11 0.882E-14 0.105E+02   -.411E-14 -.241E-13 -.116E+02   -.415E-18 0.649E-18 0.112E+01   -.709E-13 -.143E-13 -.260E-01
   -.360E-13 -.596E-13 -.287E+01   -.148E-13 0.819E-13 0.280E+01   0.147E-17 -.814E-18 0.487E-01   0.361E-13 -.113E-14 -.116E-01
   -.415E-13 0.190E-13 0.212E+01   -.381E-15 0.314E-13 -.205E+01   -.356E-18 -.334E-18 -.492E-01   0.410E-13 -.153E-14 0.154E-01
   -.401E-13 -.293E-13 0.715E+00   0.164E-13 0.624E-13 -.712E+00   -.139E-20 0.184E-20 0.297E-03   0.416E-13 -.175E-14 -.349E-02
 -----------------------------------------------------------------------------------------------
   0.623E-11 0.254E-10 -.193E-02   0.501E-13 -.164E-13 -.270E-12   0.193E-17 -.161E-17 0.125E-02   -.392E-12 -.990E-13 0.398E-03
 
 
 POSITION                                       TOTAL-FORCE (eV/Angst)
 -----------------------------------------------------------------------------------
      0.00000      1.80412      1.81750        -0.000000      0.000000      0.001888
      0.00000      1.80412      5.44930        -0.000000     -0.000000      0.010173
      0.00000      1.80412      9.09338        -0.000000      0.000000     -0.012567
      1.80412      1.80412      0.02536         0.000000     -0.000000      0.011302
      1.80412      1.80412      3.60947        -0.000000     -0.000000     -0.008550
      1.80412      1.80412      7.27191        -0.000000      0.000000     -0.002638
      1.80412      0.00000      1.81750         0.000000      0.000000      0.001888
      1.80412      0.00000      5.44930         0.000000      0.000000      0.010173
      1.80412      0.00000      9.09338         0.000000      0.000000     -0.012567
      0.00000      0.00000     10.88439        -0.000000      0.000000     -0.032630
      0.00000      0.00000      3.65778        -0.000000      0.000000      0.033447
      0.00000      0.00000      7.27133        -0.000000      0.000000      0.000079
 -----------------------------------------------------------------------------------
    total drift:                                0.000000      0.000000     -0.000280


--------------------------------------------------------------------------------------------------------



  FREE ENERGIE OF THE ION-ELECTRON SYSTEM (eV)
  ---------------------------------------------------
  free  energy   TOTEN  =       -92.89476347 eV

  energy  without entropy=      -92.89476347  energy(sigma->0) =      -92.89476347
 


--------------------------------------------------------------------------------------------------------


    POTLOK:  cpu time      0.0366: real time      0.0369


--------------------------------------------------------------------------------------------------------


     LOOP+:  cpu time    163.6339: real time    165.1608
 -----------------------------------------------------------------------------
|                                                                             |
|           W    W    AA    RRRRR   N    N  II  N    N   GGGG   !!!           |
|           W    W   A  A   R    R  NN   N  II  NN   N  G    G  !!!           |
|           W    W  A    A  R    R  N N  N  II  N N  N  G       !!!           |
|           W WW W  AAAAAA  RRRRR   N  N N  II  N  N N  G  GGG   !            |
|           WW  WW  A    A  R   R   N   NN  II  N   NN  G    G                |
|           W    W  A    A  R    R  N    N  II  N    N   GGGG   !!!           |
|                                                                             |
|     Tetrahedron method does not include variations of the Fermi             |
|     occupations, so forces and stress will be inaccurate. We suggest        |
|     using a different smearing scheme ISMEAR = 1 or 2 for metals in         |
|     relaxations.                                                            |
|                                                                             |
 -----------------------------------------------------------------------------

    4ORBIT:  cpu time      0.0000: real time      0.0000



 total charge

# of ion       s       p       d       tot
------------------------------------------
    1        0.373   6.377   6.111  12.861
    2        0.376   6.384   6.093  12.853
    3        0.376   6.384   6.093  12.853
    4        0.379   6.388   6.076  12.844
    5        0.379   6.388   6.076  12.843
    6        0.375   6.381   6.100  12.856
    7        0.373   6.377   6.111  12.861
    8        0.376   6.384   6.093  12.853
    9        0.376   6.384   6.093  12.853
   10        0.821   0.809   8.067   9.697
   11        0.821   0.808   8.067   9.696
   12        0.809   0.822   8.064   9.695
--------------------------------------------------
tot          5.833  59.889  79.044 144.765



 magnetization (x)

# of ion       s       p       d       tot
------------------------------------------
    1       -0.004   0.010  -2.325  -2.320
    2        0.008   0.004   2.196   2.208
    3        0.008   0.004   2.194   2.206
    4       -0.014  -0.024  -2.293  -2.331
    5       -0.014  -0.024  -2.293  -2.331
    6        0.002  -0.016   2.372   2.358
    7       -0.004   0.010  -2.325  -2.320
    8        0.008   0.004   2.196   2.208
    9        0.008   0.004   2.194   2.206
   10        0.009   0.021  -0.118  -0.087
   11        0.009   0.021  -0.117  -0.087
   12       -0.033  -0.084   0.297   0.179
--------------------------------------------------
tot         -0.018  -0.070   1.977   1.889
 
 BZINTS: Fermi energy:   11.165284;  156.000000 electrons
         Band energy:-0.144573E+04;  BLOECHL correction:   -0.030876

 total amount of memory used by VASP MPI-rank0   165518. kBytes
=======================================================================

   base      :      30000. kBytes
   nonl-proj :      94414. kBytes
   fftplans  :        888. kBytes
   grid      :       6813. kBytes
   one-center:        373. kBytes
   wavefun   :      33030. kBytes
 
  
  
 General timing and accounting informations for this job:
 ========================================================
  
                  Total CPU time used (sec):      179.227
                            User time (sec):      171.535
                          System time (sec):        7.693
                         Elapsed time (sec):      186.531
  
                   Maximum memory used (kb):      777076.
                   Average memory used (kb):          N/A
  
                          Minor page faults:       199332
                          Major page faults:           97
                 Voluntary context switches:         7565
