       N       E                     dE             d eps       ncg     rms          rms(c)
DAV:   1     0.173299583431E+04    0.17330E+04   -0.91998E+04 32256   0.235E+03
DAV:   2     0.121302957024E+02   -0.17209E+04   -0.16919E+04 32320   0.597E+02
DAV:   3    -0.102034868808E+03   -0.11417E+03   -0.11289E+03 42336   0.158E+02
DAV:   4    -0.104549612408E+03   -0.25147E+01   -0.25131E+01 32448   0.248E+01
DAV:   5    -0.104606853553E+03   -0.57241E-01   -0.57237E-01 41280   0.388E+00    0.360E+01
DAV:   6    -0.112770899879E+03   -0.81640E+01   -0.25139E+02 38048   0.884E+01    0.711E+01
DAV:   7    -0.108207616892E+03    0.45633E+01   -0.45919E+02 43744   0.762E+01    0.555E+01
DAV:   8    -0.943602869065E+02    0.13847E+02   -0.71544E+01 44192   0.529E+01    0.218E+01
DAV:   9    -0.102948887001E+03   -0.85886E+01   -0.15632E+02 44000   0.394E+01    0.496E+01
DAV:  10    -0.926225609048E+02    0.10326E+02   -0.49204E+01 45472   0.312E+01    0.127E+01
DAV:  11    -0.929469128048E+02   -0.32435E+00   -0.91548E+00 42880   0.130E+01    0.114E+01
DAV:  12    -0.928968238868E+02    0.50089E-01   -0.44747E+00 42112   0.865E+00    0.722E+00
DAV:  13    -0.929271633140E+02   -0.30339E-01   -0.21882E+00 40640   0.737E+00    0.402E+00
DAV:  14    -0.930736104404E+02   -0.14645E+00   -0.31787E+00 44256   0.763E+00    0.706E+00
DAV:  15    -0.929252677862E+02    0.14834E+00   -0.19135E+00 44096   0.599E+00    0.209E+00
DAV:  16    -0.929893106693E+02   -0.64043E-01   -0.52365E-01 43136   0.414E+00    0.327E+00
DAV:  17    -0.929647721520E+02    0.24539E-01   -0.51965E-01 43104   0.387E+00    0.183E+00
DAV:  18    -0.929614184301E+02    0.33537E-02   -0.74725E-02 41120   0.145E+00    0.861E-01
DAV:  19    -0.929639100414E+02   -0.24916E-02   -0.78357E-03 38720   0.409E-01    0.611E-01
DAV:  20    -0.929647776050E+02   -0.86756E-03   -0.46025E-03 40064   0.327E-01    0.354E-01
DAV:  21    -0.929650278572E+02   -0.25025E-03   -0.98496E-04 40960   0.143E-01    0.222E-01
DAV:  22    -0.929651738905E+02   -0.14603E-03   -0.70925E-04 42304   0.134E-01    0.844E-02
DAV:  23    -0.929652480029E+02   -0.74112E-04   -0.56557E-04 43360   0.100E-01    0.773E-02
DAV:  24    -0.929652369498E+02    0.11053E-04   -0.52817E-05 39488   0.464E-02    0.503E-02
DAV:  25    -0.929652249339E+02    0.12016E-04   -0.25439E-05 41952   0.273E-02    0.222E-02
DAV:  26    -0.929652253879E+02   -0.45395E-06   -0.66195E-06 34336   0.143E-02
   1 F= -.92965225E+02 E0= -.92965225E+02  d E =0.000000E+00  mag=     2.8576
