 vasp.6.4.3 19Mar24 (build Mar 26 2024 14:05:37) complex                        
  
 executed on             LinuxIFC date 2024.12.16  12:31:04
 running  128 mpi-ranks, on    1 nodes
 distrk:  each k-point on   32 cores,    4 groups
 distr:  one band on NCORE=   1 cores,   32 groups


--------------------------------------------------------------------------------------------------------


 INCAR:
   ALGO = Normal
   EDIFF = 1e-06
   EDIFFG = -0.01
   ENCUT = 520
   GGA = Pe
   IBRION = -1
   ISIF = 4
   ISMEAR = -5
   ISPIN = 2
   KPAR = 4
   LCHARG = True
   LORBIT = 11
   LREAL = False
   LWAVE = False
   MAGMOM = 1*-2.722 2*2.734 2*-2.759 1*2.887 1*-2.722 2*2.734 2*-0.081 1*0.249
   NELM = 200
   NSW = 0
   PREC = Accurate
   SIGMA = 0.2

 POTCAR:    PAW_PBE Fe_pv 02Aug2007               
 POTCAR:    PAW_PBE Pt 04Feb2005                  
 -----------------------------------------------------------------------------
|                                                                             |
|           W    W    AA    RRRRR   N    N  II  N    N   GGGG   !!!           |
|           W    W   A  A   R    R  NN   N  II  NN   N  G    G  !!!           |
|           W    W  A    A  R    R  N N  N  II  N N  N  G       !!!           |
|           W WW W  AAAAAA  RRRRR   N  N N  II  N  N N  G  GGG   !            |
|           WW  WW  A    A  R   R   N   NN  II  N   NN  G    G                |
|           W    W  A    A  R    R  N    N  II  N    N   GGGG   !!!           |
|                                                                             |
|     For optimal performance we recommend to set                             |
|       NCORE = 2 up to number-of-cores-per-socket                            |
|     NCORE specifies how many cores store one orbital (NPAR=cpu/NCORE).      |
|     This setting can greatly improve the performance of VASP for DFT.       |
|     The default, NCORE=1 might be grossly inefficient on modern             |
|     multi-core architectures or massively parallel machines. Do your        |
|     own testing! More info at https://www.vasp.at/wiki/index.php/NCORE      |
|     Unfortunately you need to use the default for GW and RPA                |
|     calculations (for HF NCORE is supported but not extensively tested      |
|     yet).                                                                   |
|                                                                             |
 -----------------------------------------------------------------------------

 POTCAR:    PAW_PBE Fe_pv 02Aug2007               
   SHA256 =  5d22e414b1f82158bf2c7ecb8b97b28fd0923e48cadc1c3bf74d524558f5dd32 Fe_pv/POTCAR          
   COPYR  = (c) Copyright 02Aug2007 Georg Kresse                                                    
   COPYR  = This file is part of the software VASP. Any use, copying, and all other rights are regul
   COPYR  = If you do not have a valid VASP license, you may not use, copy or distribute this file. 
   VRHFIN =Fe:  3pd7s1                                                                              
   LEXCH  = PE                                                                                      
   EATOM  =  2457.4239 eV,  180.6156 Ry                                                             
                                                                                                    
   TITEL  = PAW_PBE Fe_pv 02Aug2007                                                                 
   LULTRA =        F    use ultrasoft PP ?                                                          
   IUNSCR =        1    unscreen: 0-lin 1-nonlin 2-no                                               
   RPACOR =    1.750    partial core radius                                                         
   POMASS =   55.847; ZVAL   =   14.000    mass and valenz                                          
   RCORE  =    2.200    outmost cutoff radius                                                       
   RWIGS  =    2.200; RWIGS  =    1.164    wigner-seitz radius (au A)                               
   ENMAX  =  293.238; ENMIN  =  219.928 eV                                                          
   ICORE  =        3    local potential                                                             
   LCOR   =        T    correct aug charges                                                         
   LPAW   =        T    paw PP                                                                      
   EAUG   =  578.342                                                                                
   DEXC   =    0.000                                                                                
   RMAX   =    2.249    core radius for proj-oper                                                   
   RAUG   =    1.300    factor for augmentation sphere                                              
   RDEP   =    2.296    radius for radial grids                                                     
   RDEPT  =    1.766    core radius for aug-charge                                                  
                                                                                                    
   Atomic configuration                                                                             
    8 entries                                                                                       
     n  l   j            E        occ.                                                              
     1  0  0.50     -6993.8440   2.0000                                                             
     2  0  0.50      -814.6047   2.0000                                                             
     2  1  1.50      -693.3689   6.0000                                                             
     3  0  0.50       -89.4732   2.0000                                                             
     3  1  1.50       -55.6373   6.0000                                                             
     3  2  2.50        -3.8151   7.0000                                                             
     4  0  0.50        -4.2551   1.0000                                                             
     4  3  2.50        -1.3606   0.0000                                                             
   Description                                                                                      
     l       E           TYP  RCUT    TYP  RCUT                                                     
     1    -55.6372668     23  2.000                                                                 
     1     -5.4423304     23  2.000                                                                 
     2     -3.8151096     23  2.200                                                                 
     2     -5.1756922     23  2.200                                                                 
     0     -4.2550951     23  2.200                                                                 
     0     27.2116520     23  2.200                                                                 
     3     -1.3605826     23  2.200                                                                 
  local pseudopotential read in
  partial core-charges read in
  partial kinetic energy density read in
  atomic valenz-charges read in
  non local Contribution for L=           1  read in
    real space projection operators read in
  non local Contribution for L=           1  read in
    real space projection operators read in
  non local Contribution for L=           2  read in
    real space projection operators read in
  non local Contribution for L=           2  read in
    real space projection operators read in
  non local Contribution for L=           0  read in
    real space projection operators read in
  non local Contribution for L=           0  read in
    real space projection operators read in
    PAW grid and wavefunctions read in
 
   number of l-projection  operators is LMAX  =           6
   number of lm-projection operators is LMMAX =          18
 
 POTCAR:    PAW_PBE Pt 04Feb2005                  
   SHA256 =  3ed90460adef76debcff1cfb73ee1349b515b1a3db03439735b44de3a8db7dc8 Pt/POTCAR             
   COPYR  = (c) Copyright 04Feb2005 Georg Kresse                                                    
   COPYR  = This file is part of the software VASP. Any use, copying, and all other rights are regul
   COPYR  = If you do not have a valid VASP license, you may not use, copy or distribute this file. 
   VRHFIN =Pt: s1d9                                                                                 
   LEXCH  = PE                                                                                      
   EATOM  =   729.1176 eV,   53.5886 Ry                                                             
                                                                                                    
   TITEL  = PAW_PBE Pt 04Feb2005                                                                    
   LULTRA =        F    use ultrasoft PP ?                                                          
   IUNSCR =        1    unscreen: 0-lin 1-nonlin 2-no                                               
   RPACOR =    2.330    partial core radius                                                         
   POMASS =  195.080; ZVAL   =   10.000    mass and valenz                                          
   RCORE  =    2.600    outmost cutoff radius                                                       
   RWIGS  =    2.750; RWIGS  =    1.455    wigner-seitz radius (au A)                               
   ENMAX  =  230.283; ENMIN  =  172.712 eV                                                          
   ICORE  =        3    local potential                                                             
   LCOR   =        T    correct aug charges                                                         
   LPAW   =        T    paw PP                                                                      
   EAUG   =  358.966                                                                                
   DEXC   =    0.000                                                                                
   RMAX   =    2.658    core radius for proj-oper                                                   
   RAUG   =    1.300    factor for augmentation sphere                                              
   RDEP   =    2.761    radius for radial grids                                                     
   RDEPT  =    2.203    core radius for aug-charge                                                  
                                                                                                    
   Atomic configuration                                                                             
   16 entries                                                                                       
     n  l   j            E        occ.                                                              
     1  0  0.50    -78401.1885   2.0000                                                             
     2  0  0.50    -13770.7750   2.0000                                                             
     2  1  1.50    -11931.0468   6.0000                                                             
     3  0  0.50     -3234.7234   2.0000                                                             
     3  1  1.50     -2699.2216   6.0000                                                             
     3  2  2.50     -2119.5714  10.0000                                                             
     4  0  0.50      -695.1528   2.0000                                                             
     4  1  1.50      -519.6034   6.0000                                                             
     4  2  2.50      -306.6786  10.0000                                                             
     4  3  3.50       -70.1041  14.0000                                                             
     5  0  0.50      -101.7747   2.0000                                                             
     5  1  1.50       -55.9873   6.0000                                                             
     5  2  2.50        -6.1423   9.0000                                                             
     6  0  0.50        -5.6573   1.0000                                                             
     6  1  1.50        -6.8029   0.0000                                                             
     5  3  2.50        -1.3606   0.0000                                                             
   Description                                                                                      
     l       E           TYP  RCUT    TYP  RCUT                                                     
     2     -6.1423404     23  2.500                                                                 
     2     -7.5029230     23  2.500                                                                 
     0     -5.6573207     23  2.500                                                                 
     0      0.7416693     23  2.500                                                                 
     1     -2.7211652     23  2.600                                                                 
     1     20.4087390     23  2.600                                                                 
     3     -1.3605826     23  2.500                                                                 
  local pseudopotential read in
  partial core-charges read in
  partial kinetic energy density read in
  atomic valenz-charges read in
  non local Contribution for L=           2  read in
    real space projection operators read in
  non local Contribution for L=           2  read in
    real space projection operators read in
  non local Contribution for L=           0  read in
    real space projection operators read in
  non local Contribution for L=           0  read in
    real space projection operators read in
  non local Contribution for L=           1  read in
    real space projection operators read in
  non local Contribution for L=           1  read in
    real space projection operators read in
    PAW grid and wavefunctions read in
 
   number of l-projection  operators is LMAX  =           6
   number of lm-projection operators is LMMAX =          18
 
  PAW_PBE Fe_pv 02Aug2007               :
 energy of atom  1       EATOM=-2457.4239
 kinetic energy error for atom=    0.0062 (will be added to EATOM!!)
  PAW_PBE Pt 04Feb2005                  :
 energy of atom  2       EATOM= -729.1176
 kinetic energy error for atom=    0.0032 (will be added to EATOM!!)
 
 
 POSCAR: Fe9 Pt3
  positions in direct lattice
  velocities in cartesian coordinates


 exchange-correlation table for PE
   RHO(1)=    0.500       N(1)  =     2000
   RHO(2)=  100.500       N(2)  =     4000
 


--------------------------------------------------------------------------------------------------------


 ion  position               nearest neighbor table
   1  0.000  0.500  0.167-   5 2.62   5 2.62   4 2.62   4 2.62   7 2.68   7 2.68   7 2.68   7 2.68
                            10 2.73  10 2.73  11 2.73  11 2.73
   2  0.000  0.500  0.500-  11 2.68  11 2.68   8 2.68   8 2.68   8 2.68   8 2.68  12 2.71  12 2.71
                             6 2.71   6 2.71   5 2.79   5 2.79
   3  0.000  0.500  0.834-  10 2.68  10 2.68   9 2.68   9 2.68   9 2.68   9 2.68   6 2.71   6 2.71
                            12 2.71  12 2.71   4 2.79   4 2.79
   4  0.500  0.500  0.010-   1 2.62   7 2.62   7 2.62   1 2.62  10 2.68  10 2.68  10 2.68  10 2.68
                             9 2.79   3 2.79   9 2.79   3 2.79
   5  0.500  0.500  0.323-   1 2.62   7 2.62   7 2.62   1 2.62  11 2.68  11 2.68  11 2.68  11 2.68
                             8 2.79   2 2.79   8 2.79   2 2.79
   6  0.500  0.500  0.667-  12 2.68  12 2.68  12 2.68  12 2.68   9 2.71   3 2.71   3 2.71   9 2.71
                             2 2.71   8 2.71   2 2.71   8 2.71
   7  0.500  0.000  0.167-   5 2.62   5 2.62   4 2.62   4 2.62   1 2.68   1 2.68   1 2.68   1 2.68
                            10 2.73  10 2.73  11 2.73  11 2.73
   8  0.500  0.000  0.500-  11 2.68  11 2.68   2 2.68   2 2.68   2 2.68   2 2.68  12 2.71  12 2.71
                             6 2.71   6 2.71   5 2.79   5 2.79
   9  0.500  0.000  0.834-  10 2.68  10 2.68   3 2.68   3 2.68   3 2.68   3 2.68   6 2.71   6 2.71
                            12 2.71  12 2.71   4 2.79   4 2.79
  10  0.000  0.000  0.997-   3 2.68   9 2.68   3 2.68   9 2.68   4 2.68   4 2.68   4 2.68   4 2.68
                             1 2.73   7 2.73   7 2.73   1 2.73
  11  0.000  0.000  0.337-   2 2.68   8 2.68   2 2.68   8 2.68   5 2.68   5 2.68   5 2.68   5 2.68
                             1 2.73   7 2.73   7 2.73   1 2.73
  12  0.000  0.000  0.667-   6 2.68   6 2.68   6 2.68   6 2.68   2 2.71   8 2.71   8 2.71   2 2.71
                             3 2.71   3 2.71   9 2.71   9 2.71
 
  LATTYP: Found a simple tetragonal cell.
 ALAT       =     3.7853852715
 C/A-ratio  =     3.0603973978
  
  Lattice vectors:
  
 A1 = (   3.7853852715,   0.0000000000,   0.0000000000)
 A2 = (   0.0000000000,   3.7853852715,   0.0000000000)
 A3 = (   0.0000000000,   0.0000000000,  11.5847832346)


Analysis of symmetry for initial positions (statically):
=====================================================================
 Subroutine PRICEL returns:
 Original cell was already a primitive cell.
 

 Routine SETGRP: Setting up the symmetry group for a 
 simple tetragonal supercell.


 Subroutine GETGRP returns: Found  8 space group operations
 (whereof  8 operations were pure point group operations)
 out of a pool of 16 trial point group operations.


The static configuration has the point symmetry C_4v.


Analysis of symmetry for dynamics (positions and initial velocities):
=====================================================================
 Subroutine PRICEL returns:
 Original cell was already a primitive cell.
 

 Routine SETGRP: Setting up the symmetry group for a 
 simple tetragonal supercell.


 Subroutine GETGRP returns: Found  8 space group operations
 (whereof  8 operations were pure point group operations)
 out of a pool of 16 trial point group operations.


The dynamic configuration has the point symmetry C_4v.


Analysis of structural, dynamic, and magnetic symmetry:
=====================================================================
 Subroutine PRICEL returns:
 Original cell was already a primitive cell.
 

 Routine SETGRP: Setting up the symmetry group for a 
 simple tetragonal supercell.


 Subroutine GETGRP returns: Found  8 space group operations
 (whereof  8 operations were pure point group operations)
 out of a pool of 16 trial point group operations.


The overall configuration has the point symmetry C_4v.


 Subroutine INISYM returns: Found  8 space group operations
 (whereof  8 operations are pure point group operations),
 and found     1 'primitive' translations


----------------------------------------------------------------------------------------

                                     Primitive cell                                     

  volume of cell :     166.0000

  direct lattice vectors                    reciprocal lattice vectors
     3.785385272  0.000000000  0.000000000     0.264173903  0.000000000  0.000000000
     0.000000000  3.785385272  0.000000000     0.000000000  0.264173903  0.000000000
     0.000000000  0.000000000 11.584783235     0.000000000  0.000000000  0.086320130

  length of vectors
     3.785385272  3.785385272 11.584783235     0.264173903  0.264173903  0.086320130

  position of ions in fractional coordinates (direct lattice)
     0.000000000  0.500000000  0.166662591
     0.000000000  0.500000000  0.499754174
     0.000000000  0.500000000  0.833587041
     0.500000000  0.500000000  0.010460626
     0.500000000  0.500000000  0.322855304
     0.500000000  0.500000000  0.666676371
     0.500000000  0.000000000  0.166662591
     0.500000000  0.000000000  0.499754174
     0.500000000  0.000000000  0.833587041
     0.000000000  0.000000000  0.996825412
     0.000000000  0.000000000  0.336516625
     0.000000000  0.000000000  0.666658052

  ion indices of the primitive-cell ions
   primitive index   ion index
                 1           1
                 2           2
                 3           3
                 4           4
                 5           5
                 6           6
                 7           7
                 8           8
                 9           9
                10          10
                11          11
                12          12

----------------------------------------------------------------------------------------

 
 
 KPOINTS: pymatgen with grid density = 8800 / numb

Automatic generation of k-mesh.
 Grid dimensions read from file:
 generate k-points for:   13   13    4

 Generating k-lattice:

  Cartesian coordinates                     Fractional coordinates (reciprocal lattice)
     0.020321069  0.000000000  0.000000000     0.076923077  0.000000000  0.000000000
     0.000000000  0.020321069  0.000000000     0.000000000  0.076923077  0.000000000
     0.000000000  0.000000000  0.021580033     0.000000000  0.000000000  0.250000000

  Length of vectors
     0.020321069  0.020321069  0.021580033

  Shift w.r.t. Gamma in fractional coordinates (k-lattice)
     0.000000000  0.000000000  0.000000000

 TETIRR: Found   1010 inequivalent tetrahedra from     4056
 
 Subroutine IBZKPT returns following result:
 ===========================================
 
 Found     84 irreducible k-points:
 
 Following reciprocal coordinates:
            Coordinates               Weight
  0.000000  0.000000  0.000000      1.000000
  0.076923  0.000000  0.000000      4.000000
  0.153846  0.000000  0.000000      4.000000
  0.230769  0.000000  0.000000      4.000000
  0.307692  0.000000  0.000000      4.000000
  0.384615  0.000000  0.000000      4.000000
  0.461538  0.000000  0.000000      4.000000
  0.076923  0.076923  0.000000      4.000000
  0.153846  0.076923  0.000000      8.000000
  0.230769  0.076923  0.000000      8.000000
  0.307692  0.076923  0.000000      8.000000
  0.384615  0.076923  0.000000      8.000000
  0.461538  0.076923  0.000000      8.000000
  0.153846  0.153846  0.000000      4.000000
  0.230769  0.153846  0.000000      8.000000
  0.307692  0.153846  0.000000      8.000000
  0.384615  0.153846  0.000000      8.000000
  0.461538  0.153846  0.000000      8.000000
  0.230769  0.230769  0.000000      4.000000
  0.307692  0.230769  0.000000      8.000000
  0.384615  0.230769  0.000000      8.000000
  0.461538  0.230769  0.000000      8.000000
  0.307692  0.307692  0.000000      4.000000
  0.384615  0.307692  0.000000      8.000000
  0.461538  0.307692  0.000000      8.000000
  0.384615  0.384615  0.000000      4.000000
  0.461538  0.384615  0.000000      8.000000
  0.461538  0.461538  0.000000      4.000000
  0.000000  0.000000  0.250000      2.000000
  0.076923  0.000000  0.250000      8.000000
  0.153846  0.000000  0.250000      8.000000
  0.230769  0.000000  0.250000      8.000000
  0.307692  0.000000  0.250000      8.000000
  0.384615  0.000000  0.250000      8.000000
  0.461538  0.000000  0.250000      8.000000
  0.076923  0.076923  0.250000      8.000000
  0.153846  0.076923  0.250000     16.000000
  0.230769  0.076923  0.250000     16.000000
  0.307692  0.076923  0.250000     16.000000
  0.384615  0.076923  0.250000     16.000000
  0.461538  0.076923  0.250000     16.000000
  0.153846  0.153846  0.250000      8.000000
  0.230769  0.153846  0.250000     16.000000
  0.307692  0.153846  0.250000     16.000000
  0.384615  0.153846  0.250000     16.000000
  0.461538  0.153846  0.250000     16.000000
  0.230769  0.230769  0.250000      8.000000
  0.307692  0.230769  0.250000     16.000000
  0.384615  0.230769  0.250000     16.000000
  0.461538  0.230769  0.250000     16.000000
  0.307692  0.307692  0.250000      8.000000
  0.384615  0.307692  0.250000     16.000000
  0.461538  0.307692  0.250000     16.000000
  0.384615  0.384615  0.250000      8.000000
  0.461538  0.384615  0.250000     16.000000
  0.461538  0.461538  0.250000      8.000000
  0.000000  0.000000  0.500000      1.000000
  0.076923  0.000000  0.500000      4.000000
  0.153846  0.000000  0.500000      4.000000
  0.230769  0.000000  0.500000      4.000000
  0.307692  0.000000  0.500000      4.000000
  0.384615  0.000000  0.500000      4.000000
  0.461538  0.000000  0.500000      4.000000
  0.076923  0.076923  0.500000      4.000000
  0.153846  0.076923  0.500000      8.000000
  0.230769  0.076923  0.500000      8.000000
  0.307692  0.076923  0.500000      8.000000
  0.384615  0.076923  0.500000      8.000000
  0.461538  0.076923  0.500000      8.000000
  0.153846  0.153846  0.500000      4.000000
  0.230769  0.153846  0.500000      8.000000
  0.307692  0.153846  0.500000      8.000000
  0.384615  0.153846  0.500000      8.000000
  0.461538  0.153846  0.500000      8.000000
  0.230769  0.230769  0.500000      4.000000
  0.307692  0.230769  0.500000      8.000000
  0.384615  0.230769  0.500000      8.000000
  0.461538  0.230769  0.500000      8.000000
  0.307692  0.307692  0.500000      4.000000
  0.384615  0.307692  0.500000      8.000000
  0.461538  0.307692  0.500000      8.000000
  0.384615  0.384615  0.500000      4.000000
  0.461538  0.384615  0.500000      8.000000
  0.461538  0.461538  0.500000      4.000000
 
 Following cartesian coordinates:
            Coordinates               Weight
  0.000000  0.000000  0.000000      1.000000
  0.020321  0.000000  0.000000      4.000000
  0.040642  0.000000  0.000000      4.000000
  0.060963  0.000000  0.000000      4.000000
  0.081284  0.000000  0.000000      4.000000
  0.101605  0.000000  0.000000      4.000000
  0.121926  0.000000  0.000000      4.000000
  0.020321  0.020321  0.000000      4.000000
  0.040642  0.020321  0.000000      8.000000
  0.060963  0.020321  0.000000      8.000000
  0.081284  0.020321  0.000000      8.000000
  0.101605  0.020321  0.000000      8.000000
  0.121926  0.020321  0.000000      8.000000
  0.040642  0.040642  0.000000      4.000000
  0.060963  0.040642  0.000000      8.000000
  0.081284  0.040642  0.000000      8.000000
  0.101605  0.040642  0.000000      8.000000
  0.121926  0.040642  0.000000      8.000000
  0.060963  0.060963  0.000000      4.000000
  0.081284  0.060963  0.000000      8.000000
  0.101605  0.060963  0.000000      8.000000
  0.121926  0.060963  0.000000      8.000000
  0.081284  0.081284  0.000000      4.000000
  0.101605  0.081284  0.000000      8.000000
  0.121926  0.081284  0.000000      8.000000
  0.101605  0.101605  0.000000      4.000000
  0.121926  0.101605  0.000000      8.000000
  0.121926  0.121926  0.000000      4.000000
  0.000000  0.000000  0.021580      2.000000
  0.020321  0.000000  0.021580      8.000000
  0.040642  0.000000  0.021580      8.000000
  0.060963  0.000000  0.021580      8.000000
  0.081284  0.000000  0.021580      8.000000
  0.101605  0.000000  0.021580      8.000000
  0.121926  0.000000  0.021580      8.000000
  0.020321  0.020321  0.021580      8.000000
  0.040642  0.020321  0.021580     16.000000
  0.060963  0.020321  0.021580     16.000000
  0.081284  0.020321  0.021580     16.000000
  0.101605  0.020321  0.021580     16.000000
  0.121926  0.020321  0.021580     16.000000
  0.040642  0.040642  0.021580      8.000000
  0.060963  0.040642  0.021580     16.000000
  0.081284  0.040642  0.021580     16.000000
  0.101605  0.040642  0.021580     16.000000
  0.121926  0.040642  0.021580     16.000000
  0.060963  0.060963  0.021580      8.000000
  0.081284  0.060963  0.021580     16.000000
  0.101605  0.060963  0.021580     16.000000
  0.121926  0.060963  0.021580     16.000000
  0.081284  0.081284  0.021580      8.000000
  0.101605  0.081284  0.021580     16.000000
  0.121926  0.081284  0.021580     16.000000
  0.101605  0.101605  0.021580      8.000000
  0.121926  0.101605  0.021580     16.000000
  0.121926  0.121926  0.021580      8.000000
  0.000000  0.000000  0.043160      1.000000
  0.020321  0.000000  0.043160      4.000000
  0.040642  0.000000  0.043160      4.000000
  0.060963  0.000000  0.043160      4.000000
  0.081284  0.000000  0.043160      4.000000
  0.101605  0.000000  0.043160      4.000000
  0.121926  0.000000  0.043160      4.000000
  0.020321  0.020321  0.043160      4.000000
  0.040642  0.020321  0.043160      8.000000
  0.060963  0.020321  0.043160      8.000000
  0.081284  0.020321  0.043160      8.000000
  0.101605  0.020321  0.043160      8.000000
  0.121926  0.020321  0.043160      8.000000
  0.040642  0.040642  0.043160      4.000000
  0.060963  0.040642  0.043160      8.000000
  0.081284  0.040642  0.043160      8.000000
  0.101605  0.040642  0.043160      8.000000
  0.121926  0.040642  0.043160      8.000000
  0.060963  0.060963  0.043160      4.000000
  0.081284  0.060963  0.043160      8.000000
  0.101605  0.060963  0.043160      8.000000
  0.121926  0.060963  0.043160      8.000000
  0.081284  0.081284  0.043160      4.000000
  0.101605  0.081284  0.043160      8.000000
  0.121926  0.081284  0.043160      8.000000
  0.101605  0.101605  0.043160      4.000000
  0.121926  0.101605  0.043160      8.000000
  0.121926  0.121926  0.043160      4.000000
 


--------------------------------------------------------------------------------------------------------




 Dimension of arrays:
   k-points           NKPTS =     84   k-points in BZ     NKDIM =     84   number of bands    NBANDS=     96
   number of dos      NEDOS =    301   number of ions     NIONS =     12
   non local maximal  LDIM  =      6   non local SUM 2l+1 LMDIM =     18
   total plane-waves  NPLWV =  70560
   max r-space proj   IRMAX =      1   max aug-charges    IRDMAX=  25941
   dimension x,y,z NGX =    28 NGY =   28 NGZ =   90
   dimension x,y,z NGXF=    56 NGYF=   56 NGZF=  180
   support grid    NGXF=    56 NGYF=   56 NGZF=  180
   ions per type =               9   3
   NGX,Y,Z   is equivalent  to a cutoff of  12.30, 12.30, 12.92 a.u.
   NGXF,Y,Z  is equivalent  to a cutoff of  24.59, 24.59, 25.83 a.u.

 SYSTEM =  unknown system                          
 POSCAR =  Fe9 Pt3                                 

 Startparameter for this run:
   NWRITE =      2    write-flag & timer
   PREC   = accura    normal or accurate (medium, high low for compatibility)
   ISTART =      0    job   : 0-new  1-cont  2-samecut
   ICHARG =      2    charge: 1-file 2-atom 10-const
   ISPIN  =      2    spin polarized calculation?
   LNONCOLLINEAR =      F non collinear calculations
   LSORBIT =      F    spin-orbit coupling
   INIWAV =      1    electr: 0-lowe 1-rand  2-diag
   LASPH  =      F    aspherical Exc in radial PAW
 Electronic Relaxation 1
   ENCUT  =  520.0 eV  38.22 Ry    6.18 a.u.   7.04  7.04 21.54*2*pi/ulx,y,z
   ENINI  =  520.0     initial cutoff
   ENAUG  =  578.3 eV  augmentation charge cutoff
   NELM   =    200;   NELMIN=  2; NELMDL=  0     # of ELM steps 
   EDIFF  = 0.1E-05   stopping-criterion for ELM
   LREAL  =      F    real-space projection
   NLSPLINE    = F    spline interpolate recip. space projectors
   LCOMPAT=      F    compatible to vasp.4.4
   GGA_COMPAT  = T    GGA compatible to vasp.4.4-vasp.4.6
   LMAXPAW     = -100 max onsite density
   LMAXMIX     =    2 max onsite mixed and CHGCAR
   VOSKOWN=      0    Vosko Wilk Nusair interpolation
   ROPT   =    0.00000   0.00000
 Ionic relaxation
   EDIFFG = -.1E-01   stopping-criterion for IOM
   NSW    =      0    number of steps for IOM
   NBLOCK =      1;   KBLOCK =      1    inner block; outer block 
   IBRION =     -1    ionic relax: 0-MD 1-quasi-New 2-CG
   NFREE  =      0    steps in history (QN), initial steepest desc. (CG)
   ISIF   =      4    stress and relaxation
   IWAVPR =     10    prediction:  0-non 1-charg 2-wave 3-comb
   ISYM   =      2    0-nonsym 1-usesym 2-fastsym
   LCORR  =      T    Harris-Foulkes like correction to forces

   POTIM  = 0.5000    time-step for ionic-motion
   TEIN   =    0.0    initial temperature
   TEBEG  =    0.0;   TEEND  =   0.0 temperature during run
   SMASS  =  -3.00    Nose mass-parameter (am)
   estimated Nose-frequenzy (Omega)   =  0.10E-29 period in steps = 0.13E+47 mass=  -0.327E-27a.u.
   SCALEE = 1.0000    scale energy and forces
   NPACO  =    256;   APACO  = 10.0  distance and # of slots for P.C.
   PSTRESS=    0.0 pullay stress

  Mass of Ions in am
   POMASS =  55.85195.08
  Ionic Valenz
   ZVAL   =  14.00 10.00
  Atomic Wigner-Seitz radii
   RWIGS  =  -1.00 -1.00
  virtual crystal weights 
   VCA    =   1.00  1.00
   NELECT =     156.0000    total number of electrons
   NUPDOWN=      -1.0000    fix difference up-down

 DOS related values:
   EMIN   =  10.00;   EMAX   =-10.00  energy-range for DOS
   EFERMI =   0.00;   METHOD = LEGACY      
   ISMEAR =    -5;   SIGMA  =   0.20  broadening in eV -4-tet -1-fermi 0-gaus

 Electronic relaxation 2 (details)
   IALGO  =     38    algorithm
   LDIAG  =      T    sub-space diagonalisation (order eigenvalues)
   LSUBROT=      F    optimize rotation matrix (better conditioning)
   TURBO    =      0    0=normal 1=particle mesh
   IRESTART =      0    0=no restart 2=restart with 2 vectors
   NREBOOT  =      0    no. of reboots
   NMIN     =      0    reboot dimension
   EREF     =   0.00    reference energy to select bands
   IMIX   =      4    mixing-type and parameters
     AMIX     =   0.40;   BMIX     =  1.00
     AMIX_MAG =   1.60;   BMIX_MAG =  1.00
     AMIN     =   0.10
     WC   =   100.;   INIMIX=   1;  MIXPRE=   1;  MAXMIX= -45

 Intra band minimization:
   WEIMIN = 0.0000     energy-eigenvalue tresh-hold
   EBREAK =  0.26E-08  absolut break condition
   DEPER  =   0.30     relativ break condition  

   TIME   =   0.40     timestep for ELM

  volume/ion in A,a.u.               =      13.83        93.35
  Fermi-wavevector in a.u.,A,eV,Ry     =   1.603542  3.030255 34.985298  2.571347
  Thomas-Fermi vector in A             =   2.700188
 
 Write flags
   LWAVE        =      F    write WAVECAR
   LDOWNSAMPLE  =      F    k-point downsampling of WAVECAR
   LCHARG       =      T    write CHGCAR
   LVTOT        =      F    write LOCPOT, total local potential
   LVHAR        =      F    write LOCPOT, Hartree potential only
   WRT_POTENTIAL= false  ! write potential to hdf5 file
   LELF         =      F    write electronic localiz. function (ELF)
   LORBIT       =     11    0 simple, 1 ext, 2 COOP (PROOUT), +10 PAW based schemes


 Dipole corrections
   LMONO      =      F    monopole corrections only (constant potential shift)
   LDIPOL     =      F    correct potential (dipole corrections)
   IDIPOL     =      0    1-x, 2-y, 3-z, 4-all directions 
   EPSILON    =  1.0000000 bulk dielectric constant
   LVACPOTAV  =      F  vacuum potentials using an averaging scheme for the charge density
   VACPOTFLAT =  0.1000000 required flatness to determine vacuum potential
 Exchange correlation treatment:
   GGA     = PE    functional components
   XC_C    = 1    coefficients multiplying the functional components
   LIBXC   =     F    Libxc                    
   VOSKOWN =     0    Vosko Wilk Nusair interpolation
   LHFCALC =     F    Hartree Fock is set to
   LHFONE  =     F    Hartree Fock one center treatment
   AEXX    =    0.0000 exact exchange contribution

 Parameters of functionals:
   PE:
     No parameter
 
 Van der Waals corrections
   IVDW    =     0    specifies the selected vdW correction

 Linear response parameters
   LEPSILON=     F    determine dielectric tensor
   LRPA    =     F    only Hartree local field effects (RPA)
   LNABLA  =     F    use nabla operator in PAW spheres
   LVEL    =     F    velocity operator in full k-point grid
   CSHIFT  =0.1000    complex shift for real part using Kramers Kronig
   OMEGAMAX=  -1.0    maximum frequency
   DEG_THRESHOLD= 0.2000000E-02 threshold for treating states as degnerate
   RTIME   =   -0.100 relaxation time in fs
  (WPLASMAI=    0.000 imaginary part of plasma frequency in eV, 0.658/RTIME)
   DFIELD  = 0.0000000 0.0000000 0.0000000 field for delta impulse in time
 
  Optional k-point grid parameters
   LKPOINTS_OPT  =     F    use optional k-point grid
   KPOINTS_OPT_MODE=     1    mode for optional k-point grid
 
 Orbital magnetization related:
   ORBITALMAG=     F  switch on orbital magnetization
   LCHIMAG   =     F  perturbation theory with respect to B field
   DQ        =  0.001000  dq finite difference perturbation B field
   LLRAUG    =     F  two centre corrections for induced B field
   LBONE     =     F  B-component reconstruction in AE one-centre
   LVGVCALC  =     T  calculate vGv susceptibility
   LVGVAPPL  =     F  apply vGv susceptibility instead of pGv for G=0

 Random number generation:
   RANDOM_GENERATOR = DEFAULT
   PCG_SEED         = not used


--------------------------------------------------------------------------------------------------------


 Static calculation
 charge density and potential will be updated during run
 spin polarized calculation
 Variant of blocked Davidson
 Davidson routine will perform the subspace rotation
 perform sub-space diagonalisation
    after iterative eigenvector-optimisation
 modified Broyden-mixing scheme, WC =      100.0
 initial mixing is a Kerker type mixing with AMIX =  0.4000 and BMIX =      1.0000
 Hartree-type preconditioning will be used
 using additional bands           18
 reciprocal scheme for non local part
 use partial core corrections
 calculate Harris-corrections to forces 
   (improved forces if not selfconsistent)
 use gradient corrections 
 use of overlap-Matrix (Vanderbilt PP)
 Fermi weights with tetrahedron method with Bloechl corrections


--------------------------------------------------------------------------------------------------------


  energy-cutoff  :      520.00
  volume of cell :      166.00
      direct lattice vectors                 reciprocal lattice vectors
     3.785385272  0.000000000  0.000000000     0.264173903  0.000000000  0.000000000
     0.000000000  3.785385272  0.000000000     0.000000000  0.264173903  0.000000000
     0.000000000  0.000000000 11.584783235     0.000000000  0.000000000  0.086320130

  length of vectors
     3.785385272  3.785385272 11.584783235     0.264173903  0.264173903  0.086320130


 
 k-points in units of 2pi/SCALE and weight: pymatgen with grid density = 8800 / numb
   0.00000000  0.00000000  0.00000000       0.001
   0.02032107  0.00000000  0.00000000       0.006
   0.04064214  0.00000000  0.00000000       0.006
   0.06096321  0.00000000  0.00000000       0.006
   0.08128428  0.00000000  0.00000000       0.006
   0.10160535  0.00000000  0.00000000       0.006
   0.12192642  0.00000000  0.00000000       0.006
   0.02032107  0.02032107  0.00000000       0.006
   0.04064214  0.02032107  0.00000000       0.012
   0.06096321  0.02032107  0.00000000       0.012
   0.08128428  0.02032107  0.00000000       0.012
   0.10160535  0.02032107  0.00000000       0.012
   0.12192642  0.02032107  0.00000000       0.012
   0.04064214  0.04064214  0.00000000       0.006
   0.06096321  0.04064214  0.00000000       0.012
   0.08128428  0.04064214  0.00000000       0.012
   0.10160535  0.04064214  0.00000000       0.012
   0.12192642  0.04064214  0.00000000       0.012
   0.06096321  0.06096321  0.00000000       0.006
   0.08128428  0.06096321  0.00000000       0.012
   0.10160535  0.06096321  0.00000000       0.012
   0.12192642  0.06096321  0.00000000       0.012
   0.08128428  0.08128428  0.00000000       0.006
   0.10160535  0.08128428  0.00000000       0.012
   0.12192642  0.08128428  0.00000000       0.012
   0.10160535  0.10160535  0.00000000       0.006
   0.12192642  0.10160535  0.00000000       0.012
   0.12192642  0.12192642  0.00000000       0.006
   0.00000000  0.00000000  0.02158003       0.003
   0.02032107  0.00000000  0.02158003       0.012
   0.04064214  0.00000000  0.02158003       0.012
   0.06096321  0.00000000  0.02158003       0.012
   0.08128428  0.00000000  0.02158003       0.012
   0.10160535  0.00000000  0.02158003       0.012
   0.12192642  0.00000000  0.02158003       0.012
   0.02032107  0.02032107  0.02158003       0.012
   0.04064214  0.02032107  0.02158003       0.024
   0.06096321  0.02032107  0.02158003       0.024
   0.08128428  0.02032107  0.02158003       0.024
   0.10160535  0.02032107  0.02158003       0.024
   0.12192642  0.02032107  0.02158003       0.024
   0.04064214  0.04064214  0.02158003       0.012
   0.06096321  0.04064214  0.02158003       0.024
   0.08128428  0.04064214  0.02158003       0.024
   0.10160535  0.04064214  0.02158003       0.024
   0.12192642  0.04064214  0.02158003       0.024
   0.06096321  0.06096321  0.02158003       0.012
   0.08128428  0.06096321  0.02158003       0.024
   0.10160535  0.06096321  0.02158003       0.024
   0.12192642  0.06096321  0.02158003       0.024
   0.08128428  0.08128428  0.02158003       0.012
   0.10160535  0.08128428  0.02158003       0.024
   0.12192642  0.08128428  0.02158003       0.024
   0.10160535  0.10160535  0.02158003       0.012
   0.12192642  0.10160535  0.02158003       0.024
   0.12192642  0.12192642  0.02158003       0.012
   0.00000000  0.00000000  0.04316007       0.001
   0.02032107  0.00000000  0.04316007       0.006
   0.04064214  0.00000000  0.04316007       0.006
   0.06096321  0.00000000  0.04316007       0.006
   0.08128428  0.00000000  0.04316007       0.006
   0.10160535  0.00000000  0.04316007       0.006
   0.12192642  0.00000000  0.04316007       0.006
   0.02032107  0.02032107  0.04316007       0.006
   0.04064214  0.02032107  0.04316007       0.012
   0.06096321  0.02032107  0.04316007       0.012
   0.08128428  0.02032107  0.04316007       0.012
   0.10160535  0.02032107  0.04316007       0.012
   0.12192642  0.02032107  0.04316007       0.012
   0.04064214  0.04064214  0.04316007       0.006
   0.06096321  0.04064214  0.04316007       0.012
   0.08128428  0.04064214  0.04316007       0.012
   0.10160535  0.04064214  0.04316007       0.012
   0.12192642  0.04064214  0.04316007       0.012
   0.06096321  0.06096321  0.04316007       0.006
   0.08128428  0.06096321  0.04316007       0.012
   0.10160535  0.06096321  0.04316007       0.012
   0.12192642  0.06096321  0.04316007       0.012
   0.08128428  0.08128428  0.04316007       0.006
   0.10160535  0.08128428  0.04316007       0.012
   0.12192642  0.08128428  0.04316007       0.012
   0.10160535  0.10160535  0.04316007       0.006
   0.12192642  0.10160535  0.04316007       0.012
   0.12192642  0.12192642  0.04316007       0.006
 
 k-points in reciprocal lattice and weights: pymatgen with grid density = 8800 / numb
   0.00000000  0.00000000  0.00000000       0.001
   0.07692308  0.00000000  0.00000000       0.006
   0.15384615  0.00000000  0.00000000       0.006
   0.23076923  0.00000000  0.00000000       0.006
   0.30769231  0.00000000  0.00000000       0.006
   0.38461538  0.00000000  0.00000000       0.006
   0.46153846  0.00000000  0.00000000       0.006
   0.07692308  0.07692308  0.00000000       0.006
   0.15384615  0.07692308  0.00000000       0.012
   0.23076923  0.07692308  0.00000000       0.012
   0.30769231  0.07692308  0.00000000       0.012
   0.38461538  0.07692308  0.00000000       0.012
   0.46153846  0.07692308  0.00000000       0.012
   0.15384615  0.15384615  0.00000000       0.006
   0.23076923  0.15384615  0.00000000       0.012
   0.30769231  0.15384615  0.00000000       0.012
   0.38461538  0.15384615  0.00000000       0.012
   0.46153846  0.15384615  0.00000000       0.012
   0.23076923  0.23076923  0.00000000       0.006
   0.30769231  0.23076923  0.00000000       0.012
   0.38461538  0.23076923  0.00000000       0.012
   0.46153846  0.23076923  0.00000000       0.012
   0.30769231  0.30769231  0.00000000       0.006
   0.38461538  0.30769231  0.00000000       0.012
   0.46153846  0.30769231  0.00000000       0.012
   0.38461538  0.38461538  0.00000000       0.006
   0.46153846  0.38461538  0.00000000       0.012
   0.46153846  0.46153846  0.00000000       0.006
   0.00000000  0.00000000  0.25000000       0.003
   0.07692308  0.00000000  0.25000000       0.012
   0.15384615  0.00000000  0.25000000       0.012
   0.23076923  0.00000000  0.25000000       0.012
   0.30769231  0.00000000  0.25000000       0.012
   0.38461538  0.00000000  0.25000000       0.012
   0.46153846  0.00000000  0.25000000       0.012
   0.07692308  0.07692308  0.25000000       0.012
   0.15384615  0.07692308  0.25000000       0.024
   0.23076923  0.07692308  0.25000000       0.024
   0.30769231  0.07692308  0.25000000       0.024
   0.38461538  0.07692308  0.25000000       0.024
   0.46153846  0.07692308  0.25000000       0.024
   0.15384615  0.15384615  0.25000000       0.012
   0.23076923  0.15384615  0.25000000       0.024
   0.30769231  0.15384615  0.25000000       0.024
   0.38461538  0.15384615  0.25000000       0.024
   0.46153846  0.15384615  0.25000000       0.024
   0.23076923  0.23076923  0.25000000       0.012
   0.30769231  0.23076923  0.25000000       0.024
   0.38461538  0.23076923  0.25000000       0.024
   0.46153846  0.23076923  0.25000000       0.024
   0.30769231  0.30769231  0.25000000       0.012
   0.38461538  0.30769231  0.25000000       0.024
   0.46153846  0.30769231  0.25000000       0.024
   0.38461538  0.38461538  0.25000000       0.012
   0.46153846  0.38461538  0.25000000       0.024
   0.46153846  0.46153846  0.25000000       0.012
   0.00000000  0.00000000  0.50000000       0.001
   0.07692308  0.00000000  0.50000000       0.006
   0.15384615  0.00000000  0.50000000       0.006
   0.23076923  0.00000000  0.50000000       0.006
   0.30769231  0.00000000  0.50000000       0.006
   0.38461538  0.00000000  0.50000000       0.006
   0.46153846  0.00000000  0.50000000       0.006
   0.07692308  0.07692308  0.50000000       0.006
   0.15384615  0.07692308  0.50000000       0.012
   0.23076923  0.07692308  0.50000000       0.012
   0.30769231  0.07692308  0.50000000       0.012
   0.38461538  0.07692308  0.50000000       0.012
   0.46153846  0.07692308  0.50000000       0.012
   0.15384615  0.15384615  0.50000000       0.006
   0.23076923  0.15384615  0.50000000       0.012
   0.30769231  0.15384615  0.50000000       0.012
   0.38461538  0.15384615  0.50000000       0.012
   0.46153846  0.15384615  0.50000000       0.012
   0.23076923  0.23076923  0.50000000       0.006
   0.30769231  0.23076923  0.50000000       0.012
   0.38461538  0.23076923  0.50000000       0.012
   0.46153846  0.23076923  0.50000000       0.012
   0.30769231  0.30769231  0.50000000       0.006
   0.38461538  0.30769231  0.50000000       0.012
   0.46153846  0.30769231  0.50000000       0.012
   0.38461538  0.38461538  0.50000000       0.006
   0.46153846  0.38461538  0.50000000       0.012
   0.46153846  0.46153846  0.50000000       0.006
 
 position of ions in fractional coordinates (direct lattice) 
   0.00000000  0.50000000  0.16666259
   0.00000000  0.50000000  0.49975417
   0.00000000  0.50000000  0.83358704
   0.50000000  0.50000000  0.01046063
   0.50000000  0.50000000  0.32285530
   0.50000000  0.50000000  0.66667637
   0.50000000  0.00000000  0.16666259
   0.50000000  0.00000000  0.49975417
   0.50000000  0.00000000  0.83358704
   0.00000000  0.00000000  0.99682541
   0.00000000  0.00000000  0.33651662
   0.00000000  0.00000000  0.66665805
 
 position of ions in cartesian coordinates  (Angst):
   0.00000000  1.89269264  1.93074999
   0.00000000  1.89269264  5.78954377
   0.00000000  1.89269264  9.65692518
   1.89269264  1.89269264  0.12118408
   1.89269264  1.89269264  3.74020871
   1.89269264  1.89269264  7.72330124
   1.89269264  0.00000000  1.93074999
   1.89269264  0.00000000  5.78954377
   1.89269264  0.00000000  9.65692518
   0.00000000  0.00000000 11.54800632
   0.00000000  0.00000000  3.89847215
   0.00000000  0.00000000  7.72308902
 


--------------------------------------------------------------------------------------------------------


 k-point     1 :   0.0000 0.0000 0.0000  plane waves:    4415
 k-point     2 :   0.0769 0.0000 0.0000  plane waves:    4432
 k-point     3 :   0.1538 0.0000 0.0000  plane waves:    4440
 k-point     4 :   0.2308 0.0000 0.0000  plane waves:    4450
 k-point     5 :   0.3077 0.0000 0.0000  plane waves:    4464
 k-point     6 :   0.3846 0.0000 0.0000  plane waves:    4492
 k-point     7 :   0.4615 0.0000 0.0000  plane waves:    4496
 k-point     8 :   0.0769 0.0769 0.0000  plane waves:    4448
 k-point     9 :   0.1538 0.0769 0.0000  plane waves:    4445
 k-point    10 :   0.2308 0.0769 0.0000  plane waves:    4454
 k-point    11 :   0.3077 0.0769 0.0000  plane waves:    4469
 k-point    12 :   0.3846 0.0769 0.0000  plane waves:    4464
 k-point    13 :   0.4615 0.0769 0.0000  plane waves:    4476
 k-point    14 :   0.1538 0.1538 0.0000  plane waves:    4474
 k-point    15 :   0.2308 0.1538 0.0000  plane waves:    4460
 k-point    16 :   0.3077 0.1538 0.0000  plane waves:    4472
 k-point    17 :   0.3846 0.1538 0.0000  plane waves:    4476
 k-point    18 :   0.4615 0.1538 0.0000  plane waves:    4482
 k-point    19 :   0.2308 0.2308 0.0000  plane waves:    4478
 k-point    20 :   0.3077 0.2308 0.0000  plane waves:    4483
 k-point    21 :   0.3846 0.2308 0.0000  plane waves:    4477
 k-point    22 :   0.4615 0.2308 0.0000  plane waves:    4491
 k-point    23 :   0.3077 0.3077 0.0000  plane waves:    4478
 k-point    24 :   0.3846 0.3077 0.0000  plane waves:    4482
 k-point    25 :   0.4615 0.3077 0.0000  plane waves:    4477
 k-point    26 :   0.3846 0.3846 0.0000  plane waves:    4474
 k-point    27 :   0.4615 0.3846 0.0000  plane waves:    4467
 k-point    28 :   0.4615 0.4615 0.0000  plane waves:    4486
 k-point    29 :   0.0000 0.0000 0.2500  plane waves:    4411
 k-point    30 :   0.0769 0.0000 0.2500  plane waves:    4436
 k-point    31 :   0.1538 0.0000 0.2500  plane waves:    4443
 k-point    32 :   0.2308 0.0000 0.2500  plane waves:    4441
 k-point    33 :   0.3077 0.0000 0.2500  plane waves:    4467
 k-point    34 :   0.3846 0.0000 0.2500  plane waves:    4468
 k-point    35 :   0.4615 0.0000 0.2500  plane waves:    4474
 k-point    36 :   0.0769 0.0769 0.2500  plane waves:    4431
 k-point    37 :   0.1538 0.0769 0.2500  plane waves:    4444
 k-point    38 :   0.2308 0.0769 0.2500  plane waves:    4455
 k-point    39 :   0.3077 0.0769 0.2500  plane waves:    4468
 k-point    40 :   0.3846 0.0769 0.2500  plane waves:    4478
 k-point    41 :   0.4615 0.0769 0.2500  plane waves:    4478
 k-point    42 :   0.1538 0.1538 0.2500  plane waves:    4455
 k-point    43 :   0.2308 0.1538 0.2500  plane waves:    4470
 k-point    44 :   0.3077 0.1538 0.2500  plane waves:    4468
 k-point    45 :   0.3846 0.1538 0.2500  plane waves:    4480
 k-point    46 :   0.4615 0.1538 0.2500  plane waves:    4479
 k-point    47 :   0.2308 0.2308 0.2500  plane waves:    4481
 k-point    48 :   0.3077 0.2308 0.2500  plane waves:    4469
 k-point    49 :   0.3846 0.2308 0.2500  plane waves:    4489
 k-point    50 :   0.4615 0.2308 0.2500  plane waves:    4486
 k-point    51 :   0.3077 0.3077 0.2500  plane waves:    4474
 k-point    52 :   0.3846 0.3077 0.2500  plane waves:    4485
 k-point    53 :   0.4615 0.3077 0.2500  plane waves:    4493
 k-point    54 :   0.3846 0.3846 0.2500  plane waves:    4483
 k-point    55 :   0.4615 0.3846 0.2500  plane waves:    4477
 k-point    56 :   0.4615 0.4615 0.2500  plane waves:    4470
 k-point    57 :   0.0000 0.0000 0.5000  plane waves:    4396
 k-point    58 :   0.0769 0.0000 0.5000  plane waves:    4420
 k-point    59 :   0.1538 0.0000 0.5000  plane waves:    4428
 k-point    60 :   0.2308 0.0000 0.5000  plane waves:    4458
 k-point    61 :   0.3077 0.0000 0.5000  plane waves:    4474
 k-point    62 :   0.3846 0.0000 0.5000  plane waves:    4472
 k-point    63 :   0.4615 0.0000 0.5000  plane waves:    4470
 k-point    64 :   0.0769 0.0769 0.5000  plane waves:    4432
 k-point    65 :   0.1538 0.0769 0.5000  plane waves:    4438
 k-point    66 :   0.2308 0.0769 0.5000  plane waves:    4452
 k-point    67 :   0.3077 0.0769 0.5000  plane waves:    4472
 k-point    68 :   0.3846 0.0769 0.5000  plane waves:    4482
 k-point    69 :   0.4615 0.0769 0.5000  plane waves:    4480
 k-point    70 :   0.1538 0.1538 0.5000  plane waves:    4450
 k-point    71 :   0.2308 0.1538 0.5000  plane waves:    4462
 k-point    72 :   0.3077 0.1538 0.5000  plane waves:    4476
 k-point    73 :   0.3846 0.1538 0.5000  plane waves:    4486
 k-point    74 :   0.4615 0.1538 0.5000  plane waves:    4476
 k-point    75 :   0.2308 0.2308 0.5000  plane waves:    4452
 k-point    76 :   0.3077 0.2308 0.5000  plane waves:    4476
 k-point    77 :   0.3846 0.2308 0.5000  plane waves:    4478
 k-point    78 :   0.4615 0.2308 0.5000  plane waves:    4488
 k-point    79 :   0.3077 0.3077 0.5000  plane waves:    4480
 k-point    80 :   0.3846 0.3077 0.5000  plane waves:    4470
 k-point    81 :   0.4615 0.3077 0.5000  plane waves:    4478
 k-point    82 :   0.3846 0.3846 0.5000  plane waves:    4474
 k-point    83 :   0.4615 0.3846 0.5000  plane waves:    4470
 k-point    84 :   0.4615 0.4615 0.5000  plane waves:    4496

 maximum and minimum number of plane-waves per node :      4496     4396

 maximum number of plane-waves:      4496
 maximum index in each direction: 
   IXMAX=    7   IYMAX=    7   IZMAX=   21
   IXMIN=   -7   IYMIN=   -7   IZMIN=  -22


 serial   3D FFT for wavefunctions
 parallel 3D FFT for charge:
    minimum data exchange during FFTs selected (reduces bandwidth)


 total amount of memory used by VASP MPI-rank0   186836. kBytes
=======================================================================

   base      :      30000. kBytes
   nonl-proj :     110020. kBytes
   fftplans  :        955. kBytes
   grid      :       7297. kBytes
   one-center:        373. kBytes
   wavefun   :      38191. kBytes
 
     INWAV:  cpu time      0.0000: real time      0.0000
 Broyden mixing: mesh for mixing (old mesh)
   NGX = 15   NGY = 15   NGZ = 43
  (NGX  = 56   NGY  = 56   NGZ  =180)
  gives a total of   9675 points

 initial charge density was supplied:
 charge density of overlapping atoms calculated
 number of electron     156.0000000 magnetization       2.9480000
 keeping initial charge density in first step


--------------------------------------------------------------------------------------------------------


 Maximum index for augmentation-charges         1054 (set IRDMAX)


--------------------------------------------------------------------------------------------------------


 First call to EWALD:  gamma=   0.323
 Maximum number of real-space cells 4x 4x 2
 Maximum number of reciprocal cells 2x 2x 5

    FEWALD:  cpu time      0.0018: real time      0.0019


--------------------------------------- Ionic step        1  -------------------------------------------




--------------------------------------- Iteration      1(   1)  ---------------------------------------


    POTLOK:  cpu time      0.0464: real time      0.0492
    SETDIJ:  cpu time      0.0137: real time      0.0139
     EDDAV:  cpu time      4.6458: real time      4.6817
 BZINTS: Fermi energy:   23.460021;  156.000000 electrons
         Band energy: 0.376040E+03;  BLOECHL correction:   -0.072824
       DOS:  cpu time      0.1015: real time      0.1023
    --------------------------------------------
      LOOP:  cpu time      4.8075: real time      4.8472

 eigenvalue-minimisations  : 32256
 total energy-change (2. order) : 0.1732996E+04  (-0.9199844E+04)
 number of electron     156.0000000 magnetization       2.9480000
 augmentation part      156.0000000 magnetization       2.9480000

 Free energy of the ion-electron system (eV)
  ---------------------------------------------------
  alpha Z        PSCENC =      1025.24174436
  Ewald energy   TEWEN  =    -17704.75676456
  -Hartree energ DENC   =     -6198.50186981
  -exchange      EXHF   =         0.00000000
  -V(xc)+E(xc)   XCENC  =       654.77020085
  PAW double counting   =     20093.70666982   -20817.60685813
  entropy T*S    EENTRO =         0.00000000
  eigenvalues    EBANDS =       376.03976747
  atomic energy  EATOM  =     24304.10294433
  Solvation  Ediel_sol  =         0.00000000
  ---------------------------------------------------
  free energy    TOTEN  =      1732.99583431 eV

  energy without entropy =     1732.99583431  energy(sigma->0) =     1732.99583431


--------------------------------------------------------------------------------------------------------




--------------------------------------- Iteration      1(   2)  ---------------------------------------


     EDDAV:  cpu time      4.7147: real time      4.7585
 BZINTS: Fermi energy:   11.807312;  156.000000 electrons
         Band energy:-0.134483E+04;  BLOECHL correction:   -0.039135
       DOS:  cpu time      0.1008: real time      0.1016
    --------------------------------------------
      LOOP:  cpu time      4.8155: real time      4.8600

 eigenvalue-minimisations  : 32320
 total energy-change (2. order) :-0.1720866E+04  (-0.1691919E+04)
 number of electron     156.0000000 magnetization       2.9480000
 augmentation part      156.0000000 magnetization       2.9480000

 Free energy of the ion-electron system (eV)
  ---------------------------------------------------
  alpha Z        PSCENC =      1025.24174436
  Ewald energy   TEWEN  =    -17704.75676456
  -Hartree energ DENC   =     -6198.50186981
  -exchange      EXHF   =         0.00000000
  -V(xc)+E(xc)   XCENC  =       654.77020085
  PAW double counting   =     20093.70666982   -20817.60685813
  entropy T*S    EENTRO =         0.00000000
  eigenvalues    EBANDS =     -1344.82577114
  atomic energy  EATOM  =     24304.10294433
  Solvation  Ediel_sol  =         0.00000000
  ---------------------------------------------------
  free energy    TOTEN  =        12.13029570 eV

  energy without entropy =       12.13029570  energy(sigma->0) =       12.13029570


--------------------------------------------------------------------------------------------------------




--------------------------------------- Iteration      1(   3)  ---------------------------------------


     EDDAV:  cpu time      6.1912: real time      6.2434
 BZINTS: Fermi energy:   10.838134;  156.000000 electrons
         Band energy:-0.145899E+04;  BLOECHL correction:   -0.027419
       DOS:  cpu time      0.0998: real time      0.1005
    --------------------------------------------
      LOOP:  cpu time      6.2909: real time      6.3439

 eigenvalue-minimisations  : 42336
 total energy-change (2. order) :-0.1141652E+03  (-0.1128890E+03)
 number of electron     156.0000000 magnetization       2.9480000
 augmentation part      156.0000000 magnetization       2.9480000

 Free energy of the ion-electron system (eV)
  ---------------------------------------------------
  alpha Z        PSCENC =      1025.24174436
  Ewald energy   TEWEN  =    -17704.75676456
  -Hartree energ DENC   =     -6198.50186981
  -exchange      EXHF   =         0.00000000
  -V(xc)+E(xc)   XCENC  =       654.77020085
  PAW double counting   =     20093.70666982   -20817.60685813
  entropy T*S    EENTRO =         0.00000000
  eigenvalues    EBANDS =     -1458.99093565
  atomic energy  EATOM  =     24304.10294433
  Solvation  Ediel_sol  =         0.00000000
  ---------------------------------------------------
  free energy    TOTEN  =      -102.03486881 eV

  energy without entropy =     -102.03486881  energy(sigma->0) =     -102.03486881


--------------------------------------------------------------------------------------------------------




--------------------------------------- Iteration      1(   4)  ---------------------------------------


     EDDAV:  cpu time      4.6120: real time      4.6560
 BZINTS: Fermi energy:   10.826428;  156.000000 electrons
         Band energy:-0.146151E+04;  BLOECHL correction:   -0.027344
       DOS:  cpu time      0.1011: real time      0.1019
    --------------------------------------------
      LOOP:  cpu time      4.7131: real time      4.7579

 eigenvalue-minimisations  : 32448
 total energy-change (2. order) :-0.2514744E+01  (-0.2513146E+01)
 number of electron     156.0000000 magnetization       2.9480000
 augmentation part      156.0000000 magnetization       2.9480000

 Free energy of the ion-electron system (eV)
  ---------------------------------------------------
  alpha Z        PSCENC =      1025.24174436
  Ewald energy   TEWEN  =    -17704.75676456
  -Hartree energ DENC   =     -6198.50186981
  -exchange      EXHF   =         0.00000000
  -V(xc)+E(xc)   XCENC  =       654.77020085
  PAW double counting   =     20093.70666982   -20817.60685813
  entropy T*S    EENTRO =         0.00000000
  eigenvalues    EBANDS =     -1461.50567925
  atomic energy  EATOM  =     24304.10294433
  Solvation  Ediel_sol  =         0.00000000
  ---------------------------------------------------
  free energy    TOTEN  =      -104.54961241 eV

  energy without entropy =     -104.54961241  energy(sigma->0) =     -104.54961241


--------------------------------------------------------------------------------------------------------




--------------------------------------- Iteration      1(   5)  ---------------------------------------


     EDDAV:  cpu time      6.0432: real time      6.0970
 BZINTS: Fermi energy:   10.826203;  156.000000 electrons
         Band energy:-0.146156E+04;  BLOECHL correction:   -0.027344
       DOS:  cpu time      0.1002: real time      0.1009
    CHARGE:  cpu time      0.1622: real time      0.1637
    MIXING:  cpu time      0.0073: real time      0.0073
    --------------------------------------------
      LOOP:  cpu time      6.3129: real time      6.3690

 eigenvalue-minimisations  : 41280
 total energy-change (2. order) :-0.5724115E-01  (-0.5723730E-01)
 number of electron     155.9999970 magnetization       2.9263875
 augmentation part       79.2744573 magnetization       2.0313393

 Broyden mixing:
  rms(total) = 0.36018E+01    rms(broyden)= 0.36016E+01
  rms(prec ) = 0.41366E+01
  weight for this iteration     100.00

 Free energy of the ion-electron system (eV)
  ---------------------------------------------------
  alpha Z        PSCENC =      1025.24174436
  Ewald energy   TEWEN  =    -17704.75676456
  -Hartree energ DENC   =     -6198.50186981
  -exchange      EXHF   =         0.00000000
  -V(xc)+E(xc)   XCENC  =       654.77020085
  PAW double counting   =     20093.70666982   -20817.60685813
  entropy T*S    EENTRO =         0.00000000
  eigenvalues    EBANDS =     -1461.56292040
  atomic energy  EATOM  =     24304.10294433
  Solvation  Ediel_sol  =         0.00000000
  ---------------------------------------------------
  free energy    TOTEN  =      -104.60685355 eV

  energy without entropy =     -104.60685355  energy(sigma->0) =     -104.60685355


--------------------------------------------------------------------------------------------------------




--------------------------------------- Iteration      1(   6)  ---------------------------------------


    POTLOK:  cpu time      0.0352: real time      0.0457
    SETDIJ:  cpu time      0.0079: real time      0.0079
     EDDAV:  cpu time      5.4261: real time      5.4633
 BZINTS: Fermi energy:    8.114262;  156.000000 electrons
         Band energy:-0.191108E+04;  BLOECHL correction:   -0.031342
       DOS:  cpu time      0.1083: real time      0.1090
    CHARGE:  cpu time      0.1563: real time      0.1573
    MIXING:  cpu time      0.0037: real time      0.0079
    --------------------------------------------
      LOOP:  cpu time      5.7376: real time      5.7911

 eigenvalue-minimisations  : 38048
 total energy-change (2. order) :-0.8164046E+01  (-0.2513881E+02)
 number of electron     155.9999972 magnetization       2.8945196
 augmentation part       89.1258967 magnetization       2.4959945

 Broyden mixing:
  rms(total) = 0.71133E+01    rms(broyden)= 0.71131E+01
  rms(prec ) = 0.94857E+01
  weight for this iteration     100.00

 eigenvalues of (default mixing * dielectric matrix)
  average eigenvalue GAMMA=   0.1963
  0.1963

 Free energy of the ion-electron system (eV)
  ---------------------------------------------------
  alpha Z        PSCENC =      1025.24174436
  Ewald energy   TEWEN  =    -17704.75676456
  -Hartree energ DENC   =     -5765.40825116
  -exchange      EXHF   =         0.00000000
  -V(xc)+E(xc)   XCENC  =       637.09874331
  PAW double counting   =     20220.07144978   -20918.03963054
  entropy T*S    EENTRO =         0.00000000
  eigenvalues    EBANDS =     -1911.08113538
  atomic energy  EATOM  =     24304.10294433
  Solvation  Ediel_sol  =         0.00000000
  ---------------------------------------------------
  free energy    TOTEN  =      -112.77089988 eV

  energy without entropy =     -112.77089988  energy(sigma->0) =     -112.77089988


--------------------------------------------------------------------------------------------------------




--------------------------------------- Iteration      1(   7)  ---------------------------------------


    POTLOK:  cpu time      0.0340: real time      0.0450
    SETDIJ:  cpu time      0.0082: real time      0.0083
     EDDAV:  cpu time      6.2984: real time      6.3402
 BZINTS: Fermi energy:    8.931489;  156.000000 electrons
         Band energy:-0.180487E+04;  BLOECHL correction:   -0.016988
       DOS:  cpu time      0.1081: real time      0.1087
    CHARGE:  cpu time      0.1546: real time      0.1555
    MIXING:  cpu time      0.0021: real time      0.0023
    --------------------------------------------
      LOOP:  cpu time      6.6055: real time      6.6600

 eigenvalue-minimisations  : 43744
 total energy-change (2. order) : 0.4563283E+01  (-0.4591944E+02)
 number of electron     155.9999968 magnetization       3.3009471
 augmentation part       86.1349054 magnetization       1.2771983

 Broyden mixing:
  rms(total) = 0.55492E+01    rms(broyden)= 0.55490E+01
  rms(prec ) = 0.76728E+01
  weight for this iteration     100.00

 eigenvalues of (default mixing * dielectric matrix)
  average eigenvalue GAMMA=   0.2778
  0.4187  0.1369

 Free energy of the ion-electron system (eV)
  ---------------------------------------------------
  alpha Z        PSCENC =      1025.24174436
  Ewald energy   TEWEN  =    -17704.75676456
  -Hartree energ DENC   =     -5851.93922100
  -exchange      EXHF   =         0.00000000
  -V(xc)+E(xc)   XCENC  =       639.18880492
  PAW double counting   =     20541.00470883   -21256.17619299
  entropy T*S    EENTRO =         0.00000000
  eigenvalues    EBANDS =     -1804.87364078
  atomic energy  EATOM  =     24304.10294433
  Solvation  Ediel_sol  =         0.00000000
  ---------------------------------------------------
  free energy    TOTEN  =      -108.20761689 eV

  energy without entropy =     -108.20761689  energy(sigma->0) =     -108.20761689


--------------------------------------------------------------------------------------------------------




--------------------------------------- Iteration      1(   8)  ---------------------------------------


    POTLOK:  cpu time      0.0336: real time      0.0460
    SETDIJ:  cpu time      0.0081: real time      0.0081
     EDDAV:  cpu time      6.5647: real time      6.6097
 BZINTS: Fermi energy:    9.336796;  156.000000 electrons
         Band energy:-0.170179E+04;  BLOECHL correction:   -0.018565
       DOS:  cpu time      0.1071: real time      0.1077
    CHARGE:  cpu time      0.1552: real time      0.1560
    MIXING:  cpu time      0.0018: real time      0.0019
    --------------------------------------------
      LOOP:  cpu time      6.8706: real time      6.9294

 eigenvalue-minimisations  : 44192
 total energy-change (2. order) : 0.1384733E+02  (-0.7154382E+01)
 number of electron     155.9999966 magnetization       3.2231993
 augmentation part       84.0679403 magnetization       3.4372022

 Broyden mixing:
  rms(total) = 0.21757E+01    rms(broyden)= 0.21754E+01
  rms(prec ) = 0.30803E+01
  weight for this iteration     100.00

 eigenvalues of (default mixing * dielectric matrix)
  average eigenvalue GAMMA=   0.4537
  0.9077  0.3238  0.1297

 Free energy of the ion-electron system (eV)
  ---------------------------------------------------
  alpha Z        PSCENC =      1025.24174436
  Ewald energy   TEWEN  =    -17704.75676456
  -Hartree energ DENC   =     -5924.53953647
  -exchange      EXHF   =         0.00000000
  -V(xc)+E(xc)   XCENC  =       641.54821804
  PAW double counting   =     20949.52440283   -21683.68914707
  entropy T*S    EENTRO =         0.00000000
  eigenvalues    EBANDS =     -1701.79214836
  atomic energy  EATOM  =     24304.10294433
  Solvation  Ediel_sol  =         0.00000000
  ---------------------------------------------------
  free energy    TOTEN  =       -94.36028691 eV

  energy without entropy =      -94.36028691  energy(sigma->0) =      -94.36028691


--------------------------------------------------------------------------------------------------------




--------------------------------------- Iteration      1(   9)  ---------------------------------------


    POTLOK:  cpu time      0.0343: real time      0.0464
    SETDIJ:  cpu time      0.0081: real time      0.0082
     EDDAV:  cpu time      6.2959: real time      6.3371
 BZINTS: Fermi energy:    9.224237;  156.000000 electrons
         Band energy:-0.172759E+04;  BLOECHL correction:   -0.018976
       DOS:  cpu time      0.1082: real time      0.1088
    CHARGE:  cpu time      0.1556: real time      0.1567
    MIXING:  cpu time      0.0018: real time      0.0018
    --------------------------------------------
      LOOP:  cpu time      6.6040: real time      6.6590

 eigenvalue-minimisations  : 44000
 total energy-change (2. order) :-0.8588600E+01  (-0.1563187E+02)
 number of electron     155.9999970 magnetization       3.5444968
 augmentation part       84.6702675 magnetization       0.4029019

 Broyden mixing:
  rms(total) = 0.49644E+01    rms(broyden)= 0.49643E+01
  rms(prec ) = 0.72729E+01
  weight for this iteration     100.00

 eigenvalues of (default mixing * dielectric matrix)
  average eigenvalue GAMMA=   0.4158
  1.0901  0.3400  0.1353  0.0980

 Free energy of the ion-electron system (eV)
  ---------------------------------------------------
  alpha Z        PSCENC =      1025.24174436
  Ewald energy   TEWEN  =    -17704.75676456
  -Hartree energ DENC   =     -5900.58821540
  -exchange      EXHF   =         0.00000000
  -V(xc)+E(xc)   XCENC  =       641.23626569
  PAW double counting   =     21178.07969125   -21918.67157370
  entropy T*S    EENTRO =         0.00000000
  eigenvalues    EBANDS =     -1727.59297896
  atomic energy  EATOM  =     24304.10294433
  Solvation  Ediel_sol  =         0.00000000
  ---------------------------------------------------
  free energy    TOTEN  =      -102.94888700 eV

  energy without entropy =     -102.94888700  energy(sigma->0) =     -102.94888700


--------------------------------------------------------------------------------------------------------




--------------------------------------- Iteration      1(  10)  ---------------------------------------


    POTLOK:  cpu time      0.0341: real time      0.0465
    SETDIJ:  cpu time      0.0080: real time      0.0081
     EDDAV:  cpu time      6.7476: real time      6.7916
 BZINTS: Fermi energy:    8.973269;  156.000000 electrons
         Band energy:-0.173700E+04;  BLOECHL correction:   -0.021699
       DOS:  cpu time      0.1073: real time      0.1087
    CHARGE:  cpu time      0.1563: real time      0.1571
    MIXING:  cpu time      0.0019: real time      0.0019
    --------------------------------------------
      LOOP:  cpu time      7.0552: real time      7.1140

 eigenvalue-minimisations  : 45472
 total energy-change (2. order) : 0.1032633E+02  (-0.4920432E+01)
 number of electron     155.9999967 magnetization       3.5594174
 augmentation part       84.8568749 magnetization       2.6905546

 Broyden mixing:
  rms(total) = 0.12702E+01    rms(broyden)= 0.12698E+01
  rms(prec ) = 0.15057E+01
  weight for this iteration     100.00

 eigenvalues of (default mixing * dielectric matrix)
  average eigenvalue GAMMA=   0.3735
  1.0696  0.2788  0.2788  0.1201  0.1201

 Free energy of the ion-electron system (eV)
  ---------------------------------------------------
  alpha Z        PSCENC =      1025.24174436
  Ewald energy   TEWEN  =    -17704.75676456
  -Hartree energ DENC   =     -5876.84101142
  -exchange      EXHF   =         0.00000000
  -V(xc)+E(xc)   XCENC  =       640.49429286
  PAW double counting   =     21320.79443088   -22064.66006613
  entropy T*S    EENTRO =         0.00000000
  eigenvalues    EBANDS =     -1736.99813122
  atomic energy  EATOM  =     24304.10294433
  Solvation  Ediel_sol  =         0.00000000
  ---------------------------------------------------
  free energy    TOTEN  =       -92.62256090 eV

  energy without entropy =      -92.62256090  energy(sigma->0) =      -92.62256090


--------------------------------------------------------------------------------------------------------




--------------------------------------- Iteration      1(  11)  ---------------------------------------


    POTLOK:  cpu time      0.0349: real time      0.0476
    SETDIJ:  cpu time      0.0080: real time      0.0080
     EDDAV:  cpu time      6.2453: real time      6.2865
 BZINTS: Fermi energy:    9.008962;  156.000000 electrons
         Band energy:-0.173668E+04;  BLOECHL correction:   -0.024798
       DOS:  cpu time      0.1087: real time      0.1094
    CHARGE:  cpu time      0.1550: real time      0.1564
    MIXING:  cpu time      0.0020: real time      0.0020
    --------------------------------------------
      LOOP:  cpu time      6.5539: real time      6.6098

 eigenvalue-minimisations  : 42880
 total energy-change (2. order) :-0.3243519E+00  (-0.9154817E+00)
 number of electron     155.9999966 magnetization       3.5684920
 augmentation part       84.8164989 magnetization       2.7539730

 Broyden mixing:
  rms(total) = 0.11405E+01    rms(broyden)= 0.11405E+01
  rms(prec ) = 0.14681E+01
  weight for this iteration     100.00

 eigenvalues of (default mixing * dielectric matrix)
  average eigenvalue GAMMA=   0.3681
  1.0611  0.3501  0.3501  0.1938  0.1449  0.1084

 Free energy of the ion-electron system (eV)
  ---------------------------------------------------
  alpha Z        PSCENC =      1025.24174436
  Ewald energy   TEWEN  =    -17704.75676456
  -Hartree energ DENC   =     -5876.10249198
  -exchange      EXHF   =         0.00000000
  -V(xc)+E(xc)   XCENC  =       640.86289204
  PAW double counting   =     21368.40119003   -22114.02141063
  entropy T*S    EENTRO =         0.00000000
  eigenvalues    EBANDS =     -1736.67501639
  atomic energy  EATOM  =     24304.10294433
  Solvation  Ediel_sol  =         0.00000000
  ---------------------------------------------------
  free energy    TOTEN  =       -92.94691280 eV

  energy without entropy =      -92.94691280  energy(sigma->0) =      -92.94691280


--------------------------------------------------------------------------------------------------------




--------------------------------------- Iteration      1(  12)  ---------------------------------------


    POTLOK:  cpu time      0.0343: real time      0.0461
    SETDIJ:  cpu time      0.0080: real time      0.0081
     EDDAV:  cpu time      6.0593: real time      6.0997
 BZINTS: Fermi energy:    9.036648;  156.000000 electrons
         Band energy:-0.173684E+04;  BLOECHL correction:   -0.026003
       DOS:  cpu time      0.1075: real time      0.1087
    CHARGE:  cpu time      0.1558: real time      0.1567
    MIXING:  cpu time      0.0019: real time      0.0019
    --------------------------------------------
      LOOP:  cpu time      6.3668: real time      6.4212

 eigenvalue-minimisations  : 42112
 total energy-change (2. order) : 0.5008892E-01  (-0.4474672E+00)
 number of electron     155.9999966 magnetization       3.4130444
 augmentation part       84.7556525 magnetization       2.7996474

 Broyden mixing:
  rms(total) = 0.72226E+00    rms(broyden)= 0.72221E+00
  rms(prec ) = 0.81530E+00
  weight for this iteration     100.00

 eigenvalues of (default mixing * dielectric matrix)
  average eigenvalue GAMMA=   0.5844
  1.5976  0.8776  0.8776  0.3497  0.1069  0.1406  0.1406

 Free energy of the ion-electron system (eV)
  ---------------------------------------------------
  alpha Z        PSCENC =      1025.24174436
  Ewald energy   TEWEN  =    -17704.75676456
  -Hartree energ DENC   =     -5874.10386133
  -exchange      EXHF   =         0.00000000
  -V(xc)+E(xc)   XCENC  =       641.40812829
  PAW double counting   =     21433.58951901   -22181.53951740
  entropy T*S    EENTRO =         0.00000000
  eigenvalues    EBANDS =     -1736.83901659
  atomic energy  EATOM  =     24304.10294433
  Solvation  Ediel_sol  =         0.00000000
  ---------------------------------------------------
  free energy    TOTEN  =       -92.89682389 eV

  energy without entropy =      -92.89682389  energy(sigma->0) =      -92.89682389


--------------------------------------------------------------------------------------------------------




--------------------------------------- Iteration      1(  13)  ---------------------------------------


    POTLOK:  cpu time      0.0351: real time      0.0476
    SETDIJ:  cpu time      0.0080: real time      0.0080
     EDDAV:  cpu time      5.9994: real time      6.0389
 BZINTS: Fermi energy:    9.028075;  156.000000 electrons
         Band energy:-0.174923E+04;  BLOECHL correction:   -0.024413
       DOS:  cpu time      0.1084: real time      0.1092
    CHARGE:  cpu time      0.1558: real time      0.1567
    MIXING:  cpu time      0.0021: real time      0.0022
    --------------------------------------------
      LOOP:  cpu time      6.3088: real time      6.3625

 eigenvalue-minimisations  : 40640
 total energy-change (2. order) :-0.3033943E-01  (-0.2188203E+00)
 number of electron     155.9999966 magnetization       3.3348339
 augmentation part       85.0102963 magnetization       2.7312211

 Broyden mixing:
  rms(total) = 0.40184E+00    rms(broyden)= 0.40179E+00
  rms(prec ) = 0.57643E+00
  weight for this iteration     100.00

 eigenvalues of (default mixing * dielectric matrix)
  average eigenvalue GAMMA=   0.6119
  1.9399  0.8816  0.8816  0.4388  0.3628  0.1071  0.1415  0.1415

 Free energy of the ion-electron system (eV)
  ---------------------------------------------------
  alpha Z        PSCENC =      1025.24174436
  Ewald energy   TEWEN  =    -17704.75676456
  -Hartree energ DENC   =     -5855.64163993
  -exchange      EXHF   =         0.00000000
  -V(xc)+E(xc)   XCENC  =       642.30907552
  PAW double counting   =     21662.61801813   -22417.57134807
  entropy T*S    EENTRO =         0.00000000
  eigenvalues    EBANDS =     -1749.22919309
  atomic energy  EATOM  =     24304.10294433
  Solvation  Ediel_sol  =         0.00000000
  ---------------------------------------------------
  free energy    TOTEN  =       -92.92716331 eV

  energy without entropy =      -92.92716331  energy(sigma->0) =      -92.92716331


--------------------------------------------------------------------------------------------------------




--------------------------------------- Iteration      1(  14)  ---------------------------------------


    POTLOK:  cpu time      0.0328: real time      0.0462
    SETDIJ:  cpu time      0.0081: real time      0.0081
     EDDAV:  cpu time      6.4841: real time      6.5267
[...]
     81       9.1948      0.00000
     82       9.2530      0.00000
     83       9.4626      0.00000
     84       9.7727      0.00000
     85       9.8161      0.00000
     86       9.8679      0.00000
     87       9.9954      0.00000
     88      10.0209      0.00000
     89      10.3361      0.00000
     90      10.3583      0.00000
     91      10.4598      0.00000
     92      10.5714      0.00000
     93      10.5991      0.00000
     94      11.0157      0.00000
     95      11.0780      0.00000
     96      11.1868      0.00000


--------------------------------------------------------------------------------------------------------


 soft charge-density along one line, spin component           1
         0         1         2         3         4         5         6         7         8         9
 total charge-density along one line
 
 soft charge-density along one line, spin component           2
         0         1         2         3         4         5         6         7         8         9
 total charge-density along one line
 
 pseudopotential strength for first ion, spin component:           1
-43.326  -0.000  -0.000   6.913   0.000   0.000  -0.000   0.000
 -0.000 -43.325   0.000   0.000   6.912  -0.000   0.000   0.000
 -0.000   0.000 -43.259   0.000  -0.000   6.885   0.000   0.000
  6.913   0.000   0.000   5.847   0.000   0.000   0.000   0.000
  0.000   6.912  -0.000   0.000   5.848  -0.000  -0.000  -0.000
  0.000  -0.000   6.885   0.000  -0.000   5.855  -0.000  -0.000
 -0.000   0.000   0.000   0.000  -0.000  -0.000  -0.752   0.000
  0.000   0.000   0.000   0.000  -0.000  -0.000   0.000  -0.736
 -0.000  -0.000   0.000   0.000   0.000  -0.000   0.000  -0.000
  0.000  -0.000  -0.000  -0.000   0.000   0.000  -0.000  -0.000
 -0.000  -0.000  -0.000   0.000  -0.000   0.000  -0.000   0.000
 -0.000   0.000   0.000   0.000  -0.000  -0.000  -1.287   0.000
  0.000   0.000   0.000   0.000  -0.000  -0.000   0.000  -1.271
 -0.000  -0.000   0.000   0.000   0.000  -0.000   0.000  -0.000
  0.000  -0.000  -0.000  -0.000   0.000   0.000  -0.000  -0.000
 -0.000  -0.000  -0.000   0.000  -0.000   0.000  -0.000   0.000
 -0.000   0.000   0.000  -0.000  -0.000   0.000   0.000   0.000
 -0.000   0.000   0.000  -0.000  -0.000  -0.000   0.000   0.000
 pseudopotential strength for first ion, spin component:           2
-45.694  -0.000  -0.000   7.908   0.000   0.000  -0.000   0.000
 -0.000 -45.662   0.000   0.000   7.895  -0.000  -0.000   0.000
 -0.000   0.000 -45.503   0.000  -0.000   7.831   0.000  -0.000
  7.908   0.000   0.000   5.567   0.000   0.000   0.000  -0.000
  0.000   7.895  -0.000   0.000   5.569  -0.000   0.000  -0.000
  0.000  -0.000   7.831   0.000  -0.000   5.582  -0.000   0.000
 -0.000  -0.000   0.000   0.000   0.000  -0.000  -2.600   0.000
  0.000   0.000  -0.000  -0.000  -0.000   0.000   0.000  -2.769
 -0.000   0.000   0.000   0.000  -0.000  -0.000   0.000  -0.000
 -0.000  -0.000  -0.000   0.000   0.000   0.000  -0.000  -0.000
 -0.000  -0.000  -0.000   0.000   0.000   0.000  -0.000   0.000
 -0.000  -0.000   0.000  -0.000   0.000  -0.000  -3.106   0.000
  0.000   0.000  -0.000  -0.000  -0.000   0.000   0.000  -3.272
 -0.000   0.000   0.000   0.000  -0.000  -0.000   0.000  -0.000
 -0.000  -0.000  -0.000   0.000   0.000   0.000  -0.000  -0.000
 -0.000  -0.000  -0.000   0.000   0.000   0.000  -0.000   0.000
 -0.000  -0.000   0.000  -0.000  -0.000   0.000   0.000   0.000
 -0.000  -0.000   0.000  -0.000  -0.000   0.000   0.000   0.000
 total augmentation occupancy for first ion, spin component:           1
  1.992   0.000   0.000  -0.027   0.000   0.000   0.000   0.000   0.000   0.000   0.000   0.000  -0.000   0.000   0.000   0.000
  0.000   1.992   0.000   0.000  -0.027   0.000  -0.000   0.000   0.000  -0.000   0.000   0.000   0.000  -0.000   0.000  -0.000
  0.000   0.000   1.992  -0.000   0.000  -0.026  -0.000   0.000   0.000   0.000   0.000   0.000   0.000   0.000  -0.000   0.000
 -0.027   0.000  -0.000   0.156   0.000   0.000   0.000   0.000   0.000   0.000   0.000   0.000  -0.000   0.000   0.000   0.000
  0.000  -0.027   0.000   0.000   0.160   0.000   0.000  -0.000   0.000   0.000  -0.000  -0.000   0.000  -0.000  -0.000   0.000
  0.000   0.000  -0.026   0.000   0.000   0.162   0.000   0.000  -0.000   0.000   0.000   0.000   0.000   0.000   0.000  -0.000
  0.000  -0.000  -0.000   0.000   0.000   0.000   2.834  -0.000   0.000   0.000  -0.000  -1.501   0.000   0.000  -0.000   0.000
  0.000   0.000   0.000   0.000  -0.000   0.000  -0.000   2.996   0.000   0.000   0.000   0.000  -1.898   0.000   0.000  -0.000
  0.000   0.000   0.000   0.000   0.000  -0.000   0.000   0.000   3.315   0.000   0.137   0.000   0.000  -1.834  -0.000  -0.012
  0.000  -0.000   0.000   0.000   0.000   0.000   0.000   0.000   0.000   2.716  -0.000   0.000   0.000  -0.000  -1.418   0.000
  0.000   0.000   0.000   0.000  -0.000   0.000  -0.000   0.000   0.137  -0.000   3.107  -0.000  -0.000  -0.013   0.000  -1.724
  0.000   0.000   0.000   0.000  -0.000   0.000  -1.501   0.000   0.000   0.000  -0.000   1.573   0.000   0.000   0.000  -0.000
 -0.000   0.000   0.000  -0.000   0.000   0.000   0.000  -1.898   0.000   0.000  -0.000   0.000   2.011   0.000   0.000   0.000
  0.000  -0.000   0.000   0.000  -0.000   0.000   0.000   0.000  -1.834  -0.000  -0.013   0.000   0.000   1.650   0.000  -0.063
  0.000   0.000  -0.000   0.000  -0.000   0.000  -0.000   0.000  -0.000  -1.418   0.000   0.000   0.000   0.000   1.587   0.000
  0.000  -0.000   0.000   0.000   0.000  -0.000   0.000  -0.000  -0.012   0.000  -1.724  -0.000   0.000  -0.063   0.000   1.620
  0.000   0.000   0.000   0.000  -0.000  -0.000   0.000   0.000  -0.071   0.000   0.082   0.000   0.000   0.051   0.000  -0.003
  0.000  -0.000   0.000   0.000  -0.000   0.000   0.000   0.000   0.008   0.000  -0.015   0.000   0.000  -0.005  -0.000   0.006
 total augmentation occupancy for first ion, spin component:           2
  0.002   0.000   0.000   0.009   0.000   0.000   0.000   0.000   0.000   0.000   0.000   0.000  -0.000   0.000  -0.000   0.000
  0.000   0.002   0.000   0.000   0.009   0.000   0.000   0.000   0.000   0.000  -0.000   0.000  -0.000  -0.000   0.000   0.000
  0.000   0.000   0.002   0.000   0.000   0.010   0.000   0.000   0.000  -0.000   0.000   0.000  -0.000   0.000   0.000   0.000
  0.009   0.000   0.000  -0.003   0.000   0.000   0.000  -0.000   0.000   0.000   0.000   0.000  -0.000   0.000  -0.000   0.000
  0.000   0.009   0.000   0.000   0.006  -0.000   0.000   0.000  -0.000  -0.000   0.000  -0.000   0.000   0.000  -0.000   0.000
  0.000   0.000   0.010   0.000  -0.000   0.008   0.000   0.000   0.000   0.000   0.000   0.000  -0.000   0.000   0.000   0.000
  0.000   0.000   0.000   0.000   0.000   0.000  -2.365   0.000   0.000   0.000   0.000   1.028   0.000   0.000   0.000  -0.000
  0.000   0.000   0.000  -0.000   0.000   0.000   0.000  -2.285   0.000   0.000  -0.000   0.000   0.788   0.000   0.000   0.000
  0.000   0.000   0.000   0.000  -0.000   0.000   0.000   0.000  -2.732  -0.000  -0.074   0.000   0.000   1.177   0.000   0.120
  0.000   0.000  -0.000   0.000  -0.000   0.000   0.000   0.000  -0.000  -2.195   0.000  -0.000   0.000   0.000   0.947   0.000
  0.000  -0.000   0.000   0.000   0.000   0.000   0.000  -0.000  -0.074   0.000  -2.581   0.000  -0.000   0.119  -0.000   1.031
  0.000   0.000   0.000   0.000  -0.000   0.000   1.028   0.000   0.000  -0.000   0.000  -0.249   0.000   0.000  -0.000   0.000
 -0.000  -0.000  -0.000  -0.000   0.000  -0.000   0.000   0.788   0.000   0.000  -0.000   0.000  -0.011   0.000   0.000   0.000
  0.000  -0.000   0.000   0.000   0.000   0.000   0.000   0.000   1.177   0.000   0.119   0.000   0.000  -0.373   0.000  -0.139
 -0.000   0.000   0.000  -0.000  -0.000   0.000   0.000   0.000   0.000   0.947  -0.000  -0.000   0.000   0.000  -0.173   0.000
  0.000   0.000   0.000   0.000   0.000   0.000  -0.000   0.000   0.120   0.000   1.031   0.000   0.000  -0.139   0.000  -0.226
  0.000  -0.000   0.000   0.000  -0.000   0.000   0.000   0.000   0.005   0.000  -0.045   0.000   0.000  -0.007   0.000   0.068
  0.000   0.000  -0.000   0.000   0.000   0.000   0.000   0.000  -0.004  -0.000   0.012   0.000   0.000   0.001   0.000  -0.004


------------------------ aborting loop because EDIFF is reached ----------------------------------------





 total charge

# of ion       s       p       d       tot
------------------------------------------
    1        0.337   6.294   6.014  12.645
    2        0.331   6.289   5.981  12.601
    3        0.331   6.289   5.981  12.601
    4        0.337   6.297   5.978  12.612
    5        0.337   6.297   5.978  12.612
    6        0.334   6.295   5.974  12.604
    7        0.337   6.294   6.014  12.645
    8        0.331   6.289   5.981  12.601
    9        0.331   6.289   5.981  12.601
   10        0.741   0.612   8.010   9.364
   11        0.741   0.612   8.010   9.364
   12        0.726   0.636   8.004   9.367
--------------------------------------------------
tot          5.216  58.493  77.908 141.616



 magnetization (x)

# of ion       s       p       d       tot
------------------------------------------
    1       -0.007   0.009  -2.725  -2.723
    2        0.012   0.002   2.716   2.730
    3        0.012   0.002   2.716   2.730
    4       -0.016  -0.026  -2.716  -2.758
    5       -0.016  -0.026  -2.716  -2.758
    6        0.006  -0.017   2.905   2.893
    7       -0.007   0.009  -2.725  -2.723
    8        0.012   0.002   2.716   2.730
    9        0.012   0.002   2.716   2.730
   10        0.008   0.018  -0.105  -0.079
   11        0.008   0.018  -0.105  -0.079
   12       -0.039  -0.091   0.376   0.247
--------------------------------------------------
tot         -0.017  -0.096   3.051   2.939
 
    CHARGE:  cpu time      0.1556: real time      0.1565
    FORLOC:  cpu time      0.0015: real time      0.0016
    FORNL :  cpu time      0.5924: real time      0.5962
    STRESS:  cpu time      4.5255: real time      4.5633
    FORCOR:  cpu time      0.0216: real time      0.0218
    FORHAR:  cpu time      0.0028: real time      0.0028
    MIXING:  cpu time      0.0027: real time      0.0027
    OFIELD:  cpu time      0.0015: real time      0.0020

  FORCE on cell =-STRESS in cart. coord.  units (eV):
  Direction    XX          YY          ZZ          XY          YZ          ZX
  --------------------------------------------------------------------------------------
  Alpha Z  1025.24174  1025.24174  1025.24174
  Ewald   -5882.66397 -5882.66397 -5939.45463     0.00000    -0.00000     0.00000
  Hartree  1967.08255  1967.08255  1914.43683    -0.00000    -0.00000    -0.00000
  E(xc)    -942.01651  -942.01651  -941.94428    -0.00000    -0.00000     0.00000
  Local     918.91933   918.91933  1038.88728     0.00000     0.00000     0.00000
  n-local  -224.76840  -239.66663  -232.93825    13.48941     0.01314    -0.03074
  augment  1442.68044  1442.68044  1436.44986     0.00000     0.00000    -0.00000
  Kinetic  1698.57579  1684.73942  1688.28455     1.72402     0.27706     0.51688
  Fock        0.00000     0.00000     0.00000     0.00000     0.00000     0.00000
  -------------------------------------------------------------------------------------
  Total     -11.31632   -11.31632   -11.03690     0.00000    -0.00000     0.00000
  in kB    -109.22144  -109.22144  -106.52449     0.00000    -0.00000     0.00000
  external pressure =     -108.32 kB  Pullay stress =        0.00 kB


 VOLUME and BASIS-vectors are now :
 -----------------------------------------------------------------------------
  energy-cutoff  :      520.00
  volume of cell :      166.00
      direct lattice vectors                 reciprocal lattice vectors
     3.785385272  0.000000000  0.000000000     0.264173903  0.000000000  0.000000000
     0.000000000  3.785385272  0.000000000     0.000000000  0.264173903  0.000000000
     0.000000000  0.000000000 11.584783235     0.000000000  0.000000000  0.086320130

  length of vectors
     3.785385272  3.785385272 11.584783235     0.264173903  0.264173903  0.086320130


 FORCES acting on ions
    electron-ion (+dipol)            ewald-force                    non-local-force                 convergence-correction
 -----------------------------------------------------------------------------------------------
   -.802E-13 0.152E-11 -.113E+00   0.228E-14 -.464E-14 0.114E+00   0.423E-21 -.567E-22 0.264E-03   -.323E-13 -.465E-13 -.102E-02
   -.720E-13 0.210E-11 -.125E+02   0.393E-14 0.455E-14 0.137E+02   -.197E-18 -.251E-18 -.116E+01   -.738E-14 0.904E-14 0.301E-02
   -.712E-13 0.140E-11 0.127E+02   -.165E-14 0.221E-13 -.139E+02   0.252E-18 -.250E-17 0.116E+01   -.341E-13 -.315E-13 -.167E-02
   0.107E-11 0.755E-11 0.152E+03   -.464E-13 0.482E-13 -.149E+03   0.614E-18 0.102E-18 -.246E+01   -.130E-12 0.119E-12 0.390E-01
   0.111E-11 0.735E-11 -.152E+03   -.211E-13 0.159E-13 0.149E+03   -.134E-17 -.872E-18 0.246E+01   -.166E-12 -.326E-13 -.413E-01
   0.112E-11 0.678E-11 0.115E+00   0.142E-13 0.103E-13 -.116E+00   0.380E-22 0.550E-21 -.110E-02   -.182E-12 0.142E-13 0.196E-02
   0.116E-11 -.721E-13 -.113E+00   -.432E-13 -.376E-13 0.114E+00   0.335E-22 -.279E-22 0.264E-03   -.249E-12 0.304E-13 -.102E-02
   0.115E-11 0.300E-12 -.125E+02   -.308E-13 -.343E-13 0.137E+02   -.144E-18 0.597E-18 -.116E+01   -.236E-12 -.242E-13 0.301E-02
   0.113E-11 -.450E-12 0.127E+02   0.434E-14 -.237E-13 -.139E+02   0.527E-18 0.308E-18 0.116E+01   -.224E-12 0.216E-13 -.167E-02
   -.442E-13 -.129E-12 0.431E+02   0.587E-13 -.436E-13 -.435E+02   -.172E-18 -.286E-18 0.327E+00   0.447E-13 -.156E-13 0.271E-01
   -.465E-13 0.666E-13 -.431E+02   0.258E-13 0.384E-13 0.435E+02   0.788E-18 -.157E-18 -.328E+00   0.477E-13 0.158E-13 -.285E-01
   -.410E-13 -.343E-13 -.379E-02   0.832E-14 0.173E-13 0.168E-02   0.226E-21 -.159E-21 0.190E-02   0.494E-13 0.947E-14 0.144E-02
 -----------------------------------------------------------------------------------------------
   0.639E-11 0.264E-10 -.553E-03   -.256E-13 0.129E-13 -.192E-12   0.324E-18 -.306E-17 0.203E-03   -.112E-11 0.689E-13 0.224E-03
 
 
 POSITION                                       TOTAL-FORCE (eV/Angst)
 -----------------------------------------------------------------------------------
      0.00000      1.89269      1.93075        -0.000000      0.000000      0.000294
      0.00000      1.89269      5.78954        -0.000000      0.000000     -0.005818
      0.00000      1.89269      9.65693        -0.000000     -0.000000      0.005050
      1.89269      1.89269      0.12118         0.000000     -0.000000     -0.000524
      1.89269      1.89269      3.74021         0.000000     -0.000000      0.001001
      1.89269      1.89269      7.72330         0.000000      0.000000     -0.000055
      1.89269      0.00000      1.93075        -0.000000      0.000000      0.000294
      1.89269      0.00000      5.78954        -0.000000      0.000000     -0.005818
      1.89269      0.00000      9.65693        -0.000000      0.000000      0.005050
      0.00000      0.00000     11.54801        -0.000000      0.000000     -0.032070
      0.00000      0.00000      3.89847        -0.000000      0.000000      0.031362
      0.00000      0.00000      7.72309        -0.000000      0.000000      0.001234
 -----------------------------------------------------------------------------------
    total drift:                                0.000000      0.000000     -0.000126


--------------------------------------------------------------------------------------------------------



  FREE ENERGIE OF THE ION-ELECTRON SYSTEM (eV)
  ---------------------------------------------------
  free  energy   TOTEN  =       -92.96522539 eV

  energy  without entropy=      -92.96522539  energy(sigma->0) =      -92.96522539
 


--------------------------------------------------------------------------------------------------------


    POTLOK:  cpu time      0.0298: real time      0.2361


--------------------------------------------------------------------------------------------------------


     LOOP+:  cpu time    167.4657: real time    169.8729
 -----------------------------------------------------------------------------
|                                                                             |
|           W    W    AA    RRRRR   N    N  II  N    N   GGGG   !!!           |
|           W    W   A  A   R    R  NN   N  II  NN   N  G    G  !!!           |
|           W    W  A    A  R    R  N N  N  II  N N  N  G       !!!           |
|           W WW W  AAAAAA  RRRRR   N  N N  II  N  N N  G  GGG   !            |
|           WW  WW  A    A  R   R   N   NN  II  N   NN  G    G                |
|           W    W  A    A  R    R  N    N  II  N    N   GGGG   !!!           |
|                                                                             |
|     Tetrahedron method does not include variations of the Fermi             |
|     occupations, so forces and stress will be inaccurate. We suggest        |
|     using a different smearing scheme ISMEAR = 1 or 2 for metals in         |
|     relaxations.                                                            |
|                                                                             |
 -----------------------------------------------------------------------------

    4ORBIT:  cpu time      0.0000: real time      0.0000



 total charge

# of ion       s       p       d       tot
------------------------------------------
    1        0.337   6.294   6.014  12.645
    2        0.331   6.289   5.981  12.601
    3        0.331   6.289   5.981  12.601
    4        0.337   6.297   5.978  12.612
    5        0.337   6.297   5.978  12.612
    6        0.334   6.295   5.974  12.604
    7        0.337   6.294   6.014  12.645
    8        0.331   6.289   5.981  12.601
    9        0.331   6.289   5.981  12.601
   10        0.741   0.612   8.010   9.364
   11        0.741   0.612   8.010   9.364
   12        0.726   0.636   8.004   9.367
--------------------------------------------------
tot          5.216  58.493  77.908 141.616



 magnetization (x)

# of ion       s       p       d       tot
------------------------------------------
    1       -0.007   0.009  -2.725  -2.723
    2        0.012   0.002   2.716   2.730
    3        0.012   0.002   2.716   2.730
    4       -0.016  -0.026  -2.716  -2.758
    5       -0.016  -0.026  -2.716  -2.758
    6        0.006  -0.017   2.905   2.893
    7       -0.007   0.009  -2.725  -2.723
    8        0.012   0.002   2.716   2.730
    9        0.012   0.002   2.716   2.730
   10        0.008   0.018  -0.105  -0.079
   11        0.008   0.018  -0.105  -0.079
   12       -0.039  -0.091   0.376   0.247
--------------------------------------------------
tot         -0.017  -0.096   3.051   2.939
 
 BZINTS: Fermi energy:    9.035107;  156.000000 electrons
         Band energy:-0.175207E+04;  BLOECHL correction:   -0.024453

 total amount of memory used by VASP MPI-rank0   186836. kBytes
=======================================================================

   base      :      30000. kBytes
   nonl-proj :     110020. kBytes
   fftplans  :        955. kBytes
   grid      :       7297. kBytes
   one-center:        373. kBytes
   wavefun   :      38191. kBytes
 
  
  
 General timing and accounting informations for this job:
 ========================================================
  
                  Total CPU time used (sec):      184.069
                            User time (sec):      176.544
                          System time (sec):        7.525
                         Elapsed time (sec):      192.676
  
                   Maximum memory used (kb):      855252.
                   Average memory used (kb):          N/A
  
                          Minor page faults:       198886
                          Major page faults:          160
                 Voluntary context switches:         8854
