  16  16   1   0
  0.2037500E+02  0.7134629E-09  0.6828796E-09  0.7192563E-09  0.5000000E-15
  1.000000000000000E-004
  CAR 
 unknown system                          
      8.57016937    -53.06396321  301      3.16531849      1.00000000
    -53.064  0.0000E+00  0.0000E+00  0.0000E+00  0.0000E+00
    -52.859  0.0000E+00  0.0000E+00  0.0000E+00  0.0000E+00
    -52.653  0.0000E+00  0.0000E+00  0.0000E+00  0.0000E+00
    -52.448  0.0000E+00  0.0000E+00  0.0000E+00  0.0000E+00
    -52.242  0.0000E+00  0.0000E+00  0.0000E+00  0.0000E+00
    -52.037  0.0000E+00  0.0000E+00  0.0000E+00  0.0000E+00
    -51.831  0.0000E+00  0.0000E+00  0.0000E+00  0.0000E+00
    -51.626  0.0000E+00  0.0000E+00  0.0000E+00  0.0000E+00
    -51.420  0.0000E+00  0.0000E+00  0.0000E+00  0.0000E+00
    -51.215  0.0000E+00  0.0000E+00  0.0000E+00  0.0000E+00
    -51.009  0.0000E+00  0.0000E+00  0.0000E+00  0.0000E+00
    -50.804  0.0000E+00  0.0000E+00  0.0000E+00  0.0000E+00
    -50.599  0.0000E+00  0.0000E+00  0.0000E+00  0.0000E+00
    -50.393  0.2145E-05  0.2145E-05  0.4407E-06  0.4407E-06
    -50.188  0.1601E+00  0.1601E+00  0.3289E-01  0.3289E-01
    -49.982  0.3959E-01  0.3959E-01  0.4102E-01  0.4102E-01
    -49.777  0.3425E+00  0.3425E+00  0.1114E+00  0.1114E+00
    -49.571  0.5653E+00  0.5653E+00  0.2275E+00  0.2275E+00
    -49.366  0.7248E-01  0.7248E-01  0.2424E+00  0.2424E+00
    -49.160  0.5418E-07  0.5418E-07  0.2424E+00  0.2424E+00
    -48.955  0.0000E+00  0.0000E+00  0.2424E+00  0.2424E+00
    -48.750  0.0000E+00  0.0000E+00  0.2424E+00  0.2424E+00
    -48.544  0.0000E+00  0.0000E+00  0.2424E+00  0.2424E+00
    -48.339  0.0000E+00  0.0000E+00  0.2424E+00  0.2424E+00
    -48.133  0.0000E+00  0.0000E+00  0.2424E+00  0.2424E+00
    -47.928  0.0000E+00  0.0000E+00  0.2424E+00  0.2424E+00
    -47.722  0.0000E+00  0.0000E+00  0.2424E+00  0.2424E+00
    -47.517  0.0000E+00  0.0000E+00  0.2424E+00  0.2424E+00
    -47.311  0.0000E+00  0.0000E+00  0.2424E+00  0.2424E+00
    -47.106  0.0000E+00  0.0000E+00  0.2424E+00  0.2424E+00
    -46.901  0.0000E+00  0.0000E+00  0.2424E+00  0.2424E+00
    -46.695  0.0000E+00  0.0000E+00  0.2424E+00  0.2424E+00
    -46.490  0.0000E+00  0.0000E+00  0.2424E+00  0.2424E+00
    -46.284  0.0000E+00  0.0000E+00  0.2424E+00  0.2424E+00
    -46.079  0.0000E+00  0.0000E+00  0.2424E+00  0.2424E+00
    -45.873  0.0000E+00  0.0000E+00  0.2424E+00  0.2424E+00
    -45.668  0.0000E+00  0.0000E+00  0.2424E+00  0.2424E+00
    -45.462  0.0000E+00  0.0000E+00  0.2424E+00  0.2424E+00
    -45.257  0.0000E+00  0.0000E+00  0.2424E+00  0.2424E+00
    -45.052  0.0000E+00  0.0000E+00  0.2424E+00  0.2424E+00
    -44.846  0.0000E+00  0.0000E+00  0.2424E+00  0.2424E+00
    -44.641  0.0000E+00  0.0000E+00  0.2424E+00  0.2424E+00
    -44.435  0.0000E+00  0.0000E+00  0.2424E+00  0.2424E+00
    -44.230  0.0000E+00  0.0000E+00  0.2424E+00  0.2424E+00
    -44.024  0.0000E+00  0.0000E+00  0.2424E+00  0.2424E+00
    -43.819  0.0000E+00  0.0000E+00  0.2424E+00  0.2424E+00
    -43.613  0.0000E+00  0.0000E+00  0.2424E+00  0.2424E+00
    -43.408  0.0000E+00  0.0000E+00  0.2424E+00  0.2424E+00
    -43.203  0.0000E+00  0.0000E+00  0.2424E+00  0.2424E+00
    -42.997  0.0000E+00  0.0000E+00  0.2424E+00  0.2424E+00
    -42.792  0.0000E+00  0.0000E+00  0.2424E+00  0.2424E+00
    -42.586  0.0000E+00  0.0000E+00  0.2424E+00  0.2424E+00
    -42.381  0.0000E+00  0.0000E+00  0.2424E+00  0.2424E+00
    -42.175  0.0000E+00  0.0000E+00  0.2424E+00  0.2424E+00
    -41.970  0.0000E+00  0.0000E+00  0.2424E+00  0.2424E+00
    -41.764  0.0000E+00  0.0000E+00  0.2424E+00  0.2424E+00
    -41.559  0.0000E+00  0.0000E+00  0.2424E+00  0.2424E+00
    -41.353  0.0000E+00  0.0000E+00  0.2424E+00  0.2424E+00
    -41.148  0.0000E+00  0.0000E+00  0.2424E+00  0.2424E+00
    -40.943  0.0000E+00  0.0000E+00  0.2424E+00  0.2424E+00
    -40.737  0.0000E+00  0.0000E+00  0.2424E+00  0.2424E+00
    -40.532  0.0000E+00  0.0000E+00  0.2424E+00  0.2424E+00
    -40.326  0.0000E+00  0.0000E+00  0.2424E+00  0.2424E+00
    -40.121  0.0000E+00  0.0000E+00  0.2424E+00  0.2424E+00
    -39.915  0.0000E+00  0.0000E+00  0.2424E+00  0.2424E+00
    -39.710  0.0000E+00  0.0000E+00  0.2424E+00  0.2424E+00
    -39.504  0.0000E+00  0.0000E+00  0.2424E+00  0.2424E+00
    -39.299  0.0000E+00  0.0000E+00  0.2424E+00  0.2424E+00
    -39.094  0.0000E+00  0.0000E+00  0.2424E+00  0.2424E+00
    -38.888  0.0000E+00  0.0000E+00  0.2424E+00  0.2424E+00
    -38.683  0.0000E+00  0.0000E+00  0.2424E+00  0.2424E+00
    -38.477  0.0000E+00  0.0000E+00  0.2424E+00  0.2424E+00
    -38.272  0.0000E+00  0.0000E+00  0.2424E+00  0.2424E+00
    -38.066  0.0000E+00  0.0000E+00  0.2424E+00  0.2424E+00
    -37.861  0.0000E+00  0.0000E+00  0.2424E+00  0.2424E+00
    -37.655  0.0000E+00  0.0000E+00  0.2424E+00  0.2424E+00
    -37.450  0.0000E+00  0.0000E+00  0.2424E+00  0.2424E+00
    -37.245  0.0000E+00  0.0000E+00  0.2424E+00  0.2424E+00
    -37.039  0.0000E+00  0.0000E+00  0.2424E+00  0.2424E+00
    -36.834  0.0000E+00  0.0000E+00  0.2424E+00  0.2424E+00
    -36.628  0.0000E+00  0.0000E+00  0.2424E+00  0.2424E+00
    -36.423  0.0000E+00  0.0000E+00  0.2424E+00  0.2424E+00
    -36.217  0.0000E+00  0.0000E+00  0.2424E+00  0.2424E+00
    -36.012  0.0000E+00  0.0000E+00  0.2424E+00  0.2424E+00
    -35.806  0.0000E+00  0.0000E+00  0.2424E+00  0.2424E+00
    -35.601  0.0000E+00  0.0000E+00  0.2424E+00  0.2424E+00
    -35.396  0.0000E+00  0.0000E+00  0.2424E+00  0.2424E+00
    -35.190  0.0000E+00  0.0000E+00  0.2424E+00  0.2424E+00
    -34.985  0.0000E+00  0.0000E+00  0.2424E+00  0.2424E+00
    -34.779  0.0000E+00  0.0000E+00  0.2424E+00  0.2424E+00
    -34.574  0.0000E+00  0.0000E+00  0.2424E+00  0.2424E+00
    -34.368  0.0000E+00  0.0000E+00  0.2424E+00  0.2424E+00
    -34.163  0.0000E+00  0.0000E+00  0.2424E+00  0.2424E+00
    -33.957  0.0000E+00  0.0000E+00  0.2424E+00  0.2424E+00
    -33.752  0.0000E+00  0.0000E+00  0.2424E+00  0.2424E+00
    -33.546  0.0000E+00  0.0000E+00  0.2424E+00  0.2424E+00
    -33.341  0.0000E+00  0.0000E+00  0.2424E+00  0.2424E+00
    -33.136  0.0000E+00  0.0000E+00  0.2424E+00  0.2424E+00
    -32.930  0.0000E+00  0.0000E+00  0.2424E+00  0.2424E+00
    -32.725  0.0000E+00  0.0000E+00  0.2424E+00  0.2424E+00
    -32.519  0.0000E+00  0.0000E+00  0.2424E+00  0.2424E+00
    -32.314  0.0000E+00  0.0000E+00  0.2424E+00  0.2424E+00
    -32.108  0.0000E+00  0.0000E+00  0.2424E+00  0.2424E+00
    -31.903  0.0000E+00  0.0000E+00  0.2424E+00  0.2424E+00
    -31.697  0.0000E+00  0.0000E+00  0.2424E+00  0.2424E+00
    -31.492  0.0000E+00  0.0000E+00  0.2424E+00  0.2424E+00
    -31.287  0.0000E+00  0.0000E+00  0.2424E+00  0.2424E+00
    -31.081  0.0000E+00  0.0000E+00  0.2424E+00  0.2424E+00
    -30.876  0.0000E+00  0.0000E+00  0.2424E+00  0.2424E+00
    -30.670  0.0000E+00  0.0000E+00  0.2424E+00  0.2424E+00
    -30.465  0.0000E+00  0.0000E+00  0.2424E+00  0.2424E+00
    -30.259  0.0000E+00  0.0000E+00  0.2424E+00  0.2424E+00
    -30.054  0.0000E+00  0.0000E+00  0.2424E+00  0.2424E+00
    -29.848  0.0000E+00  0.0000E+00  0.2424E+00  0.2424E+00
    -29.643  0.0000E+00  0.0000E+00  0.2424E+00  0.2424E+00
    -29.438  0.0000E+00  0.0000E+00  0.2424E+00  0.2424E+00
    -29.232  0.0000E+00  0.0000E+00  0.2424E+00  0.2424E+00
    -29.027  0.0000E+00  0.0000E+00  0.2424E+00  0.2424E+00
    -28.821  0.0000E+00  0.0000E+00  0.2424E+00  0.2424E+00
    -28.616  0.0000E+00  0.0000E+00  0.2424E+00  0.2424E+00
    -28.410  0.0000E+00  0.0000E+00  0.2424E+00  0.2424E+00
    -28.205  0.0000E+00  0.0000E+00  0.2424E+00  0.2424E+00
    -27.999  0.0000E+00  0.0000E+00  0.2424E+00  0.2424E+00
    -27.794  0.0000E+00  0.0000E+00  0.2424E+00  0.2424E+00
    -27.589  0.0000E+00  0.0000E+00  0.2424E+00  0.2424E+00
    -27.383  0.0000E+00  0.0000E+00  0.2424E+00  0.2424E+00
    -27.178  0.0000E+00  0.0000E+00  0.2424E+00  0.2424E+00
    -26.972  0.0000E+00  0.0000E+00  0.2424E+00  0.2424E+00
    -26.767  0.0000E+00  0.0000E+00  0.2424E+00  0.2424E+00
    -26.561  0.0000E+00  0.0000E+00  0.2424E+00  0.2424E+00
    -26.356  0.0000E+00  0.0000E+00  0.2424E+00  0.2424E+00
    -26.150  0.0000E+00  0.0000E+00  0.2424E+00  0.2424E+00
    -25.945  0.0000E+00  0.0000E+00  0.2424E+00  0.2424E+00
    -25.739  0.0000E+00  0.0000E+00  0.2424E+00  0.2424E+00
    -25.534  0.0000E+00  0.0000E+00  0.2424E+00  0.2424E+00
    -25.329  0.0000E+00  0.0000E+00  0.2424E+00  0.2424E+00
    -25.123  0.0000E+00  0.0000E+00  0.2424E+00  0.2424E+00
    -24.918  0.0000E+00  0.0000E+00  0.2424E+00  0.2424E+00
    -24.712  0.0000E+00  0.0000E+00  0.2424E+00  0.2424E+00
    -24.507  0.0000E+00  0.0000E+00  0.2424E+00  0.2424E+00
    -24.301  0.0000E+00  0.0000E+00  0.2424E+00  0.2424E+00
    -24.096  0.0000E+00  0.0000E+00  0.2424E+00  0.2424E+00
    -23.890  0.0000E+00  0.0000E+00  0.2424E+00  0.2424E+00
    -23.685  0.0000E+00  0.0000E+00  0.2424E+00  0.2424E+00
    -23.480  0.0000E+00  0.0000E+00  0.2424E+00  0.2424E+00
    -23.274  0.0000E+00  0.0000E+00  0.2424E+00  0.2424E+00
    -23.069  0.0000E+00  0.0000E+00  0.2424E+00  0.2424E+00
    -22.863  0.0000E+00  0.0000E+00  0.2424E+00  0.2424E+00
    -22.658  0.0000E+00  0.0000E+00  0.2424E+00  0.2424E+00
    -22.452  0.0000E+00  0.0000E+00  0.2424E+00  0.2424E+00
    -22.247  0.0000E+00  0.0000E+00  0.2424E+00  0.2424E+00
    -22.041  0.0000E+00  0.0000E+00  0.2424E+00  0.2424E+00
    -21.836  0.0000E+00  0.0000E+00  0.2424E+00  0.2424E+00
    -21.631  0.0000E+00  0.0000E+00  0.2424E+00  0.2424E+00
    -21.425  0.0000E+00  0.0000E+00  0.2424E+00  0.2424E+00
    -21.220  0.0000E+00  0.0000E+00  0.2424E+00  0.2424E+00
    -21.014  0.0000E+00  0.0000E+00  0.2424E+00  0.2424E+00
    -20.809  0.0000E+00  0.0000E+00  0.2424E+00  0.2424E+00
    -20.603  0.0000E+00  0.0000E+00  0.2424E+00  0.2424E+00
    -20.398  0.0000E+00  0.0000E+00  0.2424E+00  0.2424E+00
    -20.192  0.0000E+00  0.0000E+00  0.2424E+00  0.2424E+00
    -19.987  0.0000E+00  0.0000E+00  0.2424E+00  0.2424E+00
    -19.782  0.0000E+00  0.0000E+00  0.2424E+00  0.2424E+00
    -19.576  0.0000E+00  0.0000E+00  0.2424E+00  0.2424E+00
    -19.371  0.0000E+00  0.0000E+00  0.2424E+00  0.2424E+00
    -19.165  0.0000E+00  0.0000E+00  0.2424E+00  0.2424E+00
    -18.960  0.0000E+00  0.0000E+00  0.2424E+00  0.2424E+00
    -18.754  0.0000E+00  0.0000E+00  0.2424E+00  0.2424E+00
    -18.549  0.0000E+00  0.0000E+00  0.2424E+00  0.2424E+00
    -18.343  0.0000E+00  0.0000E+00  0.2424E+00  0.2424E+00
    -18.138  0.0000E+00  0.0000E+00  0.2424E+00  0.2424E+00
    -17.933  0.0000E+00  0.0000E+00  0.2424E+00  0.2424E+00
    -17.727  0.0000E+00  0.0000E+00  0.2424E+00  0.2424E+00
    -17.522  0.0000E+00  0.0000E+00  0.2424E+00  0.2424E+00
    -17.316  0.0000E+00  0.0000E+00  0.2424E+00  0.2424E+00
    -17.111  0.0000E+00  0.0000E+00  0.2424E+00  0.2424E+00
    -16.905  0.0000E+00  0.0000E+00  0.2424E+00  0.2424E+00
    -16.700  0.0000E+00  0.0000E+00  0.2424E+00  0.2424E+00
    -16.494  0.0000E+00  0.0000E+00  0.2424E+00  0.2424E+00
    -16.289  0.0000E+00  0.0000E+00  0.2424E+00  0.2424E+00
    -16.083  0.0000E+00  0.0000E+00  0.2424E+00  0.2424E+00
    -15.878  0.0000E+00  0.0000E+00  0.2424E+00  0.2424E+00
    -15.673  0.0000E+00  0.0000E+00  0.2424E+00  0.2424E+00
    -15.467  0.0000E+00  0.0000E+00  0.2424E+00  0.2424E+00
    -15.262  0.0000E+00  0.0000E+00  0.2424E+00  0.2424E+00
    -15.056  0.0000E+00  0.0000E+00  0.2424E+00  0.2424E+00
    -14.851  0.0000E+00  0.0000E+00  0.2424E+00  0.2424E+00
    -14.645  0.0000E+00  0.0000E+00  0.2424E+00  0.2424E+00
    -14.440  0.0000E+00  0.0000E+00  0.2424E+00  0.2424E+00
    -14.234  0.0000E+00  0.0000E+00  0.2424E+00  0.2424E+00
    -14.029  0.0000E+00  0.0000E+00  0.2424E+00  0.2424E+00
    -13.824  0.0000E+00  0.0000E+00  0.2424E+00  0.2424E+00
    -13.618  0.0000E+00  0.0000E+00  0.2424E+00  0.2424E+00
    -13.413  0.0000E+00  0.0000E+00  0.2424E+00  0.2424E+00
    -13.207  0.0000E+00  0.0000E+00  0.2424E+00  0.2424E+00
    -13.002  0.0000E+00  0.0000E+00  0.2424E+00  0.2424E+00
    -12.796  0.0000E+00  0.0000E+00  0.2424E+00  0.2424E+00
    -12.591  0.0000E+00  0.0000E+00  0.2424E+00  0.2424E+00
    -12.385  0.0000E+00  0.0000E+00  0.2424E+00  0.2424E+00
    -12.180  0.0000E+00  0.0000E+00  0.2424E+00  0.2424E+00
    -11.975  0.0000E+00  0.0000E+00  0.2424E+00  0.2424E+00
    -11.769  0.2303E-16  0.2303E-16  0.2424E+00  0.2424E+00
    -11.564  0.2520E-04  0.2520E-04  0.2424E+00  0.2424E+00
    -11.358  0.1022E-01  0.1022E-01  0.2445E+00  0.2445E+00
    -11.153  0.2173E-01  0.2173E-01  0.2490E+00  0.2490E+00
    -10.947  0.2476E-01  0.2476E-01  0.2541E+00  0.2541E+00
    -10.742  0.3315E-01  0.3315E-01  0.2609E+00  0.2609E+00
    -10.536  0.4652E-01  0.4652E-01  0.2704E+00  0.2704E+00
    -10.331  0.2721E-01  0.2721E-01  0.2760E+00  0.2760E+00
    -10.126  0.4475E-01  0.4475E-01  0.2852E+00  0.2852E+00
     -9.920  0.7308E-01  0.7308E-01  0.3002E+00  0.3002E+00
     -9.715  0.9671E-01  0.9671E-01  0.3201E+00  0.3201E+00
     -9.509  0.1517E-01  0.1517E-01  0.3232E+00  0.3232E+00
     -9.304  0.3465E-08  0.3465E-08  0.3232E+00  0.3232E+00
     -9.098  0.0000E+00  0.0000E+00  0.3232E+00  0.3232E+00
     -8.893  0.0000E+00  0.0000E+00  0.3232E+00  0.3232E+00
     -8.687  0.0000E+00  0.0000E+00  0.3232E+00  0.3232E+00
     -8.482  0.0000E+00  0.0000E+00  0.3232E+00  0.3232E+00
     -8.276  0.0000E+00  0.0000E+00  0.3232E+00  0.3232E+00
     -8.071  0.0000E+00  0.0000E+00  0.3232E+00  0.3232E+00
     -7.866  0.0000E+00  0.0000E+00  0.3232E+00  0.3232E+00
     -7.660  0.0000E+00  0.0000E+00  0.3232E+00  0.3232E+00
     -7.455  0.0000E+00  0.0000E+00  0.3232E+00  0.3232E+00
     -7.249  0.0000E+00  0.0000E+00  0.3232E+00  0.3232E+00
     -7.044  0.0000E+00  0.0000E+00  0.3232E+00  0.3232E+00
     -6.838  0.0000E+00  0.0000E+00  0.3232E+00  0.3232E+00
     -6.633  0.0000E+00  0.0000E+00  0.3232E+00  0.3232E+00
     -6.427  0.0000E+00  0.0000E+00  0.3232E+00  0.3232E+00
     -6.222  0.0000E+00  0.0000E+00  0.3232E+00  0.3232E+00
     -6.017  0.0000E+00  0.0000E+00  0.3232E+00  0.3232E+00
     -5.811  0.0000E+00  0.0000E+00  0.3232E+00  0.3232E+00
     -5.606  0.0000E+00  0.0000E+00  0.3232E+00  0.3232E+00
     -5.400  0.0000E+00  0.0000E+00  0.3232E+00  0.3232E+00
     -5.195  0.0000E+00  0.0000E+00  0.3232E+00  0.3232E+00
     -4.989  0.0000E+00  0.0000E+00  0.3232E+00  0.3232E+00
     -4.784  0.0000E+00  0.0000E+00  0.3232E+00  0.3232E+00
     -4.578  0.0000E+00  0.0000E+00  0.3232E+00  0.3232E+00
     -4.373  0.0000E+00  0.0000E+00  0.3232E+00  0.3232E+00
     -4.168  0.0000E+00  0.0000E+00  0.3232E+00  0.3232E+00
     -3.962  0.0000E+00  0.0000E+00  0.3232E+00  0.3232E+00
     -3.757  0.0000E+00  0.0000E+00  0.3232E+00  0.3232E+00
     -3.551  0.2892E-13  0.2892E-13  0.3232E+00  0.3232E+00
     -3.346  0.5833E-04  0.5833E-04  0.3232E+00  0.3232E+00
     -3.140  0.3476E-02  0.3476E-02  0.3240E+00  0.3240E+00
     -2.935  0.7765E-02  0.7765E-02  0.3256E+00  0.3256E+00
     -2.729  0.2284E-01  0.2284E-01  0.3302E+00  0.3302E+00
     -2.524  0.5114E-01  0.5114E-01  0.3408E+00  0.3408E+00
     -2.319  0.5678E-01  0.5678E-01  0.3524E+00  0.3524E+00
     -2.113  0.5222E-01  0.5222E-01  0.3631E+00  0.3631E+00
     -1.908  0.4011E-01  0.4011E-01  0.3714E+00  0.3714E+00
     -1.702  0.4073E-01  0.4073E-01  0.3798E+00  0.3798E+00
     -1.497  0.6737E-01  0.6737E-01  0.3936E+00  0.3936E+00
     -1.291  0.8568E-01  0.8568E-01  0.4112E+00  0.4112E+00
     -1.086  0.8167E-01  0.8167E-01  0.4280E+00  0.4280E+00
     -0.880  0.7920E-01  0.7920E-01  0.4442E+00  0.4442E+00
     -0.675  0.5087E-01  0.5087E-01  0.4547E+00  0.4547E+00
     -0.470  0.1272E+00  0.1272E+00  0.4808E+00  0.4808E+00
     -0.264  0.1017E+00  0.1017E+00  0.5017E+00  0.5017E+00
     -0.059  0.3364E-01  0.3364E-01  0.5086E+00  0.5086E+00
      0.147  0.7586E-01  0.7586E-01  0.5242E+00  0.5242E+00
      0.352  0.4954E-01  0.4954E-01  0.5344E+00  0.5344E+00
      0.558  0.1066E+00  0.1066E+00  0.5563E+00  0.5563E+00
      0.763  0.1546E+00  0.1546E+00  0.5880E+00  0.5880E+00
      0.969  0.5909E-01  0.5909E-01  0.6002E+00  0.6002E+00
      1.174  0.8390E-01  0.8390E-01  0.6174E+00  0.6174E+00
      1.380  0.6695E-01  0.6695E-01  0.6312E+00  0.6312E+00
      1.585  0.6629E-01  0.6629E-01  0.6448E+00  0.6448E+00
      1.790  0.8996E-01  0.8996E-01  0.6633E+00  0.6633E+00
      1.996  0.9566E-01  0.9566E-01  0.6829E+00  0.6829E+00
      2.201  0.1066E+00  0.1066E+00  0.7048E+00  0.7048E+00
      2.407  0.1206E+00  0.1206E+00  0.7296E+00  0.7296E+00
      2.612  0.1321E+00  0.1321E+00  0.7567E+00  0.7567E+00
      2.818  0.1222E+00  0.1222E+00  0.7818E+00  0.7818E+00
      3.023  0.8175E-01  0.8175E-01  0.7986E+00  0.7986E+00
      3.229  0.8969E-01  0.8969E-01  0.8171E+00  0.8171E+00
      3.434  0.1235E+00  0.1235E+00  0.8424E+00  0.8424E+00
      3.639  0.7091E-01  0.7091E-01  0.8570E+00  0.8570E+00
      3.845  0.5524E-01  0.5524E-01  0.8684E+00  0.8684E+00
      4.050  0.4919E-01  0.4919E-01  0.8785E+00  0.8785E+00
      4.256  0.8988E-01  0.8988E-01  0.8969E+00  0.8969E+00
      4.461  0.1172E+00  0.1172E+00  0.9210E+00  0.9210E+00
      4.667  0.4095E-01  0.4095E-01  0.9294E+00  0.9294E+00
      4.872  0.1862E-01  0.1862E-01  0.9333E+00  0.9333E+00
      5.078  0.4977E-01  0.4977E-01  0.9435E+00  0.9435E+00
      5.283  0.7882E-01  0.7882E-01  0.9597E+00  0.9597E+00
      5.488  0.3096E-01  0.3096E-01  0.9660E+00  0.9660E+00
      5.694  0.1658E-01  0.1657E-01  0.9694E+00  0.9694E+00
      5.899  0.1264E-02  0.1263E-02  0.9697E+00  0.9697E+00
      6.105  0.1943E-07  0.2500E-07  0.9697E+00  0.9697E+00
      6.310  0.0000E+00  0.0000E+00  0.9697E+00  0.9697E+00
      6.516  0.0000E+00  0.0000E+00  0.9697E+00  0.9697E+00
      6.721  0.0000E+00  0.0000E+00  0.9697E+00  0.9697E+00
      6.927  0.0000E+00  0.0000E+00  0.9697E+00  0.9697E+00
      7.132  0.0000E+00  0.0000E+00  0.9697E+00  0.9697E+00
      7.337  0.0000E+00  0.0000E+00  0.9697E+00  0.9697E+00
      7.543  0.0000E+00  0.0000E+00  0.9697E+00  0.9697E+00
      7.748  0.0000E+00  0.0000E+00  0.9697E+00  0.9697E+00
      7.954  0.0000E+00  0.0000E+00  0.9697E+00  0.9697E+00
      8.159  0.0000E+00  0.0000E+00  0.9697E+00  0.9697E+00
      8.365  0.0000E+00  0.0000E+00  0.9697E+00  0.9697E+00
      8.570  0.0000E+00  0.0000E+00  0.9697E+00  0.9697E+00
      8.57016937    -53.06396321  301      3.16531849      1.00000000
    -53.064  0.0000E+00  0.0000E+00  0.0000E+00  0.0000E+00  0.0000E+00  0.0000E+00  0.0000E+00  0.0000E+00  0.0000E+00  0.0000E+00  0.0000E+00  0.0000E+00  0.0000E+00  0.0000E+00  0.0000E+00  0.0000E+00  0.0000E+00  0.0000E+00
    -52.859  0.0000E+00  0.0000E+00  0.0000E+00  0.0000E+00  0.0000E+00  0.0000E+00  0.0000E+00  0.0000E+00  0.0000E+00  0.0000E+00  0.0000E+00  0.0000E+00  0.0000E+00  0.0000E+00  0.0000E+00  0.0000E+00  0.0000E+00  0.0000E+00
    -52.653  0.0000E+00  0.0000E+00  0.0000E+00  0.0000E+00  0.0000E+00  0.0000E+00  0.0000E+00  0.0000E+00  0.0000E+00  0.0000E+00  0.0000E+00  0.0000E+00  0.0000E+00  0.0000E+00  0.0000E+00  0.0000E+00  0.0000E+00  0.0000E+00
    -52.448  0.0000E+00  0.0000E+00  0.0000E+00  0.0000E+00  0.0000E+00  0.0000E+00  0.0000E+00  0.0000E+00  0.0000E+00  0.0000E+00  0.0000E+00  0.0000E+00  0.0000E+00  0.0000E+00  0.0000E+00  0.0000E+00  0.0000E+00  0.0000E+00
    -52.242  0.0000E+00  0.0000E+00  0.0000E+00  0.0000E+00  0.0000E+00  0.0000E+00  0.0000E+00  0.0000E+00  0.0000E+00  0.0000E+00  0.0000E+00  0.0000E+00  0.0000E+00  0.0000E+00  0.0000E+00  0.0000E+00  0.0000E+00  0.0000E+00
    -52.037  0.0000E+00  0.0000E+00  0.0000E+00  0.0000E+00  0.0000E+00  0.0000E+00  0.0000E+00  0.0000E+00  0.0000E+00  0.0000E+00  0.0000E+00  0.0000E+00  0.0000E+00  0.0000E+00  0.0000E+00  0.0000E+00  0.0000E+00  0.0000E+00
    -51.831  0.0000E+00  0.0000E+00  0.0000E+00  0.0000E+00  0.0000E+00  0.0000E+00  0.0000E+00  0.0000E+00  0.0000E+00  0.0000E+00  0.0000E+00  0.0000E+00  0.0000E+00  0.0000E+00  0.0000E+00  0.0000E+00  0.0000E+00  0.0000E+00
    -51.626  0.0000E+00  0.0000E+00  0.0000E+00  0.0000E+00  0.0000E+00  0.0000E+00  0.0000E+00  0.0000E+00  0.0000E+00  0.0000E+00  0.0000E+00  0.0000E+00  0.0000E+00  0.0000E+00  0.0000E+00  0.0000E+00  0.0000E+00  0.0000E+00
    -51.420  0.0000E+00  0.0000E+00  0.0000E+00  0.0000E+00  0.0000E+00  0.0000E+00  0.0000E+00  0.0000E+00  0.0000E+00  0.0000E+00  0.0000E+00  0.0000E+00  0.0000E+00  0.0000E+00  0.0000E+00  0.0000E+00  0.0000E+00  0.0000E+00
    -51.215  0.0000E+00  0.0000E+00  0.0000E+00  0.0000E+00  0.0000E+00  0.0000E+00  0.0000E+00  0.0000E+00  0.0000E+00  0.0000E+00  0.0000E+00  0.0000E+00  0.0000E+00  0.0000E+00  0.0000E+00  0.0000E+00  0.0000E+00  0.0000E+00
    -51.009  0.0000E+00  0.0000E+00  0.0000E+00  0.0000E+00  0.0000E+00  0.0000E+00  0.0000E+00  0.0000E+00  0.0000E+00  0.0000E+00  0.0000E+00  0.0000E+00  0.0000E+00  0.0000E+00  0.0000E+00  0.0000E+00  0.0000E+00  0.0000E+00
    -50.804  0.0000E+00  0.0000E+00  0.0000E+00  0.0000E+00  0.0000E+00  0.0000E+00  0.0000E+00  0.0000E+00  0.0000E+00  0.0000E+00  0.0000E+00  0.0000E+00  0.0000E+00  0.0000E+00  0.0000E+00  0.0000E+00  0.0000E+00  0.0000E+00
    -50.599  0.0000E+00  0.0000E+00  0.0000E+00  0.0000E+00  0.0000E+00  0.0000E+00  0.0000E+00  0.0000E+00  0.0000E+00  0.0000E+00  0.0000E+00  0.0000E+00  0.0000E+00  0.0000E+00  0.0000E+00  0.0000E+00  0.0000E+00  0.0000E+00
    -50.393  0.5089E-08  0.7651E-08  0.3622E-05  0.1222E-04  0.4422E-06  0.2942E-06  0.8240E-05  0.5276E-05  0.1308E-09  0.1425E-09  0.5584E-11  0.4173E-11  0.2409E-08  0.4035E-08  0.8199E-09  0.3308E-09  0.1694E-08  0.2869E-08
    -50.188  0.3302E-03  0.3430E-03  0.4596E+00  0.5176E+00  0.2590E-01  0.2510E-01  0.4873E+00  0.4721E+00  0.5868E-05  0.5899E-05  0.2435E-06  0.2296E-06  0.1611E-03  0.1733E-03  0.5641E-04  0.4715E-04  0.4501E-03  0.4921E-03
    -49.982  0.5082E-04  0.3993E-04  0.2120E+00  0.8276E-01  0.4268E-02  0.8759E-02  0.8098E-01  0.1680E+00  0.7580E-06  0.8839E-06  0.2722E-07  0.5095E-07  0.2869E-04  0.1805E-04  0.7376E-05  0.1507E-04  0.1858E-03  0.1465E-03
    -49.777  0.9500E-04  0.9680E-04  0.1866E+01  0.1907E+01  0.2477E+01  0.2765E+01  0.1961E+01  0.1982E+01  0.4087E-05  0.4159E-05  0.4204E-05  0.4265E-05  0.2150E-04  0.2171E-04  0.9116E-05  0.1153E-04  0.6231E-04  0.6145E-04
    -49.571  0.9292E-04  0.9135E-04  0.1752E+01  0.1868E+01  0.2315E+01  0.2024E+01  0.1827E+01  0.1765E+01  0.4017E-04  0.4052E-04  0.2028E-04  0.2019E-04  0.3415E-04  0.3360E-04  0.2437E-04  0.2290E-04  0.6796E-04  0.7026E-04
    -49.366  0.1655E-04  0.1399E-04  0.5581E+00  0.4729E+00  0.2578E-01  0.2375E-01  0.4917E+00  0.4598E+00  0.4193E-05  0.3595E-05  0.1812E-06  0.1830E-06  0.6428E-05  0.4927E-05  0.2254E-05  0.3052E-05  0.3892E-04  0.3419E-04
    -49.160  0.3574E-11  0.2571E-11  0.4632E-06  0.2994E-06  0.2071E-07  0.1558E-07  0.3984E-06  0.3031E-06  0.7621E-12  0.5795E-12  0.2602E-13  0.3601E-13  0.1552E-11  0.9316E-12  0.1352E-11  0.1121E-11  0.2922E-10  0.1681E-10
    -48.955  0.0000E+00  0.0000E+00  0.0000E+00  0.0000E+00  0.0000E+00  0.0000E+00  0.0000E+00  0.0000E+00  0.0000E+00  0.0000E+00  0.0000E+00  0.0000E+00  0.0000E+00  0.0000E+00  0.0000E+00  0.0000E+00  0.0000E+00  0.0000E+00
    -48.750  0.0000E+00  0.0000E+00  0.0000E+00  0.0000E+00  0.0000E+00  0.0000E+00  0.0000E+00  0.0000E+00  0.0000E+00  0.0000E+00  0.0000E+00  0.0000E+00  0.0000E+00  0.0000E+00  0.0000E+00  0.0000E+00  0.0000E+00  0.0000E+00
    -48.544  0.0000E+00  0.0000E+00  0.0000E+00  0.0000E+00  0.0000E+00  0.0000E+00  0.0000E+00  0.0000E+00  0.0000E+00  0.0000E+00  0.0000E+00  0.0000E+00  0.0000E+00  0.0000E+00  0.0000E+00  0.0000E+00  0.0000E+00  0.0000E+00
    -48.339  0.0000E+00  0.0000E+00  0.0000E+00  0.0000E+00  0.0000E+00  0.0000E+00  0.0000E+00  0.0000E+00  0.0000E+00  0.0000E+00  0.0000E+00  0.0000E+00  0.0000E+00  0.0000E+00  0.0000E+00  0.0000E+00  0.0000E+00  0.0000E+00
    -48.133  0.0000E+00  0.0000E+00  0.0000E+00  0.0000E+00  0.0000E+00  0.0000E+00  0.0000E+00  0.0000E+00  0.0000E+00  0.0000E+00  0.0000E+00  0.0000E+00  0.0000E+00  0.0000E+00  0.0000E+00  0.0000E+00  0.0000E+00  0.0000E+00
    -47.928  0.0000E+00  0.0000E+00  0.0000E+00  0.0000E+00  0.0000E+00  0.0000E+00  0.0000E+00  0.0000E+00  0.0000E+00  0.0000E+00  0.0000E+00  0.0000E+00  0.0000E+00  0.0000E+00  0.0000E+00  0.0000E+00  0.0000E+00  0.0000E+00
    -47.722  0.0000E+00  0.0000E+00  0.0000E+00  0.0000E+00  0.0000E+00  0.0000E+00  0.0000E+00  0.0000E+00  0.0000E+00  0.0000E+00  0.0000E+00  0.0000E+00  0.0000E+00  0.0000E+00  0.0000E+00  0.0000E+00  0.0000E+00  0.0000E+00
    -47.517  0.0000E+00  0.0000E+00  0.0000E+00  0.0000E+00  0.0000E+00  0.0000E+00  0.0000E+00  0.0000E+00  0.0000E+00  0.0000E+00  0.0000E+00  0.0000E+00  0.0000E+00  0.0000E+00  0.0000E+00  0.0000E+00  0.0000E+00  0.0000E+00
    -47.311  0.0000E+00  0.0000E+00  0.0000E+00  0.0000E+00  0.0000E+00  0.0000E+00  0.0000E+00  0.0000E+00  0.0000E+00  0.0000E+00  0.0000E+00  0.0000E+00  0.0000E+00  0.0000E+00  0.0000E+00  0.0000E+00  0.0000E+00  0.0000E+00
    -47.106  0.0000E+00  0.0000E+00  0.0000E+00  0.0000E+00  0.0000E+00  0.0000E+00  0.0000E+00  0.0000E+00  0.0000E+00  0.0000E+00  0.0000E+00  0.0000E+00  0.0000E+00  0.0000E+00  0.0000E+00  0.0000E+00  0.0000E+00  0.0000E+00
    -46.901  0.0000E+00  0.0000E+00  0.0000E+00  0.0000E+00  0.0000E+00  0.0000E+00  0.0000E+00  0.0000E+00  0.0000E+00  0.0000E+00  0.0000E+00  0.0000E+00  0.0000E+00  0.0000E+00  0.0000E+00  0.0000E+00  0.0000E+00  0.0000E+00
    -46.695  0.0000E+00  0.0000E+00  0.0000E+00  0.0000E+00  0.0000E+00  0.0000E+00  0.0000E+00  0.0000E+00  0.0000E+00  0.0000E+00  0.0000E+00  0.0000E+00  0.0000E+00  0.0000E+00  0.0000E+00  0.0000E+00  0.0000E+00  0.0000E+00
    -46.490  0.0000E+00  0.0000E+00  0.0000E+00  0.0000E+00  0.0000E+00  0.0000E+00  0.0000E+00  0.0000E+00  0.0000E+00  0.0000E+00  0.0000E+00  0.0000E+00  0.0000E+00  0.0000E+00  0.0000E+00  0.0000E+00  0.0000E+00  0.0000E+00
    -46.284  0.0000E+00  0.0000E+00  0.0000E+00  0.0000E+00  0.0000E+00  0.0000E+00  0.0000E+00  0.0000E+00  0.0000E+00  0.0000E+00  0.0000E+00  0.0000E+00  0.0000E+00  0.0000E+00  0.0000E+00  0.0000E+00  0.0000E+00  0.0000E+00
    -46.079  0.0000E+00  0.0000E+00  0.0000E+00  0.0000E+00  0.0000E+00  0.0000E+00  0.0000E+00  0.0000E+00  0.0000E+00  0.0000E+00  0.0000E+00  0.0000E+00  0.0000E+00  0.0000E+00  0.0000E+00  0.0000E+00  0.0000E+00  0.0000E+00
    -45.873  0.0000E+00  0.0000E+00  0.0000E+00  0.0000E+00  0.0000E+00  0.0000E+00  0.0000E+00  0.0000E+00  0.0000E+00  0.0000E+00  0.0000E+00  0.0000E+00  0.0000E+00  0.0000E+00  0.0000E+00  0.0000E+00  0.0000E+00  0.0000E+00
    -45.668  0.0000E+00  0.0000E+00  0.0000E+00  0.0000E+00  0.0000E+00  0.0000E+00  0.0000E+00  0.0000E+00  0.0000E+00  0.0000E+00  0.0000E+00  0.0000E+00  0.0000E+00  0.0000E+00  0.0000E+00  0.0000E+00  0.0000E+00  0.0000E+00
    -45.462  0.0000E+00  0.0000E+00  0.0000E+00  0.0000E+00  0.0000E+00  0.0000E+00  0.0000E+00  0.0000E+00  0.0000E+00  0.0000E+00  0.0000E+00  0.0000E+00  0.0000E+00  0.0000E+00  0.0000E+00  0.0000E+00  0.0000E+00  0.0000E+00
    -45.257  0.0000E+00  0.0000E+00  0.0000E+00  0.0000E+00  0.0000E+00  0.0000E+00  0.0000E+00  0.0000E+00  0.0000E+00  0.0000E+00  0.0000E+00  0.0000E+00  0.0000E+00  0.0000E+00  0.0000E+00  0.0000E+00  0.0000E+00  0.0000E+00
    -45.052  0.0000E+00  0.0000E+00  0.0000E+00  0.0000E+00  0.0000E+00  0.0000E+00  0.0000E+00  0.0000E+00  0.0000E+00  0.0000E+00  0.0000E+00  0.0000E+00  0.0000E+00  0.0000E+00  0.0000E+00  0.0000E+00  0.0000E+00  0.0000E+00
    -44.846  0.0000E+00  0.0000E+00  0.0000E+00  0.0000E+00  0.0000E+00  0.0000E+00  0.0000E+00  0.0000E+00  0.0000E+00  0.0000E+00  0.0000E+00  0.0000E+00  0.0000E+00  0.0000E+00  0.0000E+00  0.0000E+00  0.0000E+00  0.0000E+00
    -44.641  0.0000E+00  0.0000E+00  0.0000E+00  0.0000E+00  0.0000E+00  0.0000E+00  0.0000E+00  0.0000E+00  0.0000E+00  0.0000E+00  0.0000E+00  0.0000E+00  0.0000E+00  0.0000E+00  0.0000E+00  0.0000E+00  0.0000E+00  0.0000E+00
    -44.435  0.0000E+00  0.0000E+00  0.0000E+00  0.0000E+00  0.0000E+00  0.0000E+00  0.0000E+00  0.0000E+00  0.0000E+00  0.0000E+00  0.0000E+00  0.0000E+00  0.0000E+00  0.0000E+00  0.0000E+00  0.0000E+00  0.0000E+00  0.0000E+00
    -44.230  0.0000E+00  0.0000E+00  0.0000E+00  0.0000E+00  0.0000E+00  0.0000E+00  0.0000E+00  0.0000E+00  0.0000E+00  0.0000E+00  0.0000E+00  0.0000E+00  0.0000E+00  0.0000E+00  0.0000E+00  0.0000E+00  0.0000E+00  0.0000E+00
    -44.024  0.0000E+00  0.0000E+00  0.0000E+00  0.0000E+00  0.0000E+00  0.0000E+00  0.0000E+00  0.0000E+00  0.0000E+00  0.0000E+00  0.0000E+00  0.0000E+00  0.0000E+00  0.0000E+00  0.0000E+00  0.0000E+00  0.0000E+00  0.0000E+00
    -43.819  0.0000E+00  0.0000E+00  0.0000E+00  0.0000E+00  0.0000E+00  0.0000E+00  0.0000E+00  0.0000E+00  0.0000E+00  0.0000E+00  0.0000E+00  0.0000E+00  0.0000E+00  0.0000E+00  0.0000E+00  0.0000E+00  0.0000E+00  0.0000E+00
    -43.613  0.0000E+00  0.0000E+00  0.0000E+00  0.0000E+00  0.0000E+00  0.0000E+00  0.0000E+00  0.0000E+00  0.0000E+00  0.0000E+00  0.0000E+00  0.0000E+00  0.0000E+00  0.0000E+00  0.0000E+00  0.0000E+00  0.0000E+00  0.0000E+00
    -43.408  0.0000E+00  0.0000E+00  0.0000E+00  0.0000E+00  0.0000E+00  0.0000E+00  0.0000E+00  0.0000E+00  0.0000E+00  0.0000E+00  0.0000E+00  0.0000E+00  0.0000E+00  0.0000E+00  0.0000E+00  0.0000E+00  0.0000E+00  0.0000E+00
    -43.203  0.0000E+00  0.0000E+00  0.0000E+00  0.0000E+00  0.0000E+00  0.0000E+00  0.0000E+00  0.0000E+00  0.0000E+00  0.0000E+00  0.0000E+00  0.0000E+00  0.0000E+00  0.0000E+00  0.0000E+00  0.0000E+00  0.0000E+00  0.0000E+00
    -42.997  0.0000E+00  0.0000E+00  0.0000E+00  0.0000E+00  0.0000E+00  0.0000E+00  0.0000E+00  0.0000E+00  0.0000E+00  0.0000E+00  0.0000E+00  0.0000E+00  0.0000E+00  0.0000E+00  0.0000E+00  0.0000E+00  0.0000E+00  0.0000E+00
    -42.792  0.0000E+00  0.0000E+00  0.0000E+00  0.0000E+00  0.0000E+00  0.0000E+00  0.0000E+00  0.0000E+00  0.0000E+00  0.0000E+00  0.0000E+00  0.0000E+00  0.0000E+00  0.0000E+00  0.0000E+00  0.0000E+00  0.0000E+00  0.0000E+00