       N       E                     dE             d eps       ncg     rms          rms(c)
DAV:   1     0.195222542133E+04    0.19522E+04   -0.90534E+04 95808   0.203E+03
DAV:   2     0.944701539196E+02   -0.18578E+04   -0.18246E+04 85104   0.575E+02
DAV:   3    -0.940235203177E+02   -0.18849E+03   -0.18252E+03124848   0.182E+02
DAV:   4    -0.105042079615E+03   -0.11019E+02   -0.10967E+02121488   0.456E+01
DAV:   5    -0.105354391136E+03   -0.31231E+00   -0.31199E+00113640   0.718E+00    0.258E+01
RMM:   6    -0.112449206155E+03   -0.70948E+01   -0.13419E+02 85515   0.812E+01    0.384E+01
RMM:   7    -0.966364573301E+02    0.15813E+02   -0.36079E+01 85067   0.471E+01    0.118E+01
RMM:   8    -0.995352397761E+02   -0.28988E+01   -0.75743E+00 97675   0.138E+01    0.268E+01
RMM:   9    -0.960230660683E+02    0.35122E+01   -0.56437E+00 94620   0.130E+01    0.216E+00
RMM:  10    -0.962463721042E+02   -0.22331E+00   -0.19081E+00138727   0.396E+00    0.336E+00
RMM:  11    -0.962643450649E+02   -0.17973E-01   -0.25408E-01140705   0.125E+00    0.303E+00
RMM:  12    -0.962684193582E+02   -0.40743E-02   -0.50678E-02133972   0.484E-01    0.307E+00
RMM:  13    -0.965365978073E+02   -0.26818E+00   -0.83708E-01168665   0.498E+00    0.515E+00
RMM:  14    -0.968157163454E+02   -0.27912E+00   -0.43248E-01156748   0.287E+00    0.646E+00
RMM:  15    -0.966631991612E+02    0.15252E+00   -0.12920E-01140396   0.173E+00    0.605E+00
RMM:  16    -0.967554574162E+02   -0.92258E-01   -0.61346E-02129102   0.133E+00    0.644E+00
RMM:  17    -0.970057620344E+02   -0.25030E+00   -0.18972E-01151888   0.208E+00    0.755E+00
RMM:  18    -0.966565097874E+02    0.34925E+00   -0.19703E-01149036   0.256E+00    0.568E+00
RMM:  19    -0.963601071579E+02    0.29640E+00   -0.38373E-01160371   0.322E+00    0.357E+00
RMM:  20    -0.962626266021E+02    0.97481E-01   -0.15259E-01142782   0.179E+00    0.237E+00
RMM:  21    -0.961946367009E+02    0.67990E-01   -0.15341E-01144647   0.205E+00    0.101E+00
RMM:  22    -0.961805117589E+02    0.14125E-01   -0.10520E-01138023   0.156E+00    0.541E-02
RMM:  23    -0.961814969983E+02   -0.98524E-03   -0.70973E-03118494   0.301E-01    0.128E-01
RMM:  24    -0.961815341992E+02   -0.37201E-04   -0.25204E-03 92563   0.187E-01    0.528E-02
RMM:  25    -0.961816115809E+02   -0.77382E-04   -0.20370E-03 87187   0.221E-01    0.686E-02
RMM:  26    -0.961818959444E+02   -0.28436E-03   -0.13644E-03 80717   0.167E-01    0.141E-01
RMM:  27    -0.961818818550E+02    0.14089E-04   -0.28269E-04 51510   0.655E-02
   1 F= -.10136327E+03 E0= -.10136327E+03  d E =0.000000E+00  mag=     0.0000
