unknown system                          
           1
     4.942919   -5.010872    1.171194
     4.680616    4.862772    1.048699
     1.067667   -0.094120    7.111337
   Fe   Se
     8     8
unknown system                          
           1
     4.942919   -5.010872    1.171194
     4.680616    4.862772    1.048699
     1.067667   -0.094120    7.111337
   Fe   Se
     8     8
Direct configuration=     1
   0.95794553  0.00010747  0.99977438
   0.04205447  0.49989253  0.00022562
   0.45794553  0.00010747  0.99977438
   0.54205447  0.49989253  0.00022562
   0.25000000  0.25000000  0.00000000
   0.25000000  0.75000000  0.00000000
   0.75000000  0.25000000  0.00000000
   0.75000000  0.75000000  0.00000000
   0.25660059  0.06211387  0.75929744
   0.37632454  0.56197056  0.75971923
   0.75660059  0.06211387  0.75929744
   0.87632454  0.56197056  0.75971923
   0.24339941  0.43788613  0.24070256
   0.12367546  0.93802944  0.24028077
   0.74339941  0.43788613  0.24070256
   0.62367546  0.93802944  0.24028077
