  16  16   1   0
  0.2081250E+02  0.8066788E-09  0.7035799E-09  0.6406597E-09  0.5000000E-15
  1.000000000000000E-004
  CAR 
 unknown system                          
      8.36827912    -53.04984832  301      2.92787921      1.00000000
    -53.050  0.0000E+00  0.0000E+00  0.0000E+00  0.0000E+00
    -52.845  0.0000E+00  0.0000E+00  0.0000E+00  0.0000E+00
    -52.640  0.0000E+00  0.0000E+00  0.0000E+00  0.0000E+00
    -52.436  0.0000E+00  0.0000E+00  0.0000E+00  0.0000E+00
    -52.231  0.0000E+00  0.0000E+00  0.0000E+00  0.0000E+00
    -52.026  0.0000E+00  0.0000E+00  0.0000E+00  0.0000E+00
    -51.821  0.0000E+00  0.0000E+00  0.0000E+00  0.0000E+00
    -51.617  0.0000E+00  0.0000E+00  0.0000E+00  0.0000E+00
    -51.412  0.0000E+00  0.0000E+00  0.0000E+00  0.0000E+00
    -51.207  0.0000E+00  0.0000E+00  0.0000E+00  0.0000E+00
    -51.003  0.0000E+00  0.0000E+00  0.0000E+00  0.0000E+00
    -50.798  0.0000E+00  0.0000E+00  0.0000E+00  0.0000E+00
    -50.593  0.0000E+00  0.0000E+00  0.0000E+00  0.0000E+00
    -50.388  0.9108E-06  0.9108E-06  0.1865E-06  0.1865E-06
    -50.184  0.1080E+00  0.1080E+00  0.2210E-01  0.2210E-01
    -49.979  0.5278E+00  0.5278E+00  0.1302E+00  0.1302E+00
    -49.774  0.1538E+00  0.1538E+00  0.1616E+00  0.1616E+00
    -49.569  0.2452E+00  0.2452E+00  0.2118E+00  0.2118E+00
    -49.365  0.1494E+00  0.1494E+00  0.2424E+00  0.2424E+00
    -49.160  0.1227E-05  0.1227E-05  0.2424E+00  0.2424E+00
    -48.955  0.0000E+00  0.0000E+00  0.2424E+00  0.2424E+00
    -48.751  0.0000E+00  0.0000E+00  0.2424E+00  0.2424E+00
    -48.546  0.0000E+00  0.0000E+00  0.2424E+00  0.2424E+00
    -48.341  0.0000E+00  0.0000E+00  0.2424E+00  0.2424E+00
    -48.136  0.0000E+00  0.0000E+00  0.2424E+00  0.2424E+00
    -47.932  0.0000E+00  0.0000E+00  0.2424E+00  0.2424E+00
    -47.727  0.0000E+00  0.0000E+00  0.2424E+00  0.2424E+00
    -47.522  0.0000E+00  0.0000E+00  0.2424E+00  0.2424E+00
    -47.317  0.0000E+00  0.0000E+00  0.2424E+00  0.2424E+00
    -47.113  0.0000E+00  0.0000E+00  0.2424E+00  0.2424E+00
    -46.908  0.0000E+00  0.0000E+00  0.2424E+00  0.2424E+00
    -46.703  0.0000E+00  0.0000E+00  0.2424E+00  0.2424E+00
    -46.499  0.0000E+00  0.0000E+00  0.2424E+00  0.2424E+00
    -46.294  0.0000E+00  0.0000E+00  0.2424E+00  0.2424E+00
    -46.089  0.0000E+00  0.0000E+00  0.2424E+00  0.2424E+00
    -45.884  0.0000E+00  0.0000E+00  0.2424E+00  0.2424E+00
    -45.680  0.0000E+00  0.0000E+00  0.2424E+00  0.2424E+00
    -45.475  0.0000E+00  0.0000E+00  0.2424E+00  0.2424E+00
    -45.270  0.0000E+00  0.0000E+00  0.2424E+00  0.2424E+00
    -45.065  0.0000E+00  0.0000E+00  0.2424E+00  0.2424E+00
    -44.861  0.0000E+00  0.0000E+00  0.2424E+00  0.2424E+00
    -44.656  0.0000E+00  0.0000E+00  0.2424E+00  0.2424E+00
    -44.451  0.0000E+00  0.0000E+00  0.2424E+00  0.2424E+00
    -44.247  0.0000E+00  0.0000E+00  0.2424E+00  0.2424E+00
    -44.042  0.0000E+00  0.0000E+00  0.2424E+00  0.2424E+00
    -43.837  0.0000E+00  0.0000E+00  0.2424E+00  0.2424E+00
    -43.632  0.0000E+00  0.0000E+00  0.2424E+00  0.2424E+00
    -43.428  0.0000E+00  0.0000E+00  0.2424E+00  0.2424E+00
    -43.223  0.0000E+00  0.0000E+00  0.2424E+00  0.2424E+00
    -43.018  0.0000E+00  0.0000E+00  0.2424E+00  0.2424E+00
    -42.813  0.0000E+00  0.0000E+00  0.2424E+00  0.2424E+00
    -42.609  0.0000E+00  0.0000E+00  0.2424E+00  0.2424E+00
    -42.404  0.0000E+00  0.0000E+00  0.2424E+00  0.2424E+00
    -42.199  0.0000E+00  0.0000E+00  0.2424E+00  0.2424E+00
    -41.995  0.0000E+00  0.0000E+00  0.2424E+00  0.2424E+00
    -41.790  0.0000E+00  0.0000E+00  0.2424E+00  0.2424E+00
    -41.585  0.0000E+00  0.0000E+00  0.2424E+00  0.2424E+00
    -41.380  0.0000E+00  0.0000E+00  0.2424E+00  0.2424E+00
    -41.176  0.0000E+00  0.0000E+00  0.2424E+00  0.2424E+00
    -40.971  0.0000E+00  0.0000E+00  0.2424E+00  0.2424E+00
    -40.766  0.0000E+00  0.0000E+00  0.2424E+00  0.2424E+00
    -40.561  0.0000E+00  0.0000E+00  0.2424E+00  0.2424E+00
    -40.357  0.0000E+00  0.0000E+00  0.2424E+00  0.2424E+00
    -40.152  0.0000E+00  0.0000E+00  0.2424E+00  0.2424E+00
    -39.947  0.0000E+00  0.0000E+00  0.2424E+00  0.2424E+00
    -39.743  0.0000E+00  0.0000E+00  0.2424E+00  0.2424E+00
    -39.538  0.0000E+00  0.0000E+00  0.2424E+00  0.2424E+00
    -39.333  0.0000E+00  0.0000E+00  0.2424E+00  0.2424E+00
    -39.128  0.0000E+00  0.0000E+00  0.2424E+00  0.2424E+00
    -38.924  0.0000E+00  0.0000E+00  0.2424E+00  0.2424E+00
    -38.719  0.0000E+00  0.0000E+00  0.2424E+00  0.2424E+00
    -38.514  0.0000E+00  0.0000E+00  0.2424E+00  0.2424E+00
    -38.309  0.0000E+00  0.0000E+00  0.2424E+00  0.2424E+00
    -38.105  0.0000E+00  0.0000E+00  0.2424E+00  0.2424E+00
    -37.900  0.0000E+00  0.0000E+00  0.2424E+00  0.2424E+00
    -37.695  0.0000E+00  0.0000E+00  0.2424E+00  0.2424E+00
    -37.491  0.0000E+00  0.0000E+00  0.2424E+00  0.2424E+00
    -37.286  0.0000E+00  0.0000E+00  0.2424E+00  0.2424E+00
    -37.081  0.0000E+00  0.0000E+00  0.2424E+00  0.2424E+00
    -36.876  0.0000E+00  0.0000E+00  0.2424E+00  0.2424E+00
    -36.672  0.0000E+00  0.0000E+00  0.2424E+00  0.2424E+00
    -36.467  0.0000E+00  0.0000E+00  0.2424E+00  0.2424E+00
    -36.262  0.0000E+00  0.0000E+00  0.2424E+00  0.2424E+00
    -36.057  0.0000E+00  0.0000E+00  0.2424E+00  0.2424E+00
    -35.853  0.0000E+00  0.0000E+00  0.2424E+00  0.2424E+00
    -35.648  0.0000E+00  0.0000E+00  0.2424E+00  0.2424E+00
    -35.443  0.0000E+00  0.0000E+00  0.2424E+00  0.2424E+00
    -35.239  0.0000E+00  0.0000E+00  0.2424E+00  0.2424E+00
    -35.034  0.0000E+00  0.0000E+00  0.2424E+00  0.2424E+00
    -34.829  0.0000E+00  0.0000E+00  0.2424E+00  0.2424E+00
    -34.624  0.0000E+00  0.0000E+00  0.2424E+00  0.2424E+00
    -34.420  0.0000E+00  0.0000E+00  0.2424E+00  0.2424E+00
    -34.215  0.0000E+00  0.0000E+00  0.2424E+00  0.2424E+00
    -34.010  0.0000E+00  0.0000E+00  0.2424E+00  0.2424E+00
    -33.806  0.0000E+00  0.0000E+00  0.2424E+00  0.2424E+00
    -33.601  0.0000E+00  0.0000E+00  0.2424E+00  0.2424E+00
    -33.396  0.0000E+00  0.0000E+00  0.2424E+00  0.2424E+00
    -33.191  0.0000E+00  0.0000E+00  0.2424E+00  0.2424E+00
    -32.987  0.0000E+00  0.0000E+00  0.2424E+00  0.2424E+00
    -32.782  0.0000E+00  0.0000E+00  0.2424E+00  0.2424E+00
    -32.577  0.0000E+00  0.0000E+00  0.2424E+00  0.2424E+00
    -32.372  0.0000E+00  0.0000E+00  0.2424E+00  0.2424E+00
    -32.168  0.0000E+00  0.0000E+00  0.2424E+00  0.2424E+00
    -31.963  0.0000E+00  0.0000E+00  0.2424E+00  0.2424E+00
    -31.758  0.0000E+00  0.0000E+00  0.2424E+00  0.2424E+00
    -31.554  0.0000E+00  0.0000E+00  0.2424E+00  0.2424E+00
    -31.349  0.0000E+00  0.0000E+00  0.2424E+00  0.2424E+00
    -31.144  0.0000E+00  0.0000E+00  0.2424E+00  0.2424E+00
    -30.939  0.0000E+00  0.0000E+00  0.2424E+00  0.2424E+00
    -30.735  0.0000E+00  0.0000E+00  0.2424E+00  0.2424E+00
    -30.530  0.0000E+00  0.0000E+00  0.2424E+00  0.2424E+00
    -30.325  0.0000E+00  0.0000E+00  0.2424E+00  0.2424E+00
    -30.120  0.0000E+00  0.0000E+00  0.2424E+00  0.2424E+00
    -29.916  0.0000E+00  0.0000E+00  0.2424E+00  0.2424E+00
    -29.711  0.0000E+00  0.0000E+00  0.2424E+00  0.2424E+00
    -29.506  0.0000E+00  0.0000E+00  0.2424E+00  0.2424E+00
    -29.302  0.0000E+00  0.0000E+00  0.2424E+00  0.2424E+00
    -29.097  0.0000E+00  0.0000E+00  0.2424E+00  0.2424E+00
    -28.892  0.0000E+00  0.0000E+00  0.2424E+00  0.2424E+00
    -28.687  0.0000E+00  0.0000E+00  0.2424E+00  0.2424E+00
    -28.483  0.0000E+00  0.0000E+00  0.2424E+00  0.2424E+00
    -28.278  0.0000E+00  0.0000E+00  0.2424E+00  0.2424E+00
    -28.073  0.0000E+00  0.0000E+00  0.2424E+00  0.2424E+00
    -27.868  0.0000E+00  0.0000E+00  0.2424E+00  0.2424E+00
    -27.664  0.0000E+00  0.0000E+00  0.2424E+00  0.2424E+00
    -27.459  0.0000E+00  0.0000E+00  0.2424E+00  0.2424E+00
    -27.254  0.0000E+00  0.0000E+00  0.2424E+00  0.2424E+00
    -27.050  0.0000E+00  0.0000E+00  0.2424E+00  0.2424E+00
    -26.845  0.0000E+00  0.0000E+00  0.2424E+00  0.2424E+00
    -26.640  0.0000E+00  0.0000E+00  0.2424E+00  0.2424E+00
    -26.435  0.0000E+00  0.0000E+00  0.2424E+00  0.2424E+00
    -26.231  0.0000E+00  0.0000E+00  0.2424E+00  0.2424E+00
    -26.026  0.0000E+00  0.0000E+00  0.2424E+00  0.2424E+00
    -25.821  0.0000E+00  0.0000E+00  0.2424E+00  0.2424E+00
    -25.616  0.0000E+00  0.0000E+00  0.2424E+00  0.2424E+00
    -25.412  0.0000E+00  0.0000E+00  0.2424E+00  0.2424E+00
    -25.207  0.0000E+00  0.0000E+00  0.2424E+00  0.2424E+00
    -25.002  0.0000E+00  0.0000E+00  0.2424E+00  0.2424E+00
    -24.798  0.0000E+00  0.0000E+00  0.2424E+00  0.2424E+00
    -24.593  0.0000E+00  0.0000E+00  0.2424E+00  0.2424E+00
    -24.388  0.0000E+00  0.0000E+00  0.2424E+00  0.2424E+00
    -24.183  0.0000E+00  0.0000E+00  0.2424E+00  0.2424E+00
    -23.979  0.0000E+00  0.0000E+00  0.2424E+00  0.2424E+00
    -23.774  0.0000E+00  0.0000E+00  0.2424E+00  0.2424E+00
    -23.569  0.0000E+00  0.0000E+00  0.2424E+00  0.2424E+00
    -23.364  0.0000E+00  0.0000E+00  0.2424E+00  0.2424E+00
    -23.160  0.0000E+00  0.0000E+00  0.2424E+00  0.2424E+00
    -22.955  0.0000E+00  0.0000E+00  0.2424E+00  0.2424E+00
    -22.750  0.0000E+00  0.0000E+00  0.2424E+00  0.2424E+00
    -22.546  0.0000E+00  0.0000E+00  0.2424E+00  0.2424E+00
    -22.341  0.0000E+00  0.0000E+00  0.2424E+00  0.2424E+00
    -22.136  0.0000E+00  0.0000E+00  0.2424E+00  0.2424E+00
    -21.931  0.0000E+00  0.0000E+00  0.2424E+00  0.2424E+00
    -21.727  0.0000E+00  0.0000E+00  0.2424E+00  0.2424E+00
    -21.522  0.0000E+00  0.0000E+00  0.2424E+00  0.2424E+00
    -21.317  0.0000E+00  0.0000E+00  0.2424E+00  0.2424E+00
    -21.112  0.0000E+00  0.0000E+00  0.2424E+00  0.2424E+00
    -20.908  0.0000E+00  0.0000E+00  0.2424E+00  0.2424E+00
    -20.703  0.0000E+00  0.0000E+00  0.2424E+00  0.2424E+00
    -20.498  0.0000E+00  0.0000E+00  0.2424E+00  0.2424E+00
    -20.294  0.0000E+00  0.0000E+00  0.2424E+00  0.2424E+00
    -20.089  0.0000E+00  0.0000E+00  0.2424E+00  0.2424E+00
    -19.884  0.0000E+00  0.0000E+00  0.2424E+00  0.2424E+00
    -19.679  0.0000E+00  0.0000E+00  0.2424E+00  0.2424E+00
    -19.475  0.0000E+00  0.0000E+00  0.2424E+00  0.2424E+00
    -19.270  0.0000E+00  0.0000E+00  0.2424E+00  0.2424E+00
    -19.065  0.0000E+00  0.0000E+00  0.2424E+00  0.2424E+00
    -18.860  0.0000E+00  0.0000E+00  0.2424E+00  0.2424E+00
    -18.656  0.0000E+00  0.0000E+00  0.2424E+00  0.2424E+00
    -18.451  0.0000E+00  0.0000E+00  0.2424E+00  0.2424E+00
    -18.246  0.0000E+00  0.0000E+00  0.2424E+00  0.2424E+00
    -18.042  0.0000E+00  0.0000E+00  0.2424E+00  0.2424E+00
    -17.837  0.0000E+00  0.0000E+00  0.2424E+00  0.2424E+00
    -17.632  0.0000E+00  0.0000E+00  0.2424E+00  0.2424E+00
    -17.427  0.0000E+00  0.0000E+00  0.2424E+00  0.2424E+00
    -17.223  0.0000E+00  0.0000E+00  0.2424E+00  0.2424E+00
    -17.018  0.0000E+00  0.0000E+00  0.2424E+00  0.2424E+00
    -16.813  0.0000E+00  0.0000E+00  0.2424E+00  0.2424E+00
    -16.608  0.0000E+00  0.0000E+00  0.2424E+00  0.2424E+00
    -16.404  0.0000E+00  0.0000E+00  0.2424E+00  0.2424E+00
    -16.199  0.0000E+00  0.0000E+00  0.2424E+00  0.2424E+00
    -15.994  0.0000E+00  0.0000E+00  0.2424E+00  0.2424E+00
    -15.790  0.0000E+00  0.0000E+00  0.2424E+00  0.2424E+00
    -15.585  0.0000E+00  0.0000E+00  0.2424E+00  0.2424E+00
    -15.380  0.0000E+00  0.0000E+00  0.2424E+00  0.2424E+00
    -15.175  0.0000E+00  0.0000E+00  0.2424E+00  0.2424E+00
    -14.971  0.0000E+00  0.0000E+00  0.2424E+00  0.2424E+00
    -14.766  0.0000E+00  0.0000E+00  0.2424E+00  0.2424E+00
    -14.561  0.0000E+00  0.0000E+00  0.2424E+00  0.2424E+00
    -14.356  0.0000E+00  0.0000E+00  0.2424E+00  0.2424E+00
    -14.152  0.0000E+00  0.0000E+00  0.2424E+00  0.2424E+00
    -13.947  0.0000E+00  0.0000E+00  0.2424E+00  0.2424E+00
    -13.742  0.0000E+00  0.0000E+00  0.2424E+00  0.2424E+00
    -13.538  0.0000E+00  0.0000E+00  0.2424E+00  0.2424E+00
    -13.333  0.0000E+00  0.0000E+00  0.2424E+00  0.2424E+00
    -13.128  0.0000E+00  0.0000E+00  0.2424E+00  0.2424E+00
    -12.923  0.0000E+00  0.0000E+00  0.2424E+00  0.2424E+00
    -12.719  0.0000E+00  0.0000E+00  0.2424E+00  0.2424E+00
    -12.514  0.0000E+00  0.0000E+00  0.2424E+00  0.2424E+00
    -12.309  0.0000E+00  0.0000E+00  0.2424E+00  0.2424E+00
    -12.104  0.0000E+00  0.0000E+00  0.2424E+00  0.2424E+00
    -11.900  0.1045E-13  0.1045E-13  0.2424E+00  0.2424E+00
    -11.695  0.1584E-03  0.1584E-03  0.2425E+00  0.2425E+00
    -11.490  0.1410E-01  0.1410E-01  0.2453E+00  0.2453E+00
    -11.286  0.2247E-01  0.2247E-01  0.2499E+00  0.2499E+00
    -11.081  0.2606E-01  0.2606E-01  0.2553E+00  0.2553E+00
    -10.876  0.3881E-01  0.3881E-01  0.2632E+00  0.2632E+00
    -10.671  0.3963E-01  0.3963E-01  0.2713E+00  0.2713E+00
    -10.467  0.2557E-01  0.2557E-01  0.2766E+00  0.2766E+00
    -10.262  0.5165E-01  0.5165E-01  0.2871E+00  0.2871E+00
    -10.057  0.8983E-01  0.8983E-01  0.3055E+00  0.3055E+00
     -9.852  0.7580E-01  0.7580E-01  0.3211E+00  0.3211E+00
     -9.648  0.1062E-01  0.1062E-01  0.3232E+00  0.3232E+00
     -9.443  0.2469E-08  0.2469E-08  0.3232E+00  0.3232E+00
     -9.238  0.0000E+00  0.0000E+00  0.3232E+00  0.3232E+00
     -9.034  0.0000E+00  0.0000E+00  0.3232E+00  0.3232E+00
     -8.829  0.0000E+00  0.0000E+00  0.3232E+00  0.3232E+00
     -8.624  0.0000E+00  0.0000E+00  0.3232E+00  0.3232E+00
     -8.419  0.0000E+00  0.0000E+00  0.3232E+00  0.3232E+00
     -8.215  0.0000E+00  0.0000E+00  0.3232E+00  0.3232E+00
     -8.010  0.0000E+00  0.0000E+00  0.3232E+00  0.3232E+00
     -7.805  0.0000E+00  0.0000E+00  0.3232E+00  0.3232E+00
     -7.600  0.0000E+00  0.0000E+00  0.3232E+00  0.3232E+00
     -7.396  0.0000E+00  0.0000E+00  0.3232E+00  0.3232E+00
     -7.191  0.0000E+00  0.0000E+00  0.3232E+00  0.3232E+00
     -6.986  0.0000E+00  0.0000E+00  0.3232E+00  0.3232E+00
     -6.782  0.0000E+00  0.0000E+00  0.3232E+00  0.3232E+00
     -6.577  0.0000E+00  0.0000E+00  0.3232E+00  0.3232E+00
     -6.372  0.0000E+00  0.0000E+00  0.3232E+00  0.3232E+00
     -6.167  0.0000E+00  0.0000E+00  0.3232E+00  0.3232E+00
     -5.963  0.0000E+00  0.0000E+00  0.3232E+00  0.3232E+00
     -5.758  0.0000E+00  0.0000E+00  0.3232E+00  0.3232E+00
     -5.553  0.0000E+00  0.0000E+00  0.3232E+00  0.3232E+00
     -5.348  0.0000E+00  0.0000E+00  0.3232E+00  0.3232E+00
     -5.144  0.0000E+00  0.0000E+00  0.3232E+00  0.3232E+00
     -4.939  0.0000E+00  0.0000E+00  0.3232E+00  0.3232E+00
     -4.734  0.0000E+00  0.0000E+00  0.3232E+00  0.3232E+00
     -4.530  0.0000E+00  0.0000E+00  0.3232E+00  0.3232E+00
     -4.325  0.0000E+00  0.0000E+00  0.3232E+00  0.3232E+00
     -4.120  0.0000E+00  0.0000E+00  0.3232E+00  0.3232E+00
     -3.915  0.0000E+00  0.0000E+00  0.3232E+00  0.3232E+00
     -3.711  0.1641E-15  0.1641E-15  0.3232E+00  0.3232E+00
     -3.506  0.1584E-04  0.1584E-04  0.3232E+00  0.3232E+00
     -3.301  0.2945E-02  0.2945E-02  0.3238E+00  0.3238E+00
     -3.096  0.7843E-02  0.7843E-02  0.3254E+00  0.3254E+00
     -2.892  0.1998E-01  0.1998E-01  0.3295E+00  0.3295E+00
     -2.687  0.4747E-01  0.4747E-01  0.3393E+00  0.3393E+00
     -2.482  0.5395E-01  0.5395E-01  0.3503E+00  0.3503E+00
     -2.278  0.5995E-01  0.5995E-01  0.3626E+00  0.3626E+00
     -2.073  0.4804E-01  0.4804E-01  0.3724E+00  0.3724E+00
     -1.868  0.4031E-01  0.4031E-01  0.3807E+00  0.3807E+00
     -1.663  0.5852E-01  0.5852E-01  0.3926E+00  0.3926E+00
     -1.459  0.7986E-01  0.7986E-01  0.4090E+00  0.4090E+00
     -1.254  0.8223E-01  0.8223E-01  0.4258E+00  0.4258E+00
     -1.049  0.7505E-01  0.7505E-01  0.4412E+00  0.4412E+00
     -0.844  0.6052E-01  0.6052E-01  0.4536E+00  0.4536E+00
     -0.640  0.1269E+00  0.1269E+00  0.4796E+00  0.4796E+00
     -0.435  0.9656E-01  0.9656E-01  0.4993E+00  0.4993E+00
     -0.230  0.4309E-01  0.4309E-01  0.5081E+00  0.5081E+00
     -0.026  0.1466E-01  0.1466E-01  0.5111E+00  0.5111E+00
      0.179  0.8873E-01  0.8873E-01  0.5293E+00  0.5293E+00
      0.384  0.8836E-01  0.8836E-01  0.5474E+00  0.5474E+00
      0.589  0.8629E-01  0.8629E-01  0.5651E+00  0.5651E+00
      0.793  0.7319E-01  0.7319E-01  0.5801E+00  0.5801E+00
      0.998  0.1399E+00  0.1399E+00  0.6087E+00  0.6087E+00
      1.203  0.9377E-01  0.9377E-01  0.6279E+00  0.6279E+00
      1.408  0.8822E-01  0.8822E-01  0.6460E+00  0.6460E+00
      1.612  0.6967E-01  0.6967E-01  0.6602E+00  0.6602E+00
      1.817  0.6481E-01  0.6481E-01  0.6735E+00  0.6735E+00
      2.022  0.1139E+00  0.1139E+00  0.6968E+00  0.6968E+00
      2.226  0.1615E+00  0.1615E+00  0.7299E+00  0.7299E+00
      2.431  0.9716E-01  0.9716E-01  0.7498E+00  0.7498E+00
      2.636  0.9289E-01  0.9289E-01  0.7688E+00  0.7688E+00
      2.841  0.1426E+00  0.1426E+00  0.7980E+00  0.7980E+00
      3.045  0.1070E+00  0.1070E+00  0.8199E+00  0.8199E+00
      3.250  0.8799E-01  0.8799E-01  0.8379E+00  0.8379E+00
      3.455  0.6310E-01  0.6310E-01  0.8508E+00  0.8508E+00
      3.660  0.6444E-01  0.6444E-01  0.8640E+00  0.8640E+00
      3.864  0.8916E-01  0.8916E-01  0.8823E+00  0.8823E+00
      4.069  0.8961E-01  0.8961E-01  0.9006E+00  0.9006E+00
      4.274  0.9906E-01  0.9906E-01  0.9209E+00  0.9209E+00
      4.478  0.3947E-01  0.3947E-01  0.9290E+00  0.9290E+00
      4.683  0.2128E-01  0.2128E-01  0.9333E+00  0.9333E+00
      4.888  0.2540E-01  0.2540E-01  0.9385E+00  0.9385E+00
      5.093  0.5883E-01  0.5883E-01  0.9506E+00  0.9506E+00
      5.297  0.7007E-01  0.7007E-01  0.9649E+00  0.9649E+00
      5.502  0.2144E-01  0.2144E-01  0.9693E+00  0.9693E+00
      5.707  0.1959E-02  0.1958E-02  0.9697E+00  0.9697E+00
      5.912  0.2685E-07  0.2684E-07  0.9697E+00  0.9697E+00
      6.116  0.0000E+00  0.0000E+00  0.9697E+00  0.9697E+00
      6.321  0.0000E+00  0.0000E+00  0.9697E+00  0.9697E+00
      6.526  0.0000E+00  0.0000E+00  0.9697E+00  0.9697E+00
      6.730  0.0000E+00  0.0000E+00  0.9697E+00  0.9697E+00
      6.935  0.0000E+00  0.0000E+00  0.9697E+00  0.9697E+00
      7.140  0.0000E+00  0.0000E+00  0.9697E+00  0.9697E+00
      7.345  0.0000E+00  0.0000E+00  0.9697E+00  0.9697E+00
      7.549  0.0000E+00  0.0000E+00  0.9697E+00  0.9697E+00
      7.754  0.0000E+00  0.0000E+00  0.9697E+00  0.9697E+00
      7.959  0.0000E+00  0.0000E+00  0.9697E+00  0.9697E+00
      8.164  0.0000E+00  0.0000E+00  0.9697E+00  0.9697E+00
      8.368  0.0000E+00  0.0000E+00  0.9697E+00  0.9697E+00
      8.36827912    -53.04984832  301      2.92787921      1.00000000
    -53.050  0.0000E+00  0.0000E+00  0.0000E+00  0.0000E+00  0.0000E+00  0.0000E+00  0.0000E+00  0.0000E+00  0.0000E+00  0.0000E+00  0.0000E+00  0.0000E+00  0.0000E+00  0.0000E+00  0.0000E+00  0.0000E+00  0.0000E+00  0.0000E+00
    -52.845  0.0000E+00  0.0000E+00  0.0000E+00  0.0000E+00  0.0000E+00  0.0000E+00  0.0000E+00  0.0000E+00  0.0000E+00  0.0000E+00  0.0000E+00  0.0000E+00  0.0000E+00  0.0000E+00  0.0000E+00  0.0000E+00  0.0000E+00  0.0000E+00
    -52.640  0.0000E+00  0.0000E+00  0.0000E+00  0.0000E+00  0.0000E+00  0.0000E+00  0.0000E+00  0.0000E+00  0.0000E+00  0.0000E+00  0.0000E+00  0.0000E+00  0.0000E+00  0.0000E+00  0.0000E+00  0.0000E+00  0.0000E+00  0.0000E+00
    -52.436  0.0000E+00  0.0000E+00  0.0000E+00  0.0000E+00  0.0000E+00  0.0000E+00  0.0000E+00  0.0000E+00  0.0000E+00  0.0000E+00  0.0000E+00  0.0000E+00  0.0000E+00  0.0000E+00  0.0000E+00  0.0000E+00  0.0000E+00  0.0000E+00
    -52.231  0.0000E+00  0.0000E+00  0.0000E+00  0.0000E+00  0.0000E+00  0.0000E+00  0.0000E+00  0.0000E+00  0.0000E+00  0.0000E+00  0.0000E+00  0.0000E+00  0.0000E+00  0.0000E+00  0.0000E+00  0.0000E+00  0.0000E+00  0.0000E+00
    -52.026  0.0000E+00  0.0000E+00  0.0000E+00  0.0000E+00  0.0000E+00  0.0000E+00  0.0000E+00  0.0000E+00  0.0000E+00  0.0000E+00  0.0000E+00  0.0000E+00  0.0000E+00  0.0000E+00  0.0000E+00  0.0000E+00  0.0000E+00  0.0000E+00
    -51.821  0.0000E+00  0.0000E+00  0.0000E+00  0.0000E+00  0.0000E+00  0.0000E+00  0.0000E+00  0.0000E+00  0.0000E+00  0.0000E+00  0.0000E+00  0.0000E+00  0.0000E+00  0.0000E+00  0.0000E+00  0.0000E+00  0.0000E+00  0.0000E+00
    -51.617  0.0000E+00  0.0000E+00  0.0000E+00  0.0000E+00  0.0000E+00  0.0000E+00  0.0000E+00  0.0000E+00  0.0000E+00  0.0000E+00  0.0000E+00  0.0000E+00  0.0000E+00  0.0000E+00  0.0000E+00  0.0000E+00  0.0000E+00  0.0000E+00
    -51.412  0.0000E+00  0.0000E+00  0.0000E+00  0.0000E+00  0.0000E+00  0.0000E+00  0.0000E+00  0.0000E+00  0.0000E+00  0.0000E+00  0.0000E+00  0.0000E+00  0.0000E+00  0.0000E+00  0.0000E+00  0.0000E+00  0.0000E+00  0.0000E+00
    -51.207  0.0000E+00  0.0000E+00  0.0000E+00  0.0000E+00  0.0000E+00  0.0000E+00  0.0000E+00  0.0000E+00  0.0000E+00  0.0000E+00  0.0000E+00  0.0000E+00  0.0000E+00  0.0000E+00  0.0000E+00  0.0000E+00  0.0000E+00  0.0000E+00
    -51.003  0.0000E+00  0.0000E+00  0.0000E+00  0.0000E+00  0.0000E+00  0.0000E+00  0.0000E+00  0.0000E+00  0.0000E+00  0.0000E+00  0.0000E+00  0.0000E+00  0.0000E+00  0.0000E+00  0.0000E+00  0.0000E+00  0.0000E+00  0.0000E+00
    -50.798  0.0000E+00  0.0000E+00  0.0000E+00  0.0000E+00  0.0000E+00  0.0000E+00  0.0000E+00  0.0000E+00  0.0000E+00  0.0000E+00  0.0000E+00  0.0000E+00  0.0000E+00  0.0000E+00  0.0000E+00  0.0000E+00  0.0000E+00  0.0000E+00
    -50.593  0.0000E+00  0.0000E+00  0.0000E+00  0.0000E+00  0.0000E+00  0.0000E+00  0.0000E+00  0.0000E+00  0.0000E+00  0.0000E+00  0.0000E+00  0.0000E+00  0.0000E+00  0.0000E+00  0.0000E+00  0.0000E+00  0.0000E+00  0.0000E+00
    -50.388  0.1300E-09  0.1136E-09  0.5800E-05  0.6008E-05  0.5437E-06  0.2553E-06  0.5661E-05  0.5421E-05  0.5154E-11  0.5700E-11  0.3905E-12  0.4018E-12  0.5318E-10  0.4595E-10  0.2762E-10  0.2556E-10  0.1234E-09  0.1095E-09
    -50.184  0.2593E-04  0.2522E-04  0.6841E+00  0.7275E+00  0.1157E+00  0.5438E-01  0.6406E+00  0.6684E+00  0.1965E-05  0.2115E-05  0.2511E-06  0.1323E-06  0.9645E-05  0.9822E-05  0.4967E-05  0.3996E-05  0.2453E-04  0.2411E-04
    -49.979  0.1121E-03  0.1141E-03  0.2421E+01  0.2389E+01  0.2598E+01  0.1403E+01  0.1718E+01  0.3047E+01  0.6214E-05  0.7449E-05  0.3334E-05  0.2666E-05  0.3907E-04  0.4569E-04  0.2305E-04  0.1035E-04  0.1455E-03  0.1548E-03
    -49.774  0.2901E-04  0.2803E-04  0.5320E+00  0.4886E+00  0.7629E+00  0.4929E+00  0.2673E+00  0.4734E+00  0.9452E-06  0.1424E-05  0.1845E-05  0.1194E-05  0.1116E-04  0.1091E-04  0.2692E-05  0.1387E-05  0.3438E-04  0.3393E-04
    -49.569  0.3544E-04  0.3542E-04  0.7321E+00  0.7954E+00  0.9656E+00  0.2033E+01  0.1392E+01  0.4106E+00  0.2387E-05  0.1588E-05  0.1572E-05  0.2399E-05  0.1577E-04  0.1153E-04  0.1088E-05  0.1117E-04  0.4658E-04  0.4081E-04
    -49.365  0.2067E-04  0.2033E-04  0.4949E+00  0.4642E+00  0.4229E+00  0.8817E+00  0.8462E+00  0.2655E+00  0.1949E-05  0.8964E-06  0.9242E-06  0.1489E-05  0.8969E-05  0.6711E-05  0.7874E-06  0.6120E-05  0.2888E-04  0.2559E-04
    -49.160  0.8660E-10  0.8287E-10  0.4600E-05  0.3856E-05  0.2868E-05  0.6196E-05  0.7076E-05  0.2425E-05  0.8697E-11  0.2782E-11  0.4207E-11  0.4703E-11  0.3659E-10  0.2925E-10  0.3228E-11  0.1980E-10  0.1002E-09  0.7872E-10
    -48.955  0.0000E+00  0.0000E+00  0.0000E+00  0.0000E+00  0.0000E+00  0.0000E+00  0.0000E+00  0.0000E+00  0.0000E+00  0.0000E+00  0.0000E+00  0.0000E+00  0.0000E+00  0.0000E+00  0.0000E+00  0.0000E+00  0.0000E+00  0.0000E+00
    -48.751  0.0000E+00  0.0000E+00  0.0000E+00  0.0000E+00  0.0000E+00  0.0000E+00  0.0000E+00  0.0000E+00  0.0000E+00  0.0000E+00  0.0000E+00  0.0000E+00  0.0000E+00  0.0000E+00  0.0000E+00  0.0000E+00  0.0000E+00  0.0000E+00
    -48.546  0.0000E+00  0.0000E+00  0.0000E+00  0.0000E+00  0.0000E+00  0.0000E+00  0.0000E+00  0.0000E+00  0.0000E+00  0.0000E+00  0.0000E+00  0.0000E+00  0.0000E+00  0.0000E+00  0.0000E+00  0.0000E+00  0.0000E+00  0.0000E+00
    -48.341  0.0000E+00  0.0000E+00  0.0000E+00  0.0000E+00  0.0000E+00  0.0000E+00  0.0000E+00  0.0000E+00  0.0000E+00  0.0000E+00  0.0000E+00  0.0000E+00  0.0000E+00  0.0000E+00  0.0000E+00  0.0000E+00  0.0000E+00  0.0000E+00
    -48.136  0.0000E+00  0.0000E+00  0.0000E+00  0.0000E+00  0.0000E+00  0.0000E+00  0.0000E+00  0.0000E+00  0.0000E+00  0.0000E+00  0.0000E+00  0.0000E+00  0.0000E+00  0.0000E+00  0.0000E+00  0.0000E+00  0.0000E+00  0.0000E+00
    -47.932  0.0000E+00  0.0000E+00  0.0000E+00  0.0000E+00  0.0000E+00  0.0000E+00  0.0000E+00  0.0000E+00  0.0000E+00  0.0000E+00  0.0000E+00  0.0000E+00  0.0000E+00  0.0000E+00  0.0000E+00  0.0000E+00  0.0000E+00  0.0000E+00
    -47.727  0.0000E+00  0.0000E+00  0.0000E+00  0.0000E+00  0.0000E+00  0.0000E+00  0.0000E+00  0.0000E+00  0.0000E+00  0.0000E+00  0.0000E+00  0.0000E+00  0.0000E+00  0.0000E+00  0.0000E+00  0.0000E+00  0.0000E+00  0.0000E+00
    -47.522  0.0000E+00  0.0000E+00  0.0000E+00  0.0000E+00  0.0000E+00  0.0000E+00  0.0000E+00  0.0000E+00  0.0000E+00  0.0000E+00  0.0000E+00  0.0000E+00  0.0000E+00  0.0000E+00  0.0000E+00  0.0000E+00  0.0000E+00  0.0000E+00
    -47.317  0.0000E+00  0.0000E+00  0.0000E+00  0.0000E+00  0.0000E+00  0.0000E+00  0.0000E+00  0.0000E+00  0.0000E+00  0.0000E+00  0.0000E+00  0.0000E+00  0.0000E+00  0.0000E+00  0.0000E+00  0.0000E+00  0.0000E+00  0.0000E+00
    -47.113  0.0000E+00  0.0000E+00  0.0000E+00  0.0000E+00  0.0000E+00  0.0000E+00  0.0000E+00  0.0000E+00  0.0000E+00  0.0000E+00  0.0000E+00  0.0000E+00  0.0000E+00  0.0000E+00  0.0000E+00  0.0000E+00  0.0000E+00  0.0000E+00
    -46.908  0.0000E+00  0.0000E+00  0.0000E+00  0.0000E+00  0.0000E+00  0.0000E+00  0.0000E+00  0.0000E+00  0.0000E+00  0.0000E+00  0.0000E+00  0.0000E+00  0.0000E+00  0.0000E+00  0.0000E+00  0.0000E+00  0.0000E+00  0.0000E+00
    -46.703  0.0000E+00  0.0000E+00  0.0000E+00  0.0000E+00  0.0000E+00  0.0000E+00  0.0000E+00  0.0000E+00  0.0000E+00  0.0000E+00  0.0000E+00  0.0000E+00  0.0000E+00  0.0000E+00  0.0000E+00  0.0000E+00  0.0000E+00  0.0000E+00
    -46.499  0.0000E+00  0.0000E+00  0.0000E+00  0.0000E+00  0.0000E+00  0.0000E+00  0.0000E+00  0.0000E+00  0.0000E+00  0.0000E+00  0.0000E+00  0.0000E+00  0.0000E+00  0.0000E+00  0.0000E+00  0.0000E+00  0.0000E+00  0.0000E+00
    -46.294  0.0000E+00  0.0000E+00  0.0000E+00  0.0000E+00  0.0000E+00  0.0000E+00  0.0000E+00  0.0000E+00  0.0000E+00  0.0000E+00  0.0000E+00  0.0000E+00  0.0000E+00  0.0000E+00  0.0000E+00  0.0000E+00  0.0000E+00  0.0000E+00
    -46.089  0.0000E+00  0.0000E+00  0.0000E+00  0.0000E+00  0.0000E+00  0.0000E+00  0.0000E+00  0.0000E+00  0.0000E+00  0.0000E+00  0.0000E+00  0.0000E+00  0.0000E+00  0.0000E+00  0.0000E+00  0.0000E+00  0.0000E+00  0.0000E+00
    -45.884  0.0000E+00  0.0000E+00  0.0000E+00  0.0000E+00  0.0000E+00  0.0000E+00  0.0000E+00  0.0000E+00  0.0000E+00  0.0000E+00  0.0000E+00  0.0000E+00  0.0000E+00  0.0000E+00  0.0000E+00  0.0000E+00  0.0000E+00  0.0000E+00
    -45.680  0.0000E+00  0.0000E+00  0.0000E+00  0.0000E+00  0.0000E+00  0.0000E+00  0.0000E+00  0.0000E+00  0.0000E+00  0.0000E+00  0.0000E+00  0.0000E+00  0.0000E+00  0.0000E+00  0.0000E+00  0.0000E+00  0.0000E+00  0.0000E+00
    -45.475  0.0000E+00  0.0000E+00  0.0000E+00  0.0000E+00  0.0000E+00  0.0000E+00  0.0000E+00  0.0000E+00  0.0000E+00  0.0000E+00  0.0000E+00  0.0000E+00  0.0000E+00  0.0000E+00  0.0000E+00  0.0000E+00  0.0000E+00  0.0000E+00
    -45.270  0.0000E+00  0.0000E+00  0.0000E+00  0.0000E+00  0.0000E+00  0.0000E+00  0.0000E+00  0.0000E+00  0.0000E+00  0.0000E+00  0.0000E+00  0.0000E+00  0.0000E+00  0.0000E+00  0.0000E+00  0.0000E+00  0.0000E+00  0.0000E+00
    -45.065  0.0000E+00  0.0000E+00  0.0000E+00  0.0000E+00  0.0000E+00  0.0000E+00  0.0000E+00  0.0000E+00  0.0000E+00  0.0000E+00  0.0000E+00  0.0000E+00  0.0000E+00  0.0000E+00  0.0000E+00  0.0000E+00  0.0000E+00  0.0000E+00
    -44.861  0.0000E+00  0.0000E+00  0.0000E+00  0.0000E+00  0.0000E+00  0.0000E+00  0.0000E+00  0.0000E+00  0.0000E+00  0.0000E+00  0.0000E+00  0.0000E+00  0.0000E+00  0.0000E+00  0.0000E+00  0.0000E+00  0.0000E+00  0.0000E+00
    -44.656  0.0000E+00  0.0000E+00  0.0000E+00  0.0000E+00  0.0000E+00  0.0000E+00  0.0000E+00  0.0000E+00  0.0000E+00  0.0000E+00  0.0000E+00  0.0000E+00  0.0000E+00  0.0000E+00  0.0000E+00  0.0000E+00  0.0000E+00  0.0000E+00
    -44.451  0.0000E+00  0.0000E+00  0.0000E+00  0.0000E+00  0.0000E+00  0.0000E+00  0.0000E+00  0.0000E+00  0.0000E+00  0.0000E+00  0.0000E+00  0.0000E+00  0.0000E+00  0.0000E+00  0.0000E+00  0.0000E+00  0.0000E+00  0.0000E+00
    -44.247  0.0000E+00  0.0000E+00  0.0000E+00  0.0000E+00  0.0000E+00  0.0000E+00  0.0000E+00  0.0000E+00  0.0000E+00  0.0000E+00  0.0000E+00  0.0000E+00  0.0000E+00  0.0000E+00  0.0000E+00  0.0000E+00  0.0000E+00  0.0000E+00
    -44.042  0.0000E+00  0.0000E+00  0.0000E+00  0.0000E+00  0.0000E+00  0.0000E+00  0.0000E+00  0.0000E+00  0.0000E+00  0.0000E+00  0.0000E+00  0.0000E+00  0.0000E+00  0.0000E+00  0.0000E+00  0.0000E+00  0.0000E+00  0.0000E+00
    -43.837  0.0000E+00  0.0000E+00  0.0000E+00  0.0000E+00  0.0000E+00  0.0000E+00  0.0000E+00  0.0000E+00  0.0000E+00  0.0000E+00  0.0000E+00  0.0000E+00  0.0000E+00  0.0000E+00  0.0000E+00  0.0000E+00  0.0000E+00  0.0000E+00
    -43.632  0.0000E+00  0.0000E+00  0.0000E+00  0.0000E+00  0.0000E+00  0.0000E+00  0.0000E+00  0.0000E+00  0.0000E+00  0.0000E+00  0.0000E+00  0.0000E+00  0.0000E+00  0.0000E+00  0.0000E+00  0.0000E+00  0.0000E+00  0.0000E+00
    -43.428  0.0000E+00  0.0000E+00  0.0000E+00  0.0000E+00  0.0000E+00  0.0000E+00  0.0000E+00  0.0000E+00  0.0000E+00  0.0000E+00  0.0000E+00  0.0000E+00  0.0000E+00  0.0000E+00  0.0000E+00  0.0000E+00  0.0000E+00  0.0000E+00
    -43.223  0.0000E+00  0.0000E+00  0.0000E+00  0.0000E+00  0.0000E+00  0.0000E+00  0.0000E+00  0.0000E+00  0.0000E+00  0.0000E+00  0.0000E+00  0.0000E+00  0.0000E+00  0.0000E+00  0.0000E+00  0.0000E+00  0.0000E+00  0.0000E+00
    -43.018  0.0000E+00  0.0000E+00  0.0000E+00  0.0000E+00  0.0000E+00  0.0000E+00  0.0000E+00  0.0000E+00  0.0000E+00  0.0000E+00  0.0000E+00  0.0000E+00  0.0000E+00  0.0000E+00  0.0000E+00  0.0000E+00  0.0000E+00  0.0000E+00
    -42.813  0.0000E+00  0.0000E+00  0.0000E+00  0.0000E+00  0.0000E+00  0.0000E+00  0.0000E+00  0.0000E+00  0.0000E+00  0.0000E+00  0.0000E+00  0.0000E+00  0.0000E+00  0.0000E+00  0.0000E+00  0.0000E+00  0.0000E+00  0.0000E+00