  16  16   1   0
  0.2081250E+02  0.7055118E-09  0.6999050E-09  0.7308263E-09  0.5000000E-15
  1.000000000000000E-004
  CAR 
 unknown system                          
      8.36706912    -53.25154198  301      2.99417519      1.00000000
    -53.252  0.0000E+00  0.0000E+00  0.0000E+00  0.0000E+00
    -53.046  0.0000E+00  0.0000E+00  0.0000E+00  0.0000E+00
    -52.841  0.0000E+00  0.0000E+00  0.0000E+00  0.0000E+00
    -52.635  0.0000E+00  0.0000E+00  0.0000E+00  0.0000E+00
    -52.430  0.0000E+00  0.0000E+00  0.0000E+00  0.0000E+00
    -52.225  0.0000E+00  0.0000E+00  0.0000E+00  0.0000E+00
    -52.019  0.0000E+00  0.0000E+00  0.0000E+00  0.0000E+00
    -51.814  0.0000E+00  0.0000E+00  0.0000E+00  0.0000E+00
    -51.608  0.0000E+00  0.0000E+00  0.0000E+00  0.0000E+00
    -51.403  0.0000E+00  0.0000E+00  0.0000E+00  0.0000E+00
    -51.198  0.0000E+00  0.0000E+00  0.0000E+00  0.0000E+00
    -50.992  0.0000E+00  0.0000E+00  0.0000E+00  0.0000E+00
    -50.787  0.0000E+00  0.0000E+00  0.0000E+00  0.0000E+00
    -50.581  0.3662E-05  0.3662E-05  0.7522E-06  0.7522E-06
    -50.376  0.1117E+00  0.1117E+00  0.2295E-01  0.2295E-01
    -50.171  0.8519E-01  0.8519E-01  0.4045E-01  0.4045E-01
    -49.965  0.2590E+00  0.2590E+00  0.9364E-01  0.9364E-01
    -49.760  0.5986E+00  0.5986E+00  0.2166E+00  0.2166E+00
    -49.554  0.1258E+00  0.1258E+00  0.2424E+00  0.2424E+00
    -49.349  0.4055E-05  0.4055E-05  0.2424E+00  0.2424E+00
    -49.144  0.0000E+00  0.0000E+00  0.2424E+00  0.2424E+00
    -48.938  0.0000E+00  0.0000E+00  0.2424E+00  0.2424E+00
    -48.733  0.0000E+00  0.0000E+00  0.2424E+00  0.2424E+00
    -48.527  0.0000E+00  0.0000E+00  0.2424E+00  0.2424E+00
    -48.322  0.0000E+00  0.0000E+00  0.2424E+00  0.2424E+00
    -48.117  0.0000E+00  0.0000E+00  0.2424E+00  0.2424E+00
    -47.911  0.0000E+00  0.0000E+00  0.2424E+00  0.2424E+00
    -47.706  0.0000E+00  0.0000E+00  0.2424E+00  0.2424E+00
    -47.500  0.0000E+00  0.0000E+00  0.2424E+00  0.2424E+00
    -47.295  0.0000E+00  0.0000E+00  0.2424E+00  0.2424E+00
    -47.090  0.0000E+00  0.0000E+00  0.2424E+00  0.2424E+00
    -46.884  0.0000E+00  0.0000E+00  0.2424E+00  0.2424E+00
    -46.679  0.0000E+00  0.0000E+00  0.2424E+00  0.2424E+00
    -46.473  0.0000E+00  0.0000E+00  0.2424E+00  0.2424E+00
    -46.268  0.0000E+00  0.0000E+00  0.2424E+00  0.2424E+00
    -46.063  0.0000E+00  0.0000E+00  0.2424E+00  0.2424E+00
    -45.857  0.0000E+00  0.0000E+00  0.2424E+00  0.2424E+00
    -45.652  0.0000E+00  0.0000E+00  0.2424E+00  0.2424E+00
    -45.447  0.0000E+00  0.0000E+00  0.2424E+00  0.2424E+00
    -45.241  0.0000E+00  0.0000E+00  0.2424E+00  0.2424E+00
    -45.036  0.0000E+00  0.0000E+00  0.2424E+00  0.2424E+00
    -44.830  0.0000E+00  0.0000E+00  0.2424E+00  0.2424E+00
    -44.625  0.0000E+00  0.0000E+00  0.2424E+00  0.2424E+00
    -44.420  0.0000E+00  0.0000E+00  0.2424E+00  0.2424E+00
    -44.214  0.0000E+00  0.0000E+00  0.2424E+00  0.2424E+00
    -44.009  0.0000E+00  0.0000E+00  0.2424E+00  0.2424E+00
    -43.803  0.0000E+00  0.0000E+00  0.2424E+00  0.2424E+00
    -43.598  0.0000E+00  0.0000E+00  0.2424E+00  0.2424E+00
    -43.393  0.0000E+00  0.0000E+00  0.2424E+00  0.2424E+00
    -43.187  0.0000E+00  0.0000E+00  0.2424E+00  0.2424E+00
    -42.982  0.0000E+00  0.0000E+00  0.2424E+00  0.2424E+00
    -42.776  0.0000E+00  0.0000E+00  0.2424E+00  0.2424E+00
    -42.571  0.0000E+00  0.0000E+00  0.2424E+00  0.2424E+00
    -42.366  0.0000E+00  0.0000E+00  0.2424E+00  0.2424E+00
    -42.160  0.0000E+00  0.0000E+00  0.2424E+00  0.2424E+00
    -41.955  0.0000E+00  0.0000E+00  0.2424E+00  0.2424E+00
    -41.749  0.0000E+00  0.0000E+00  0.2424E+00  0.2424E+00
    -41.544  0.0000E+00  0.0000E+00  0.2424E+00  0.2424E+00
    -41.339  0.0000E+00  0.0000E+00  0.2424E+00  0.2424E+00
    -41.133  0.0000E+00  0.0000E+00  0.2424E+00  0.2424E+00
    -40.928  0.0000E+00  0.0000E+00  0.2424E+00  0.2424E+00
    -40.722  0.0000E+00  0.0000E+00  0.2424E+00  0.2424E+00
    -40.517  0.0000E+00  0.0000E+00  0.2424E+00  0.2424E+00
    -40.312  0.0000E+00  0.0000E+00  0.2424E+00  0.2424E+00
    -40.106  0.0000E+00  0.0000E+00  0.2424E+00  0.2424E+00
    -39.901  0.0000E+00  0.0000E+00  0.2424E+00  0.2424E+00
    -39.695  0.0000E+00  0.0000E+00  0.2424E+00  0.2424E+00
    -39.490  0.0000E+00  0.0000E+00  0.2424E+00  0.2424E+00
    -39.285  0.0000E+00  0.0000E+00  0.2424E+00  0.2424E+00
    -39.079  0.0000E+00  0.0000E+00  0.2424E+00  0.2424E+00
    -38.874  0.0000E+00  0.0000E+00  0.2424E+00  0.2424E+00
    -38.668  0.0000E+00  0.0000E+00  0.2424E+00  0.2424E+00
    -38.463  0.0000E+00  0.0000E+00  0.2424E+00  0.2424E+00
    -38.258  0.0000E+00  0.0000E+00  0.2424E+00  0.2424E+00
    -38.052  0.0000E+00  0.0000E+00  0.2424E+00  0.2424E+00
    -37.847  0.0000E+00  0.0000E+00  0.2424E+00  0.2424E+00
    -37.641  0.0000E+00  0.0000E+00  0.2424E+00  0.2424E+00
    -37.436  0.0000E+00  0.0000E+00  0.2424E+00  0.2424E+00
    -37.231  0.0000E+00  0.0000E+00  0.2424E+00  0.2424E+00
    -37.025  0.0000E+00  0.0000E+00  0.2424E+00  0.2424E+00
    -36.820  0.0000E+00  0.0000E+00  0.2424E+00  0.2424E+00
    -36.615  0.0000E+00  0.0000E+00  0.2424E+00  0.2424E+00
    -36.409  0.0000E+00  0.0000E+00  0.2424E+00  0.2424E+00
    -36.204  0.0000E+00  0.0000E+00  0.2424E+00  0.2424E+00
    -35.998  0.0000E+00  0.0000E+00  0.2424E+00  0.2424E+00
    -35.793  0.0000E+00  0.0000E+00  0.2424E+00  0.2424E+00
    -35.588  0.0000E+00  0.0000E+00  0.2424E+00  0.2424E+00
    -35.382  0.0000E+00  0.0000E+00  0.2424E+00  0.2424E+00
    -35.177  0.0000E+00  0.0000E+00  0.2424E+00  0.2424E+00
    -34.971  0.0000E+00  0.0000E+00  0.2424E+00  0.2424E+00
    -34.766  0.0000E+00  0.0000E+00  0.2424E+00  0.2424E+00
    -34.561  0.0000E+00  0.0000E+00  0.2424E+00  0.2424E+00
    -34.355  0.0000E+00  0.0000E+00  0.2424E+00  0.2424E+00
    -34.150  0.0000E+00  0.0000E+00  0.2424E+00  0.2424E+00
    -33.944  0.0000E+00  0.0000E+00  0.2424E+00  0.2424E+00
    -33.739  0.0000E+00  0.0000E+00  0.2424E+00  0.2424E+00
    -33.534  0.0000E+00  0.0000E+00  0.2424E+00  0.2424E+00
    -33.328  0.0000E+00  0.0000E+00  0.2424E+00  0.2424E+00
    -33.123  0.0000E+00  0.0000E+00  0.2424E+00  0.2424E+00
    -32.917  0.0000E+00  0.0000E+00  0.2424E+00  0.2424E+00
    -32.712  0.0000E+00  0.0000E+00  0.2424E+00  0.2424E+00
    -32.507  0.0000E+00  0.0000E+00  0.2424E+00  0.2424E+00
    -32.301  0.0000E+00  0.0000E+00  0.2424E+00  0.2424E+00
    -32.096  0.0000E+00  0.0000E+00  0.2424E+00  0.2424E+00
    -31.890  0.0000E+00  0.0000E+00  0.2424E+00  0.2424E+00
    -31.685  0.0000E+00  0.0000E+00  0.2424E+00  0.2424E+00
    -31.480  0.0000E+00  0.0000E+00  0.2424E+00  0.2424E+00
    -31.274  0.0000E+00  0.0000E+00  0.2424E+00  0.2424E+00
    -31.069  0.0000E+00  0.0000E+00  0.2424E+00  0.2424E+00
    -30.863  0.0000E+00  0.0000E+00  0.2424E+00  0.2424E+00
    -30.658  0.0000E+00  0.0000E+00  0.2424E+00  0.2424E+00
    -30.453  0.0000E+00  0.0000E+00  0.2424E+00  0.2424E+00
    -30.247  0.0000E+00  0.0000E+00  0.2424E+00  0.2424E+00
    -30.042  0.0000E+00  0.0000E+00  0.2424E+00  0.2424E+00
    -29.836  0.0000E+00  0.0000E+00  0.2424E+00  0.2424E+00
    -29.631  0.0000E+00  0.0000E+00  0.2424E+00  0.2424E+00
    -29.426  0.0000E+00  0.0000E+00  0.2424E+00  0.2424E+00
    -29.220  0.0000E+00  0.0000E+00  0.2424E+00  0.2424E+00
    -29.015  0.0000E+00  0.0000E+00  0.2424E+00  0.2424E+00
    -28.809  0.0000E+00  0.0000E+00  0.2424E+00  0.2424E+00
    -28.604  0.0000E+00  0.0000E+00  0.2424E+00  0.2424E+00
    -28.399  0.0000E+00  0.0000E+00  0.2424E+00  0.2424E+00
    -28.193  0.0000E+00  0.0000E+00  0.2424E+00  0.2424E+00
    -27.988  0.0000E+00  0.0000E+00  0.2424E+00  0.2424E+00
    -27.783  0.0000E+00  0.0000E+00  0.2424E+00  0.2424E+00
    -27.577  0.0000E+00  0.0000E+00  0.2424E+00  0.2424E+00
    -27.372  0.0000E+00  0.0000E+00  0.2424E+00  0.2424E+00
    -27.166  0.0000E+00  0.0000E+00  0.2424E+00  0.2424E+00
    -26.961  0.0000E+00  0.0000E+00  0.2424E+00  0.2424E+00
    -26.756  0.0000E+00  0.0000E+00  0.2424E+00  0.2424E+00
    -26.550  0.0000E+00  0.0000E+00  0.2424E+00  0.2424E+00
    -26.345  0.0000E+00  0.0000E+00  0.2424E+00  0.2424E+00
    -26.139  0.0000E+00  0.0000E+00  0.2424E+00  0.2424E+00
    -25.934  0.0000E+00  0.0000E+00  0.2424E+00  0.2424E+00
    -25.729  0.0000E+00  0.0000E+00  0.2424E+00  0.2424E+00
    -25.523  0.0000E+00  0.0000E+00  0.2424E+00  0.2424E+00
    -25.318  0.0000E+00  0.0000E+00  0.2424E+00  0.2424E+00
    -25.112  0.0000E+00  0.0000E+00  0.2424E+00  0.2424E+00
    -24.907  0.0000E+00  0.0000E+00  0.2424E+00  0.2424E+00
    -24.702  0.0000E+00  0.0000E+00  0.2424E+00  0.2424E+00
    -24.496  0.0000E+00  0.0000E+00  0.2424E+00  0.2424E+00
    -24.291  0.0000E+00  0.0000E+00  0.2424E+00  0.2424E+00
    -24.085  0.0000E+00  0.0000E+00  0.2424E+00  0.2424E+00
    -23.880  0.0000E+00  0.0000E+00  0.2424E+00  0.2424E+00
    -23.675  0.0000E+00  0.0000E+00  0.2424E+00  0.2424E+00
    -23.469  0.0000E+00  0.0000E+00  0.2424E+00  0.2424E+00
    -23.264  0.0000E+00  0.0000E+00  0.2424E+00  0.2424E+00
    -23.058  0.0000E+00  0.0000E+00  0.2424E+00  0.2424E+00
    -22.853  0.0000E+00  0.0000E+00  0.2424E+00  0.2424E+00
    -22.648  0.0000E+00  0.0000E+00  0.2424E+00  0.2424E+00
    -22.442  0.0000E+00  0.0000E+00  0.2424E+00  0.2424E+00
    -22.237  0.0000E+00  0.0000E+00  0.2424E+00  0.2424E+00
    -22.031  0.0000E+00  0.0000E+00  0.2424E+00  0.2424E+00
    -21.826  0.0000E+00  0.0000E+00  0.2424E+00  0.2424E+00
    -21.621  0.0000E+00  0.0000E+00  0.2424E+00  0.2424E+00
    -21.415  0.0000E+00  0.0000E+00  0.2424E+00  0.2424E+00
    -21.210  0.0000E+00  0.0000E+00  0.2424E+00  0.2424E+00
    -21.004  0.0000E+00  0.0000E+00  0.2424E+00  0.2424E+00
    -20.799  0.0000E+00  0.0000E+00  0.2424E+00  0.2424E+00
    -20.594  0.0000E+00  0.0000E+00  0.2424E+00  0.2424E+00
    -20.388  0.0000E+00  0.0000E+00  0.2424E+00  0.2424E+00
    -20.183  0.0000E+00  0.0000E+00  0.2424E+00  0.2424E+00
    -19.977  0.0000E+00  0.0000E+00  0.2424E+00  0.2424E+00
    -19.772  0.0000E+00  0.0000E+00  0.2424E+00  0.2424E+00
    -19.567  0.0000E+00  0.0000E+00  0.2424E+00  0.2424E+00
    -19.361  0.0000E+00  0.0000E+00  0.2424E+00  0.2424E+00
    -19.156  0.0000E+00  0.0000E+00  0.2424E+00  0.2424E+00
    -18.951  0.0000E+00  0.0000E+00  0.2424E+00  0.2424E+00
    -18.745  0.0000E+00  0.0000E+00  0.2424E+00  0.2424E+00
    -18.540  0.0000E+00  0.0000E+00  0.2424E+00  0.2424E+00
    -18.334  0.0000E+00  0.0000E+00  0.2424E+00  0.2424E+00
    -18.129  0.0000E+00  0.0000E+00  0.2424E+00  0.2424E+00
    -17.924  0.0000E+00  0.0000E+00  0.2424E+00  0.2424E+00
    -17.718  0.0000E+00  0.0000E+00  0.2424E+00  0.2424E+00
    -17.513  0.0000E+00  0.0000E+00  0.2424E+00  0.2424E+00
    -17.307  0.0000E+00  0.0000E+00  0.2424E+00  0.2424E+00
    -17.102  0.0000E+00  0.0000E+00  0.2424E+00  0.2424E+00
    -16.897  0.0000E+00  0.0000E+00  0.2424E+00  0.2424E+00
    -16.691  0.0000E+00  0.0000E+00  0.2424E+00  0.2424E+00
    -16.486  0.0000E+00  0.0000E+00  0.2424E+00  0.2424E+00
    -16.280  0.0000E+00  0.0000E+00  0.2424E+00  0.2424E+00
    -16.075  0.0000E+00  0.0000E+00  0.2424E+00  0.2424E+00
    -15.870  0.0000E+00  0.0000E+00  0.2424E+00  0.2424E+00
    -15.664  0.0000E+00  0.0000E+00  0.2424E+00  0.2424E+00
    -15.459  0.0000E+00  0.0000E+00  0.2424E+00  0.2424E+00
    -15.253  0.0000E+00  0.0000E+00  0.2424E+00  0.2424E+00
    -15.048  0.0000E+00  0.0000E+00  0.2424E+00  0.2424E+00
    -14.843  0.0000E+00  0.0000E+00  0.2424E+00  0.2424E+00
    -14.637  0.0000E+00  0.0000E+00  0.2424E+00  0.2424E+00
    -14.432  0.0000E+00  0.0000E+00  0.2424E+00  0.2424E+00
    -14.226  0.0000E+00  0.0000E+00  0.2424E+00  0.2424E+00
    -14.021  0.0000E+00  0.0000E+00  0.2424E+00  0.2424E+00
    -13.816  0.0000E+00  0.0000E+00  0.2424E+00  0.2424E+00
    -13.610  0.0000E+00  0.0000E+00  0.2424E+00  0.2424E+00
    -13.405  0.0000E+00  0.0000E+00  0.2424E+00  0.2424E+00
    -13.199  0.0000E+00  0.0000E+00  0.2424E+00  0.2424E+00
    -12.994  0.0000E+00  0.0000E+00  0.2424E+00  0.2424E+00
    -12.789  0.0000E+00  0.0000E+00  0.2424E+00  0.2424E+00
    -12.583  0.0000E+00  0.0000E+00  0.2424E+00  0.2424E+00
    -12.378  0.0000E+00  0.0000E+00  0.2424E+00  0.2424E+00
    -12.172  0.0000E+00  0.0000E+00  0.2424E+00  0.2424E+00
    -11.967  0.0000E+00  0.0000E+00  0.2424E+00  0.2424E+00
    -11.762  0.5084E-06  0.5084E-06  0.2424E+00  0.2424E+00
    -11.556  0.6554E-02  0.6554E-02  0.2438E+00  0.2438E+00
    -11.351  0.2046E-01  0.2046E-01  0.2480E+00  0.2480E+00
    -11.145  0.2455E-01  0.2455E-01  0.2530E+00  0.2530E+00
    -10.940  0.3007E-01  0.3007E-01  0.2592E+00  0.2592E+00
    -10.735  0.4793E-01  0.4793E-01  0.2690E+00  0.2690E+00
    -10.529  0.3012E-01  0.3012E-01  0.2752E+00  0.2752E+00
    -10.324  0.3702E-01  0.3702E-01  0.2828E+00  0.2828E+00
    -10.119  0.6996E-01  0.6996E-01  0.2972E+00  0.2972E+00
     -9.913  0.9914E-01  0.9914E-01  0.3176E+00  0.3176E+00
     -9.708  0.2763E-01  0.2763E-01  0.3232E+00  0.3232E+00
     -9.502  0.3858E-06  0.3858E-06  0.3232E+00  0.3232E+00
     -9.297  0.0000E+00  0.0000E+00  0.3232E+00  0.3232E+00
     -9.092  0.0000E+00  0.0000E+00  0.3232E+00  0.3232E+00
     -8.886  0.0000E+00  0.0000E+00  0.3232E+00  0.3232E+00
     -8.681  0.0000E+00  0.0000E+00  0.3232E+00  0.3232E+00
     -8.475  0.0000E+00  0.0000E+00  0.3232E+00  0.3232E+00
     -8.270  0.0000E+00  0.0000E+00  0.3232E+00  0.3232E+00
     -8.065  0.0000E+00  0.0000E+00  0.3232E+00  0.3232E+00
     -7.859  0.0000E+00  0.0000E+00  0.3232E+00  0.3232E+00
     -7.654  0.0000E+00  0.0000E+00  0.3232E+00  0.3232E+00
     -7.448  0.0000E+00  0.0000E+00  0.3232E+00  0.3232E+00
     -7.243  0.0000E+00  0.0000E+00  0.3232E+00  0.3232E+00
     -7.038  0.0000E+00  0.0000E+00  0.3232E+00  0.3232E+00
     -6.832  0.0000E+00  0.0000E+00  0.3232E+00  0.3232E+00
     -6.627  0.0000E+00  0.0000E+00  0.3232E+00  0.3232E+00
     -6.421  0.0000E+00  0.0000E+00  0.3232E+00  0.3232E+00
     -6.216  0.0000E+00  0.0000E+00  0.3232E+00  0.3232E+00
     -6.011  0.0000E+00  0.0000E+00  0.3232E+00  0.3232E+00
     -5.805  0.0000E+00  0.0000E+00  0.3232E+00  0.3232E+00
     -5.600  0.0000E+00  0.0000E+00  0.3232E+00  0.3232E+00
     -5.394  0.0000E+00  0.0000E+00  0.3232E+00  0.3232E+00
     -5.189  0.0000E+00  0.0000E+00  0.3232E+00  0.3232E+00
     -4.984  0.0000E+00  0.0000E+00  0.3232E+00  0.3232E+00
     -4.778  0.0000E+00  0.0000E+00  0.3232E+00  0.3232E+00
     -4.573  0.0000E+00  0.0000E+00  0.3232E+00  0.3232E+00
     -4.367  0.0000E+00  0.0000E+00  0.3232E+00  0.3232E+00
     -4.162  0.0000E+00  0.0000E+00  0.3232E+00  0.3232E+00
     -3.957  0.0000E+00  0.0000E+00  0.3232E+00  0.3232E+00
     -3.751  0.0000E+00  0.0000E+00  0.3232E+00  0.3232E+00
     -3.546  0.2052E-06  0.2052E-06  0.3232E+00  0.3232E+00
     -3.340  0.1602E-02  0.1602E-02  0.3236E+00  0.3236E+00
     -3.135  0.7122E-02  0.7122E-02  0.3250E+00  0.3250E+00
     -2.930  0.1686E-01  0.1686E-01  0.3285E+00  0.3285E+00
     -2.724  0.4870E-01  0.4870E-01  0.3385E+00  0.3385E+00
     -2.519  0.5688E-01  0.5688E-01  0.3502E+00  0.3502E+00
     -2.313  0.5434E-01  0.5434E-01  0.3613E+00  0.3613E+00
     -2.108  0.3838E-01  0.3838E-01  0.3692E+00  0.3692E+00
     -1.903  0.4165E-01  0.4165E-01  0.3778E+00  0.3778E+00
     -1.697  0.6339E-01  0.6339E-01  0.3908E+00  0.3908E+00
     -1.492  0.8070E-01  0.8070E-01  0.4074E+00  0.4074E+00
     -1.287  0.8563E-01  0.8563E-01  0.4250E+00  0.4250E+00
     -1.081  0.8154E-01  0.8154E-01  0.4417E+00  0.4417E+00
     -0.876  0.4752E-01  0.4752E-01  0.4515E+00  0.4515E+00
     -0.670  0.1150E+00  0.1150E+00  0.4751E+00  0.4751E+00
     -0.465  0.1184E+00  0.1184E+00  0.4994E+00  0.4994E+00
     -0.260  0.4078E-01  0.4078E-01  0.5078E+00  0.5078E+00
     -0.054  0.6678E-01  0.6678E-01  0.5215E+00  0.5215E+00
      0.151  0.4946E-01  0.4946E-01  0.5317E+00  0.5317E+00
      0.357  0.8837E-01  0.8837E-01  0.5498E+00  0.5498E+00
      0.562  0.1662E+00  0.1662E+00  0.5840E+00  0.5840E+00
      0.767  0.6315E-01  0.6315E-01  0.5969E+00  0.5969E+00
      0.973  0.8763E-01  0.8763E-01  0.6149E+00  0.6149E+00
      1.178  0.6518E-01  0.6518E-01  0.6283E+00  0.6283E+00
      1.384  0.6459E-01  0.6459E-01  0.6416E+00  0.6416E+00
      1.589  0.8761E-01  0.8761E-01  0.6596E+00  0.6596E+00
      1.794  0.9933E-01  0.9933E-01  0.6800E+00  0.6800E+00
      2.000  0.9880E-01  0.9880E-01  0.7003E+00  0.7003E+00
      2.205  0.1216E+00  0.1216E+00  0.7253E+00  0.7253E+00
      2.411  0.1297E+00  0.1297E+00  0.7519E+00  0.7519E+00
      2.616  0.1282E+00  0.1282E+00  0.7782E+00  0.7782E+00
      2.821  0.8585E-01  0.8585E-01  0.7959E+00  0.7959E+00
      3.027  0.7914E-01  0.7914E-01  0.8121E+00  0.8121E+00
      3.232  0.1276E+00  0.1276E+00  0.8383E+00  0.8383E+00
      3.438  0.8020E-01  0.8020E-01  0.8548E+00  0.8548E+00
      3.643  0.5593E-01  0.5593E-01  0.8663E+00  0.8663E+00
      3.848  0.4854E-01  0.4854E-01  0.8763E+00  0.8763E+00
      4.054  0.8007E-01  0.8007E-01  0.8927E+00  0.8927E+00
      4.259  0.1243E+00  0.1243E+00  0.9182E+00  0.9182E+00
      4.465  0.5158E-01  0.5158E-01  0.9288E+00  0.9288E+00
      4.670  0.1787E-01  0.1787E-01  0.9325E+00  0.9325E+00
      4.875  0.4382E-01  0.4382E-01  0.9415E+00  0.9415E+00
      5.081  0.7806E-01  0.7806E-01  0.9575E+00  0.9575E+00
      5.286  0.3805E-01  0.3805E-01  0.9654E+00  0.9654E+00
      5.492  0.1904E-01  0.1904E-01  0.9693E+00  0.9693E+00
      5.697  0.2070E-02  0.2070E-02  0.9697E+00  0.9697E+00
      5.902  0.3230E-07  0.3230E-07  0.9697E+00  0.9697E+00
      6.108  0.0000E+00  0.0000E+00  0.9697E+00  0.9697E+00
      6.313  0.0000E+00  0.0000E+00  0.9697E+00  0.9697E+00
      6.519  0.0000E+00  0.0000E+00  0.9697E+00  0.9697E+00
      6.724  0.0000E+00  0.0000E+00  0.9697E+00  0.9697E+00
      6.929  0.0000E+00  0.0000E+00  0.9697E+00  0.9697E+00
      7.135  0.0000E+00  0.0000E+00  0.9697E+00  0.9697E+00
      7.340  0.0000E+00  0.0000E+00  0.9697E+00  0.9697E+00
      7.545  0.0000E+00  0.0000E+00  0.9697E+00  0.9697E+00
      7.751  0.0000E+00  0.0000E+00  0.9697E+00  0.9697E+00
      7.956  0.0000E+00  0.0000E+00  0.9697E+00  0.9697E+00
      8.162  0.0000E+00  0.0000E+00  0.9697E+00  0.9697E+00
      8.367  0.0000E+00  0.0000E+00  0.9697E+00  0.9697E+00
      8.36706912    -53.25154198  301      2.99417519      1.00000000
    -53.252  0.0000E+00  0.0000E+00  0.0000E+00  0.0000E+00  0.0000E+00  0.0000E+00  0.0000E+00  0.0000E+00  0.0000E+00  0.0000E+00  0.0000E+00  0.0000E+00  0.0000E+00  0.0000E+00  0.0000E+00  0.0000E+00  0.0000E+00  0.0000E+00
    -53.046  0.0000E+00  0.0000E+00  0.0000E+00  0.0000E+00  0.0000E+00  0.0000E+00  0.0000E+00  0.0000E+00  0.0000E+00  0.0000E+00  0.0000E+00  0.0000E+00  0.0000E+00  0.0000E+00  0.0000E+00  0.0000E+00  0.0000E+00  0.0000E+00
    -52.841  0.0000E+00  0.0000E+00  0.0000E+00  0.0000E+00  0.0000E+00  0.0000E+00  0.0000E+00  0.0000E+00  0.0000E+00  0.0000E+00  0.0000E+00  0.0000E+00  0.0000E+00  0.0000E+00  0.0000E+00  0.0000E+00  0.0000E+00  0.0000E+00
    -52.635  0.0000E+00  0.0000E+00  0.0000E+00  0.0000E+00  0.0000E+00  0.0000E+00  0.0000E+00  0.0000E+00  0.0000E+00  0.0000E+00  0.0000E+00  0.0000E+00  0.0000E+00  0.0000E+00  0.0000E+00  0.0000E+00  0.0000E+00  0.0000E+00
    -52.430  0.0000E+00  0.0000E+00  0.0000E+00  0.0000E+00  0.0000E+00  0.0000E+00  0.0000E+00  0.0000E+00  0.0000E+00  0.0000E+00  0.0000E+00  0.0000E+00  0.0000E+00  0.0000E+00  0.0000E+00  0.0000E+00  0.0000E+00  0.0000E+00
    -52.225  0.0000E+00  0.0000E+00  0.0000E+00  0.0000E+00  0.0000E+00  0.0000E+00  0.0000E+00  0.0000E+00  0.0000E+00  0.0000E+00  0.0000E+00  0.0000E+00  0.0000E+00  0.0000E+00  0.0000E+00  0.0000E+00  0.0000E+00  0.0000E+00
    -52.019  0.0000E+00  0.0000E+00  0.0000E+00  0.0000E+00  0.0000E+00  0.0000E+00  0.0000E+00  0.0000E+00  0.0000E+00  0.0000E+00  0.0000E+00  0.0000E+00  0.0000E+00  0.0000E+00  0.0000E+00  0.0000E+00  0.0000E+00  0.0000E+00
    -51.814  0.0000E+00  0.0000E+00  0.0000E+00  0.0000E+00  0.0000E+00  0.0000E+00  0.0000E+00  0.0000E+00  0.0000E+00  0.0000E+00  0.0000E+00  0.0000E+00  0.0000E+00  0.0000E+00  0.0000E+00  0.0000E+00  0.0000E+00  0.0000E+00
    -51.608  0.0000E+00  0.0000E+00  0.0000E+00  0.0000E+00  0.0000E+00  0.0000E+00  0.0000E+00  0.0000E+00  0.0000E+00  0.0000E+00  0.0000E+00  0.0000E+00  0.0000E+00  0.0000E+00  0.0000E+00  0.0000E+00  0.0000E+00  0.0000E+00
    -51.403  0.0000E+00  0.0000E+00  0.0000E+00  0.0000E+00  0.0000E+00  0.0000E+00  0.0000E+00  0.0000E+00  0.0000E+00  0.0000E+00  0.0000E+00  0.0000E+00  0.0000E+00  0.0000E+00  0.0000E+00  0.0000E+00  0.0000E+00  0.0000E+00
    -51.198  0.0000E+00  0.0000E+00  0.0000E+00  0.0000E+00  0.0000E+00  0.0000E+00  0.0000E+00  0.0000E+00  0.0000E+00  0.0000E+00  0.0000E+00  0.0000E+00  0.0000E+00  0.0000E+00  0.0000E+00  0.0000E+00  0.0000E+00  0.0000E+00
    -50.992  0.0000E+00  0.0000E+00  0.0000E+00  0.0000E+00  0.0000E+00  0.0000E+00  0.0000E+00  0.0000E+00  0.0000E+00  0.0000E+00  0.0000E+00  0.0000E+00  0.0000E+00  0.0000E+00  0.0000E+00  0.0000E+00  0.0000E+00  0.0000E+00
    -50.787  0.0000E+00  0.0000E+00  0.0000E+00  0.0000E+00  0.0000E+00  0.0000E+00  0.0000E+00  0.0000E+00  0.0000E+00  0.0000E+00  0.0000E+00  0.0000E+00  0.0000E+00  0.0000E+00  0.0000E+00  0.0000E+00  0.0000E+00  0.0000E+00
    -50.581  0.6392E-09  0.1749E-07  0.1494E-05  0.2594E-05  0.2969E-07  0.1512E-05  0.5240E-06  0.2828E-04  0.8076E-10  0.3057E-09  0.3904E-11  0.1462E-10  0.3569E-09  0.7302E-08  0.1780E-10  0.4565E-08  0.4361E-09  0.1719E-07
    -50.376  0.2284E-03  0.2754E-03  0.4151E+00  0.1888E+00  0.8977E-02  0.2090E-01  0.1653E+00  0.3894E+00  0.3567E-05  0.5199E-05  0.1153E-06  0.2343E-06  0.1213E-03  0.1214E-03  0.1191E-04  0.6351E-04  0.2695E-03  0.3456E-03
    -50.171  0.1390E-03  0.1155E-03  0.9249E-01  0.4346E+00  0.2739E-01  0.1540E-02  0.5270E+00  0.2364E-01  0.3174E-05  0.1867E-05  0.1698E-06  0.4159E-07  0.6236E-04  0.6789E-04  0.4731E-04  0.2972E-05  0.3433E-03  0.2874E-03
    -49.965  0.6580E-04  0.5481E-04  0.1638E+01  0.1691E+01  0.1828E+01  0.1029E+01  0.1795E+01  0.1618E+01  0.4422E-05  0.7397E-05  0.1191E-05  0.5982E-05  0.1447E-04  0.1202E-04  0.7348E-05  0.5440E-05  0.5249E-04  0.4433E-04
    -49.760  0.1091E-03  0.9776E-04  0.2051E+01  0.1681E+01  0.2953E+01  0.3749E+01  0.1779E+01  0.1988E+01  0.2834E-04  0.3064E-04  0.2210E-04  0.1751E-04  0.3623E-04  0.3202E-04  0.2649E-04  0.2433E-04  0.6766E-04  0.5610E-04
    -49.554  0.3001E-04  0.2760E-04  0.6522E+00  0.8533E+00  0.3142E-01  0.4771E-01  0.5824E+00  0.8296E+00  0.1488E-04  0.9130E-05  0.7409E-06  0.5673E-06  0.1025E-04  0.1116E-04  0.6429E-05  0.2303E-05  0.5074E-04  0.4879E-04
    -49.349  0.4290E-09  0.2797E-09  0.1969E-04  0.2967E-04  0.1193E-05  0.1248E-05  0.2220E-04  0.2201E-04  0.3184E-09  0.1245E-09  0.1946E-10  0.8384E-11  0.1325E-09  0.1205E-09  0.1843E-09  0.4395E-10  0.1691E-08  0.1087E-08
    -49.144  0.0000E+00  0.0000E+00  0.0000E+00  0.0000E+00  0.0000E+00  0.0000E+00  0.0000E+00  0.0000E+00  0.0000E+00  0.0000E+00  0.0000E+00  0.0000E+00  0.0000E+00  0.0000E+00  0.0000E+00  0.0000E+00  0.0000E+00  0.0000E+00
    -48.938  0.0000E+00  0.0000E+00  0.0000E+00  0.0000E+00  0.0000E+00  0.0000E+00  0.0000E+00  0.0000E+00  0.0000E+00  0.0000E+00  0.0000E+00  0.0000E+00  0.0000E+00  0.0000E+00  0.0000E+00  0.0000E+00  0.0000E+00  0.0000E+00
    -48.733  0.0000E+00  0.0000E+00  0.0000E+00  0.0000E+00  0.0000E+00  0.0000E+00  0.0000E+00  0.0000E+00  0.0000E+00  0.0000E+00  0.0000E+00  0.0000E+00  0.0000E+00  0.0000E+00  0.0000E+00  0.0000E+00  0.0000E+00  0.0000E+00
    -48.527  0.0000E+00  0.0000E+00  0.0000E+00  0.0000E+00  0.0000E+00  0.0000E+00  0.0000E+00  0.0000E+00  0.0000E+00  0.0000E+00  0.0000E+00  0.0000E+00  0.0000E+00  0.0000E+00  0.0000E+00  0.0000E+00  0.0000E+00  0.0000E+00
    -48.322  0.0000E+00  0.0000E+00  0.0000E+00  0.0000E+00  0.0000E+00  0.0000E+00  0.0000E+00  0.0000E+00  0.0000E+00  0.0000E+00  0.0000E+00  0.0000E+00  0.0000E+00  0.0000E+00  0.0000E+00  0.0000E+00  0.0000E+00  0.0000E+00
    -48.117  0.0000E+00  0.0000E+00  0.0000E+00  0.0000E+00  0.0000E+00  0.0000E+00  0.0000E+00  0.0000E+00  0.0000E+00  0.0000E+00  0.0000E+00  0.0000E+00  0.0000E+00  0.0000E+00  0.0000E+00  0.0000E+00  0.0000E+00  0.0000E+00
    -47.911  0.0000E+00  0.0000E+00  0.0000E+00  0.0000E+00  0.0000E+00  0.0000E+00  0.0000E+00  0.0000E+00  0.0000E+00  0.0000E+00  0.0000E+00  0.0000E+00  0.0000E+00  0.0000E+00  0.0000E+00  0.0000E+00  0.0000E+00  0.0000E+00
    -47.706  0.0000E+00  0.0000E+00  0.0000E+00  0.0000E+00  0.0000E+00  0.0000E+00  0.0000E+00  0.0000E+00  0.0000E+00  0.0000E+00  0.0000E+00  0.0000E+00  0.0000E+00  0.0000E+00  0.0000E+00  0.0000E+00  0.0000E+00  0.0000E+00
    -47.500  0.0000E+00  0.0000E+00  0.0000E+00  0.0000E+00  0.0000E+00  0.0000E+00  0.0000E+00  0.0000E+00  0.0000E+00  0.0000E+00  0.0000E+00  0.0000E+00  0.0000E+00  0.0000E+00  0.0000E+00  0.0000E+00  0.0000E+00  0.0000E+00
    -47.295  0.0000E+00  0.0000E+00  0.0000E+00  0.0000E+00  0.0000E+00  0.0000E+00  0.0000E+00  0.0000E+00  0.0000E+00  0.0000E+00  0.0000E+00  0.0000E+00  0.0000E+00  0.0000E+00  0.0000E+00  0.0000E+00  0.0000E+00  0.0000E+00
    -47.090  0.0000E+00  0.0000E+00  0.0000E+00  0.0000E+00  0.0000E+00  0.0000E+00  0.0000E+00  0.0000E+00  0.0000E+00  0.0000E+00  0.0000E+00  0.0000E+00  0.0000E+00  0.0000E+00  0.0000E+00  0.0000E+00  0.0000E+00  0.0000E+00
    -46.884  0.0000E+00  0.0000E+00  0.0000E+00  0.0000E+00  0.0000E+00  0.0000E+00  0.0000E+00  0.0000E+00  0.0000E+00  0.0000E+00  0.0000E+00  0.0000E+00  0.0000E+00  0.0000E+00  0.0000E+00  0.0000E+00  0.0000E+00  0.0000E+00
    -46.679  0.0000E+00  0.0000E+00  0.0000E+00  0.0000E+00  0.0000E+00  0.0000E+00  0.0000E+00  0.0000E+00  0.0000E+00  0.0000E+00  0.0000E+00  0.0000E+00  0.0000E+00  0.0000E+00  0.0000E+00  0.0000E+00  0.0000E+00  0.0000E+00
    -46.473  0.0000E+00  0.0000E+00  0.0000E+00  0.0000E+00  0.0000E+00  0.0000E+00  0.0000E+00  0.0000E+00  0.0000E+00  0.0000E+00  0.0000E+00  0.0000E+00  0.0000E+00  0.0000E+00  0.0000E+00  0.0000E+00  0.0000E+00  0.0000E+00
    -46.268  0.0000E+00  0.0000E+00  0.0000E+00  0.0000E+00  0.0000E+00  0.0000E+00  0.0000E+00  0.0000E+00  0.0000E+00  0.0000E+00  0.0000E+00  0.0000E+00  0.0000E+00  0.0000E+00  0.0000E+00  0.0000E+00  0.0000E+00  0.0000E+00
    -46.063  0.0000E+00  0.0000E+00  0.0000E+00  0.0000E+00  0.0000E+00  0.0000E+00  0.0000E+00  0.0000E+00  0.0000E+00  0.0000E+00  0.0000E+00  0.0000E+00  0.0000E+00  0.0000E+00  0.0000E+00  0.0000E+00  0.0000E+00  0.0000E+00
    -45.857  0.0000E+00  0.0000E+00  0.0000E+00  0.0000E+00  0.0000E+00  0.0000E+00  0.0000E+00  0.0000E+00  0.0000E+00  0.0000E+00  0.0000E+00  0.0000E+00  0.0000E+00  0.0000E+00  0.0000E+00  0.0000E+00  0.0000E+00  0.0000E+00
    -45.652  0.0000E+00  0.0000E+00  0.0000E+00  0.0000E+00  0.0000E+00  0.0000E+00  0.0000E+00  0.0000E+00  0.0000E+00  0.0000E+00  0.0000E+00  0.0000E+00  0.0000E+00  0.0000E+00  0.0000E+00  0.0000E+00  0.0000E+00  0.0000E+00
    -45.447  0.0000E+00  0.0000E+00  0.0000E+00  0.0000E+00  0.0000E+00  0.0000E+00  0.0000E+00  0.0000E+00  0.0000E+00  0.0000E+00  0.0000E+00  0.0000E+00  0.0000E+00  0.0000E+00  0.0000E+00  0.0000E+00  0.0000E+00  0.0000E+00
    -45.241  0.0000E+00  0.0000E+00  0.0000E+00  0.0000E+00  0.0000E+00  0.0000E+00  0.0000E+00  0.0000E+00  0.0000E+00  0.0000E+00  0.0000E+00  0.0000E+00  0.0000E+00  0.0000E+00  0.0000E+00  0.0000E+00  0.0000E+00  0.0000E+00
    -45.036  0.0000E+00  0.0000E+00  0.0000E+00  0.0000E+00  0.0000E+00  0.0000E+00  0.0000E+00  0.0000E+00  0.0000E+00  0.0000E+00  0.0000E+00  0.0000E+00  0.0000E+00  0.0000E+00  0.0000E+00  0.0000E+00  0.0000E+00  0.0000E+00
    -44.830  0.0000E+00  0.0000E+00  0.0000E+00  0.0000E+00  0.0000E+00  0.0000E+00  0.0000E+00  0.0000E+00  0.0000E+00  0.0000E+00  0.0000E+00  0.0000E+00  0.0000E+00  0.0000E+00  0.0000E+00  0.0000E+00  0.0000E+00  0.0000E+00
    -44.625  0.0000E+00  0.0000E+00  0.0000E+00  0.0000E+00  0.0000E+00  0.0000E+00  0.0000E+00  0.0000E+00  0.0000E+00  0.0000E+00  0.0000E+00  0.0000E+00  0.0000E+00  0.0000E+00  0.0000E+00  0.0000E+00  0.0000E+00  0.0000E+00
    -44.420  0.0000E+00  0.0000E+00  0.0000E+00  0.0000E+00  0.0000E+00  0.0000E+00  0.0000E+00  0.0000E+00  0.0000E+00  0.0000E+00  0.0000E+00  0.0000E+00  0.0000E+00  0.0000E+00  0.0000E+00  0.0000E+00  0.0000E+00  0.0000E+00
    -44.214  0.0000E+00  0.0000E+00  0.0000E+00  0.0000E+00  0.0000E+00  0.0000E+00  0.0000E+00  0.0000E+00  0.0000E+00  0.0000E+00  0.0000E+00  0.0000E+00  0.0000E+00  0.0000E+00  0.0000E+00  0.0000E+00  0.0000E+00  0.0000E+00
    -44.009  0.0000E+00  0.0000E+00  0.0000E+00  0.0000E+00  0.0000E+00  0.0000E+00  0.0000E+00  0.0000E+00  0.0000E+00  0.0000E+00  0.0000E+00  0.0000E+00  0.0000E+00  0.0000E+00  0.0000E+00  0.0000E+00  0.0000E+00  0.0000E+00
    -43.803  0.0000E+00  0.0000E+00  0.0000E+00  0.0000E+00  0.0000E+00  0.0000E+00  0.0000E+00  0.0000E+00  0.0000E+00  0.0000E+00  0.0000E+00  0.0000E+00  0.0000E+00  0.0000E+00  0.0000E+00  0.0000E+00  0.0000E+00  0.0000E+00
    -43.598  0.0000E+00  0.0000E+00  0.0000E+00  0.0000E+00  0.0000E+00  0.0000E+00  0.0000E+00  0.0000E+00  0.0000E+00  0.0000E+00  0.0000E+00  0.0000E+00  0.0000E+00  0.0000E+00  0.0000E+00  0.0000E+00  0.0000E+00  0.0000E+00
    -43.393  0.0000E+00  0.0000E+00  0.0000E+00  0.0000E+00  0.0000E+00  0.0000E+00  0.0000E+00  0.0000E+00  0.0000E+00  0.0000E+00  0.0000E+00  0.0000E+00  0.0000E+00  0.0000E+00  0.0000E+00  0.0000E+00  0.0000E+00  0.0000E+00
    -43.187  0.0000E+00  0.0000E+00  0.0000E+00  0.0000E+00  0.0000E+00  0.0000E+00  0.0000E+00  0.0000E+00  0.0000E+00  0.0000E+00  0.0000E+00  0.0000E+00  0.0000E+00  0.0000E+00  0.0000E+00  0.0000E+00  0.0000E+00  0.0000E+00
    -42.982  0.0000E+00  0.0000E+00  0.0000E+00  0.0000E+00  0.0000E+00  0.0000E+00  0.0000E+00  0.0000E+00  0.0000E+00  0.0000E+00  0.0000E+00  0.0000E+00  0.0000E+00  0.0000E+00  0.0000E+00  0.0000E+00  0.0000E+00  0.0000E+00