       N       E                     dE             d eps       ncg     rms          rms(c)
DAV:   1     0.195671918166E+04    0.19567E+04   -0.91341E+04 95208   0.201E+03
DAV:   2     0.930623013262E+02   -0.18637E+04   -0.18313E+04 85152   0.573E+02
DAV:   3    -0.943120138380E+02   -0.18737E+03   -0.18073E+03126000   0.181E+02
DAV:   4    -0.105332195314E+03   -0.11020E+02   -0.10937E+02121704   0.453E+01
DAV:   5    -0.105650436411E+03   -0.31824E+00   -0.31725E+00113256   0.733E+00    0.268E+01
RMM:   6    -0.115315640191E+03   -0.96652E+01   -0.15265E+02 84926   0.860E+01    0.419E+01
RMM:   7    -0.960874676773E+02    0.19228E+02   -0.41912E+01 85132   0.499E+01    0.121E+01
RMM:   8    -0.101106986106E+03   -0.50195E+01   -0.75597E+00 99135   0.126E+01    0.384E+01
RMM:   9    -0.101334054101E+03   -0.22707E+00   -0.62289E+00 97701   0.130E+01    0.423E+01
RMM:  10    -0.955941375979E+02    0.57399E+01   -0.28508E+00 94583   0.924E+00    0.254E+00
RMM:  11    -0.957146428078E+02   -0.12051E+00   -0.87162E-01119069   0.289E+00    0.347E+00
RMM:  12    -0.957608519971E+02   -0.46209E-01   -0.14034E-01123618   0.982E-01    0.437E+00
RMM:  13    -0.956804637712E+02    0.80388E-01   -0.61922E-02 98930   0.116E+00    0.185E+00
RMM:  14    -0.957239845684E+02   -0.43521E-01   -0.31263E-02103513   0.729E-01    0.316E+00
RMM:  15    -0.956769544276E+02    0.47030E-01   -0.62666E-02114636   0.133E+00    0.974E-01
RMM:  16    -0.956863513060E+02   -0.93969E-02   -0.28653E-02 94835   0.112E+00    0.981E-01
RMM:  17    -0.956874649323E+02   -0.11136E-02   -0.61988E-03 88846   0.372E-01    0.944E-01
RMM:  18    -0.956868272234E+02    0.63771E-03   -0.25179E-03 78920   0.317E-01    0.759E-01
RMM:  19    -0.956932625406E+02   -0.64353E-02   -0.47124E-03 96930   0.316E-01    0.669E-01
RMM:  20    -0.956911189215E+02    0.21436E-02   -0.13109E-03 72907   0.219E-01    0.649E-01
RMM:  21    -0.956779384122E+02    0.13181E-01   -0.15436E-02124443   0.670E-01    0.442E-01
RMM:  22    -0.956839324428E+02   -0.59940E-02   -0.46752E-03100545   0.444E-01    0.209E-01
RMM:  23    -0.956839817098E+02   -0.49267E-04   -0.81404E-04 64981   0.150E-01
   1 F= -.10075508E+03 E0= -.10072555E+03  d E =-.100755E+03  mag=    -0.0000
       N       E                     dE             d eps       ncg     rms          rms(c)
DAV:   1    -0.958001079273E+02   -0.11618E+00   -0.39065E+00124656   0.189E+01    0.344E+00
RMM:   2    -0.964667502864E+02   -0.66664E+00   -0.12449E+00 99687   0.691E+00    0.140E+01
RMM:   3    -0.957887079957E+02    0.67804E+00   -0.59680E-01 87888   0.568E+00    0.489E+00
RMM:   4    -0.958136164491E+02   -0.24908E-01   -0.24128E-01 89171   0.347E+00    0.628E+00
RMM:   5    -0.957448749976E+02    0.68741E-01   -0.78518E-02 99235   0.178E+00    0.332E+00
RMM:   6    -0.957712963423E+02   -0.26421E-01   -0.28349E-02 97764   0.103E+00    0.397E+00
RMM:   7    -0.956928467205E+02    0.78450E-01   -0.22164E-02 92305   0.953E-01    0.108E+00
RMM:   8    -0.957173056551E+02   -0.24459E-01   -0.11286E-02106143   0.442E-01    0.184E+00
RMM:   9    -0.957008369483E+02    0.16469E-01   -0.76089E-03 89993   0.512E-01    0.471E-01
RMM:  10    -0.957075806869E+02   -0.67437E-02   -0.27798E-03 83996   0.281E-01    0.847E-01
RMM:  11    -0.957037804227E+02    0.38003E-02   -0.17772E-03 77539   0.269E-01    0.325E-01
RMM:  12    -0.957075801206E+02   -0.37997E-02   -0.16033E-03 79651   0.205E-01    0.406E-01
RMM:  13    -0.957033332724E+02    0.42468E-02   -0.11613E-03 68222   0.221E-01    0.346E-01
RMM:  14    -0.957017634105E+02    0.15699E-02   -0.27573E-03 92155   0.255E-01    0.245E-01
RMM:  15    -0.957031074374E+02   -0.13440E-02   -0.43917E-04 53272   0.169E-01    0.253E-01
RMM:  16    -0.957003129585E+02    0.27945E-02   -0.22167E-03 76258   0.251E-01    0.128E-01
RMM:  17    -0.957008321009E+02   -0.51914E-03   -0.10140E-03 64374   0.155E-01    0.694E-02
RMM:  18    -0.957012053159E+02   -0.37321E-03   -0.24525E-04 47906   0.118E-01    0.583E-02
RMM:  19    -0.957012527958E+02   -0.47480E-04   -0.90973E-05 46014   0.786E-02
   2 F= -.10077737E+03 E0= -.10074838E+03  d E =-.222836E-01  mag=     0.0000
       N       E                     dE             d eps       ncg     rms          rms(c)
DAV:   1    -0.958090553076E+02   -0.10785E+00   -0.43251E+00107856   0.200E+01    0.353E+00
RMM:   2    -0.963458568780E+02   -0.53680E+00   -0.12606E+00102074   0.698E+00    0.128E+01
RMM:   3    -0.958225443100E+02    0.52331E+00   -0.59509E-01 88082   0.562E+00    0.560E+00
RMM:   4    -0.958547104416E+02   -0.32166E-01   -0.27223E-01 90124   0.366E+00    0.747E+00
RMM:   5    -0.957394305980E+02    0.11528E+00   -0.91018E-02 96358   0.197E+00    0.272E+00
RMM:   6    -0.957356798228E+02    0.37508E-02   -0.33119E-02 91275   0.127E+00    0.263E+00
RMM:   7    -0.957097065926E+02    0.25973E-01   -0.12590E-02106215   0.588E-01    0.118E+00
RMM:   8    -0.957069396766E+02    0.27669E-02   -0.61193E-03 95855   0.388E-01    0.331E-01
RMM:   9    -0.957113863676E+02   -0.44467E-02   -0.35676E-03 89533   0.312E-01    0.629E-01
RMM:  10    -0.957091528526E+02    0.22335E-02   -0.13745E-03 73549   0.229E-01    0.228E-01
RMM:  11    -0.957107619615E+02   -0.16091E-02   -0.96700E-04 67923   0.161E-01    0.310E-01
RMM:  12    -0.957097319476E+02    0.10300E-02   -0.34726E-04 51705   0.133E-01    0.187E-01
RMM:  13    -0.957098708352E+02   -0.13889E-03   -0.11528E-04 48566   0.684E-02
   3 F= -.10079142E+03 E0= -.10076354E+03  d E =-.363308E-01  mag=    -0.0000
       N       E                     dE             d eps       ncg     rms          rms(c)
DAV:   1    -0.956502177065E+02    0.59514E-01   -0.30879E+00110088   0.278E+01    0.191E+00
RMM:   2    -0.962247713647E+02   -0.57455E+00   -0.13500E+00107472   0.682E+00    0.120E+01
RMM:   3    -0.957256277545E+02    0.49914E+00   -0.39243E-01 95152   0.461E+00    0.143E+00
RMM:   4    -0.958125243182E+02   -0.86897E-01   -0.12412E-01105474   0.209E+00    0.559E+00
RMM:   5    -0.957411032350E+02    0.71421E-01   -0.43687E-02 94622   0.136E+00    0.180E+00
RMM:   6    -0.957525371688E+02   -0.11434E-01   -0.16642E-02122247   0.515E-01    0.235E+00
RMM:   7    -0.957287426381E+02    0.23795E-01   -0.94709E-03 93076   0.572E-01    0.470E-01
RMM:   8    -0.957406907486E+02   -0.11948E-01   -0.61867E-03103178   0.351E-01    0.776E-01
RMM:   9    -0.957371118868E+02    0.35789E-02   -0.17710E-03 77217   0.265E-01    0.484E-01
RMM:  10    -0.957436226941E+02   -0.65108E-02   -0.22132E-03 85379   0.244E-01    0.529E-01
RMM:  11    -0.957373605163E+02    0.62622E-02   -0.14081E-03 71835   0.251E-01    0.429E-01
RMM:  12    -0.957385413693E+02   -0.11809E-02   -0.20110E-04 48798   0.895E-02    0.433E-01
RMM:  13    -0.957183564334E+02    0.20185E-01   -0.23525E-02137654   0.818E-01    0.274E-01
RMM:  14    -0.957246617899E+02   -0.63054E-02   -0.37367E-03 91196   0.355E-01    0.134E-01
RMM:  15    -0.957255954291E+02   -0.93364E-03   -0.10763E-03 68887   0.198E-01    0.141E-01
RMM:  16    -0.957260232203E+02   -0.42779E-03   -0.31477E-04 50210   0.108E-01    0.167E-01
RMM:  17    -0.957248248512E+02    0.11984E-02   -0.49282E-04 53686   0.153E-01    0.856E-02
RMM:  18    -0.957250109247E+02   -0.18607E-03   -0.41003E-04 52619   0.977E-02
   4 F= -.10080951E+03 E0= -.10078141E+03  d E =-.180968E-01  mag=    -0.0000
       N       E                     dE             d eps       ncg     rms          rms(c)
DAV:   1    -0.953687560260E+02    0.35607E+00   -0.15702E+01112224   0.619E+01    0.400E+00
RMM:   2    -0.974896827696E+02   -0.21209E+01   -0.63667E+00110185   0.147E+01    0.210E+01
RMM:   3    -0.957490662620E+02    0.17406E+01   -0.17410E+00 95927   0.956E+00    0.299E+00
RMM:   4    -0.959971758895E+02   -0.24811E+00   -0.53094E-01100567   0.450E+00    0.101E+01
RMM:   5    -0.957735412248E+02    0.22363E+00   -0.19922E-01 98982   0.276E+00    0.320E+00
RMM:   6    -0.957627772359E+02    0.10764E-01   -0.64998E-02 96410   0.156E+00    0.238E+00
RMM:   7    -0.957476843944E+02    0.15093E-01   -0.29042E-02119735   0.650E-01    0.152E+00
RMM:   8    -0.957372969719E+02    0.10387E-01   -0.81622E-03 93982   0.459E-01    0.703E-01
RMM:   9    -0.957475164108E+02   -0.10219E-01   -0.65273E-03 97723   0.360E-01    0.138E+00
RMM:  10    -0.957390504624E+02    0.84659E-02   -0.53341E-03 91281   0.421E-01    0.545E-01
RMM:  11    -0.957411223672E+02   -0.20719E-02   -0.13037E-03 73516   0.175E-01    0.590E-01
RMM:  12    -0.957389384652E+02    0.21839E-02   -0.24639E-03 88223   0.250E-01    0.125E-01
RMM:  13    -0.957399859994E+02   -0.10475E-02   -0.54013E-04 55501   0.153E-01    0.142E-01
RMM:  14    -0.957400528193E+02   -0.66820E-04   -0.13287E-04 48620   0.853E-02
   5 F= -.10083160E+03 E0= -.10080458E+03  d E =-.401856E-01  mag=    -0.0000
       N       E                     dE             d eps       ncg     rms          rms(c)
DAV:   1    -0.957177973767E+02    0.22189E-01   -0.10202E+00116928   0.171E+01    0.894E-01
RMM:   2    -0.957781054509E+02   -0.60308E-01   -0.38066E-01120162   0.340E+00    0.325E+00
RMM:   3    -0.957556687301E+02    0.22437E-01   -0.84201E-02 99671   0.196E+00    0.140E+00
RMM:   4    -0.957592963823E+02   -0.36277E-02   -0.23951E-02 95849   0.981E-01    0.161E+00
RMM:   5    -0.957585596324E+02    0.73675E-03   -0.83116E-03114041   0.413E-01    0.145E+00
RMM:   6    -0.957551290938E+02    0.34305E-02   -0.15186E-03 76359   0.229E-01    0.116E+00
RMM:   7    -0.957490472898E+02    0.60818E-02   -0.40470E-03 98587   0.339E-01    0.302E-01
RMM:   8    -0.957528249421E+02   -0.37777E-02   -0.11905E-03 72888   0.199E-01    0.394E-01
RMM:   9    -0.957515325752E+02    0.12924E-02   -0.34676E-04 51461   0.136E-01    0.299E-01
RMM:  10    -0.957526138439E+02   -0.10813E-02   -0.24413E-04 49159   0.102E-01    0.383E-01
RMM:  11    -0.957526214236E+02   -0.75797E-05   -0.78390E-04 60845   0.179E-01
   6 F= -.10084576E+03 E0= -.10081974E+03  d E =-.141581E-01  mag=    -0.0000
       N       E                     dE             d eps       ncg     rms          rms(c)
DAV:   1    -0.954910665095E+02    0.26155E+00   -0.90780E+00106152   0.516E+01    0.254E+00
RMM:   2    -0.959377057702E+02   -0.44664E+00   -0.34939E+00123552   0.101E+01    0.757E+00
RMM:   3    -0.958457985681E+02    0.91907E-01   -0.73484E-01101418   0.574E+00    0.422E+00
RMM:   4    -0.958208341735E+02    0.24964E-01   -0.21862E-01 94506   0.299E+00    0.284E+00
RMM:   5    -0.958490822915E+02   -0.28248E-01   -0.80362E-02126964   0.128E+00    0.356E+00
RMM:   6    -0.958461823950E+02    0.28999E-02   -0.11873E-02120452   0.439E-01    0.350E+00
RMM:   7    -0.957894175313E+02    0.56765E-01   -0.30533E-02115914   0.852E-01    0.128E+00
RMM:   8    -0.958042171326E+02   -0.14800E-01   -0.60928E-03 90691   0.470E-01    0.164E+00
RMM:   9    -0.957897636987E+02    0.14453E-01   -0.10058E-02109370   0.529E-01    0.654E-01
RMM:  10    -0.958072210551E+02   -0.17457E-01   -0.18749E-02134590   0.812E-01    0.767E-01
RMM:  11    -0.958205871095E+02   -0.13366E-01   -0.92431E-03110233   0.468E-01    0.875E-01
RMM:  12    -0.958339504086E+02   -0.13363E-01   -0.15765E-02122294   0.543E-01    0.902E-01
RMM:  13    -0.958385523332E+02   -0.46019E-02   -0.34193E-02137398   0.784E-01    0.751E-01
RMM:  14    -0.958294345412E+02    0.91178E-02   -0.16273E-02123032   0.706E-01    0.334E-01
RMM:  15    -0.958379122334E+02   -0.84777E-02   -0.16624E-02122753   0.661E-01    0.193E-01
RMM:  16    -0.958387324900E+02   -0.82026E-03   -0.35594E-03 87801   0.206E-01    0.106E-01
RMM:  17    -0.958392113013E+02   -0.47881E-03   -0.60641E-04 58285   0.153E-01    0.830E-02
RMM:  18    -0.958392923427E+02   -0.81041E-04   -0.27843E-04 51472   0.943E-02
   7 F= -.10093731E+03 E0= -.10092012E+03  d E =-.105706E+00  mag=    -0.0000
       N       E                     dE             d eps       ncg     rms          rms(c)
DAV:   1    -0.946182013065E+02    0.12210E+01   -0.36002E+01100032   0.102E+02    0.480E+00
RMM:   2    -0.962564840601E+02   -0.16383E+01   -0.14418E+01124687   0.212E+01    0.125E+01
RMM:   3    -0.960685348838E+02    0.18795E+00   -0.29922E+00100706   0.113E+01    0.782E+00
RMM:   4    -0.959550047532E+02    0.11353E+00   -0.88624E-01 93947   0.598E+00    0.496E+00
RMM:   5    -0.960444177726E+02   -0.89413E-01   -0.38765E-01107566   0.332E+00    0.683E+00
RMM:   6    -0.959508322309E+02    0.93586E-01   -0.12667E-01 89918   0.233E+00    0.381E+00
RMM:   7    -0.958723833336E+02    0.78449E-01   -0.65784E-02121297   0.118E+00    0.182E+00
RMM:   8    -0.958604417275E+02    0.11942E-01   -0.26248E-02102190   0.788E-01    0.135E+00
RMM:   9    -0.958774413795E+02   -0.17000E-01   -0.13608E-02104796   0.590E-01    0.160E+00
RMM:  10    -0.958658826200E+02    0.11559E-01   -0.55689E-03 83903   0.476E-01    0.955E-01
RMM:  11    -0.958694197741E+02   -0.35372E-02   -0.41844E-03 89972   0.321E-01    0.809E-01
RMM:  12    -0.958652000151E+02    0.42198E-02   -0.17940E-03 76243   0.272E-01    0.568E-01
RMM:  13    -0.958612822660E+02    0.39177E-02   -0.64455E-03110642   0.349E-01    0.194E-01
RMM:  14    -0.958628804953E+02   -0.15982E-02   -0.15903E-03 82414   0.205E-01    0.171E-01
RMM:  15    -0.958633244888E+02   -0.44399E-03   -0.47095E-04 53695   0.148E-01    0.797E-02
RMM:  16    -0.958635482348E+02   -0.22375E-03   -0.37154E-04 52505   0.112E-01    0.587E-02
RMM:  17    -0.958637277489E+02   -0.17951E-03   -0.33821E-04 51825   0.108E-01
   8 F= -.10097198E+03 E0= -.10095573E+03  d E =-.140378E+00  mag=     0.0000
       N       E                     dE             d eps       ncg     rms          rms(c)
DAV:   1    -0.918365808379E+02    0.40270E+01   -0.15749E+02113808   0.204E+02    0.931E+00
RMM:   2    -0.985634830343E+02   -0.67269E+01   -0.53156E+01124889   0.413E+01    0.275E+01
RMM:   3    -0.965628357821E+02    0.20006E+01   -0.10360E+01 98049   0.215E+01    0.124E+01
RMM:   4    -0.972643288441E+02   -0.70149E+00   -0.40689E+00101433   0.120E+01    0.164E+01
RMM:   5    -0.960591179817E+02    0.12052E+01   -0.15020E+00 88044   0.837E+00    0.578E+00
RMM:   6    -0.959578848002E+02    0.10123E+00   -0.46743E-01103329   0.390E+00    0.350E+00
RMM:   7    -0.960253436179E+02   -0.67459E-01   -0.19892E-01126539   0.141E+00    0.410E+00
RMM:   8    -0.959171565378E+02    0.10819E+00   -0.75957E-02 94917   0.144E+00    0.344E+00
RMM:   9    -0.958967877460E+02    0.20369E-01   -0.15063E-01117044   0.155E+00    0.296E+00
RMM:  10    -0.959192348393E+02   -0.22447E-01   -0.27283E-02107979   0.803E-01    0.298E+00
RMM:  11    -0.958855308699E+02    0.33704E-01   -0.59993E-02123076   0.115E+00    0.254E+00
RMM:  12    -0.958582855833E+02    0.27245E-01   -0.56795E-02121802   0.139E+00    0.884E-01
RMM:  13    -0.958701848684E+02   -0.11899E-01   -0.17225E-02 89758   0.819E-01    0.693E-01
RMM:  14    -0.958750115210E+02   -0.48267E-02   -0.81205E-03107321   0.372E-01    0.638E-01
RMM:  15    -0.958698918578E+02    0.51197E-02   -0.32492E-03 76011   0.371E-01    0.631E-01
RMM:  16    -0.958614734623E+02    0.84184E-02   -0.18387E-02125563   0.622E-01    0.473E-01
RMM:  17    -0.958654406850E+02   -0.39672E-02   -0.31044E-03 87009   0.314E-01    0.337E-01
RMM:  18    -0.958670335801E+02   -0.15929E-02   -0.45541E-03101787   0.332E-01    0.196E-01
RMM:  19    -0.958678215713E+02   -0.78799E-03   -0.13501E-03 76044   0.178E-01    0.133E-01
RMM:  20    -0.958687804758E+02   -0.95890E-03   -0.10531E-03 67260   0.186E-01    0.146E-01
RMM:  21    -0.958698325228E+02   -0.10520E-02   -0.31247E-03 98069   0.274E-01    0.967E-02
RMM:  22    -0.958704992211E+02   -0.66670E-03   -0.28565E-03 98037   0.268E-01    0.132E-01
RMM:  23    -0.958707416793E+02   -0.24246E-03   -0.53653E-04 55929   0.157E-01    0.743E-02
RMM:  24    -0.958707941106E+02   -0.52431E-04   -0.59966E-04 57334   0.127E-01
   9 F= -.10100151E+03 E0= -.10098784E+03  d E =-.169906E+00  mag=     0.0000
       N       E                     dE             d eps       ncg     rms          rms(c)
DAV:   1    -0.958062290932E+02    0.64513E-01   -0.29937E+00107136   0.274E+01    0.645E-01
RMM:   2    -0.958791344650E+02   -0.72905E-01   -0.74660E-01122313   0.480E+00    0.104E+00
RMM:   3    -0.958980172306E+02   -0.18883E-01   -0.14472E-01117419   0.221E+00    0.166E+00
RMM:   4    -0.958937789353E+02    0.42383E-02   -0.27303E-02109486   0.877E-01    0.745E-01
RMM:   5    -0.958925877659E+02    0.11912E-02   -0.72921E-03 97377   0.487E-01    0.396E-01
RMM:   6    -0.958923711800E+02    0.21659E-03   -0.22902E-03 80706   0.245E-01    0.314E-01
RMM:   7    -0.958922106353E+02    0.16054E-03   -0.74979E-04 63970   0.114E-01
  10 F= -.10102392E+03 E0= -.10101097E+03  d E =-.224110E-01  mag=     0.0000
       N       E                     dE             d eps       ncg     rms          rms(c)
DAV:   1    -0.951200336441E+02    0.77234E+00   -0.26493E+01104688   0.823E+01    0.198E+00
RMM:   2    -0.958169196737E+02   -0.69689E+00   -0.71792E+00124913   0.151E+01    0.275E+00
RMM:   3    -0.960166216917E+02   -0.19970E+00   -0.13392E+00117657   0.660E+00    0.554E+00
RMM:   4    -0.959400617787E+02    0.76560E-01   -0.23142E-01107174   0.262E+00    0.106E+00
RMM:   5    -0.959471418464E+02   -0.70801E-02   -0.59749E-02118122   0.122E+00    0.129E+00
RMM:   6    -0.959464254569E+02    0.71639E-03   -0.13012E-02117598   0.501E-01    0.110E+00
RMM:   7    -0.959410712284E+02    0.53542E-02   -0.49374E-03 99451   0.371E-01    0.870E-01
RMM:   8    -0.959360070145E+02    0.50642E-02   -0.44453E-03 95511   0.413E-01    0.695E-01
RMM:   9    -0.959414835620E+02   -0.54765E-02   -0.28332E-03 89033   0.268E-01    0.108E+00
RMM:  10    -0.959325909835E+02    0.88926E-02   -0.13264E-02134550   0.649E-01    0.311E-01
RMM:  11    -0.959335689765E+02   -0.97799E-03   -0.14186E-03 79267   0.196E-01    0.115E-01
RMM:  12    -0.959338780810E+02   -0.30910E-03   -0.62505E-04 58762   0.169E-01    0.645E-02
RMM:  13    -0.959339882601E+02   -0.11018E-03   -0.43871E-04 52741   0.112E-01
  11 F= -.10106875E+03 E0= -.10105621E+03  d E =-.672444E-01  mag=     0.0000
       N       E                     dE             d eps       ncg     rms          rms(c)
DAV:   1    -0.933520933261E+02    0.25818E+01   -0.11452E+02121584   0.163E+02    0.355E+00
RMM:   2    -0.955564115216E+02   -0.22043E+01   -0.22887E+01125164   0.271E+01    0.611E+00
RMM:   3    -0.960344010256E+02   -0.47799E+00   -0.46591E+00117878   0.121E+01    0.697E+00
RMM:   4    -0.961418686083E+02   -0.10747E+00   -0.98581E-01112356   0.521E+00    0.731E+00
RMM:   5    -0.959071197444E+02    0.23475E+00   -0.23947E-01 91829   0.327E+00    0.126E+00
RMM:   6    -0.959101585316E+02   -0.30388E-02   -0.95093E-02119584   0.137E+00    0.107E+00
RMM:   7    -0.959183243864E+02   -0.81659E-02   -0.23311E-02110038   0.714E-01    0.166E+00
RMM:   8    -0.959023797372E+02    0.15945E-01   -0.13761E-02 93355   0.657E-01    0.951E-01
RMM:   9    -0.959011997494E+02    0.11800E-02   -0.13360E-02 98702   0.585E-01    0.467E-01
RMM:  10    -0.959044217856E+02   -0.32220E-02   -0.44473E-03 99003   0.295E-01    0.535E-01
RMM:  11    -0.959012219640E+02    0.31998E-02   -0.48261E-03 95062   0.345E-01    0.312E-01
RMM:  12    -0.959005511296E+02    0.67083E-03   -0.16499E-03 79219   0.221E-01    0.152E-01
RMM:  13    -0.959008872890E+02   -0.33616E-03   -0.10820E-03 71977   0.142E-01    0.899E-02
RMM:  14    -0.959010525727E+02   -0.16528E-03   -0.97923E-04 70434   0.143E-01
  12 F= -.10104210E+03 E0= -.10102829E+03  d E =-.405922E-01  mag=     0.0000
       N       E                     dE             d eps       ncg     rms          rms(c)
DAV:   1    -0.945237477876E+02    0.13771E+01   -0.59958E+01116592   0.119E+02    0.280E+00
RMM:   2    -0.959458083458E+02   -0.14221E+01   -0.13164E+01122711   0.203E+01    0.844E+00
RMM:   3    -0.959846638556E+02   -0.38856E-01   -0.26136E+00117084   0.959E+00    0.482E+00
RMM:   4    -0.960940426246E+02   -0.10938E+00   -0.59965E-01108436   0.410E+00    0.611E+00
RMM:   5    -0.959491313527E+02    0.14491E+00   -0.17815E-01 95627   0.270E+00    0.978E-01
RMM:   6    -0.959445070416E+02    0.46243E-02   -0.53519E-02105344   0.124E+00    0.593E-01
RMM:   7    -0.959442150180E+02    0.29202E-03   -0.25624E-02111843   0.647E-01    0.606E-01
RMM:   8    -0.959448616683E+02   -0.64665E-03   -0.57358E-03112647   0.308E-01    0.614E-01
RMM:   9    -0.959448965132E+02   -0.34845E-04   -0.12660E-03 71298   0.150E-01
  13 F= -.10108135E+03 E0= -.10106767E+03  d E =-.798420E-01  mag=    -0.0000
       N       E                     dE             d eps       ncg     rms          rms(c)
DAV:   1    -0.960198781932E+02   -0.75017E-01   -0.23046E+00112872   0.166E+01    0.210E+00
RMM:   2    -0.960242050432E+02   -0.43268E-02   -0.52645E-01117457   0.467E+00    0.251E+00
RMM:   3    -0.961473128232E+02   -0.12311E+00   -0.24893E-01 96582   0.347E+00    0.642E+00
RMM:   4    -0.960261128438E+02    0.12120E+00   -0.10720E-01 91418   0.226E+00    0.224E+00
RMM:   5    -0.960476180063E+02   -0.21505E-01   -0.59425E-02 91318   0.146E+00    0.285E+00
RMM:   6    -0.960462806480E+02    0.13374E-02   -0.24612E-02100822   0.879E-01    0.229E+00
RMM:   7    -0.959838012301E+02    0.62479E-01   -0.43405E-02104645   0.119E+00    0.102E+00
RMM:   8    -0.959972056693E+02   -0.13404E-01   -0.97074E-03103414   0.441E-01    0.138E+00
RMM:   9    -0.959861689302E+02    0.11037E-01   -0.12551E-02108022   0.620E-01    0.380E-01
RMM:  10    -0.959886335502E+02   -0.24646E-02   -0.42054E-03 80706   0.398E-01    0.157E-01
RMM:  11    -0.959888487750E+02   -0.21522E-03   -0.23507E-03 78734   0.294E-01    0.161E-01
RMM:  12    -0.959888387228E+02    0.10052E-04   -0.94388E-04 67329   0.134E-01
  14 F= -.10111962E+03 E0= -.10110625E+03  d E =-.382660E-01  mag=     0.0000
       N       E                     dE             d eps       ncg     rms          rms(c)
DAV:   1    -0.963648827070E+02   -0.37603E+00   -0.20482E+01108384   0.492E+01    0.640E+00
RMM:   2    -0.965711045996E+02   -0.20622E+00   -0.49283E+00113012   0.142E+01    0.109E+01
RMM:   3    -0.971519421778E+02   -0.58084E+00   -0.26252E+00 96773   0.111E+01    0.147E+01
RMM:   4    -0.966084079255E+02    0.54353E+00   -0.12063E+00 93156   0.737E+00    0.102E+01
RMM:   5    -0.962382854904E+02    0.37012E+00   -0.61995E-01 87864   0.519E+00    0.507E+00
RMM:   6    -0.961023243860E+02    0.13596E+00   -0.18194E-01 93184   0.286E+00    0.126E+00
RMM:   7    -0.961195322062E+02   -0.17208E-01   -0.75753E-02124968   0.884E-01    0.189E+00
RMM:   8    -0.961001278846E+02    0.19404E-01   -0.24785E-02100889   0.770E-01    0.108E+00
RMM:   9    -0.961026016885E+02   -0.24738E-02   -0.80329E-03 93949   0.447E-01    0.945E-01
RMM:  10    -0.960977193888E+02    0.48823E-02   -0.39970E-03 84857   0.368E-01    0.552E-01
RMM:  11    -0.960941865216E+02    0.35329E-02   -0.10298E-02119593   0.509E-01    0.221E-01
RMM:  12    -0.960955803517E+02   -0.13938E-02   -0.19970E-03 81380   0.227E-01    0.103E-01
RMM:  13    -0.960956722237E+02   -0.91872E-04   -0.64211E-04 59055   0.163E-01
  15 F= -.10121013E+03 E0= -.10119613E+03  d E =-.128781E+00  mag=     0.0000
       N       E                     dE             d eps       ncg     rms          rms(c)
DAV:   1    -0.973011206324E+02   -0.12055E+01   -0.83216E+01106224   0.966E+01    0.131E+01
RMM:   2    -0.983616909826E+02   -0.10606E+01   -0.20290E+01113445   0.281E+01    0.213E+01
RMM:   3    -0.988558921169E+02   -0.49420E+00   -0.10223E+01 94128   0.215E+01    0.236E+01
RMM:   4    -0.964695231999E+02    0.23864E+01   -0.40606E+00 93000   0.140E+01    0.589E+00
RMM:   5    -0.968300766132E+02   -0.36055E+00   -0.13550E+00100619   0.738E+00    0.139E+01
RMM:   6    -0.962035895215E+02    0.62649E+00   -0.44340E-01102280   0.394E+00    0.207E+00
RMM:   7    -0.962379866923E+02   -0.34397E-01   -0.16692E-01127753   0.145E+00    0.256E+00
RMM:   8    -0.962320356016E+02    0.59511E-02   -0.24777E-02125294   0.543E-01    0.248E+00
RMM:   9    -0.961767302974E+02    0.55305E-01   -0.46523E-02114417   0.113E+00    0.156E+00
RMM:  10    -0.962016549180E+02   -0.24925E-01   -0.43540E-02123071   0.948E-01    0.235E+00
RMM:  11    -0.961607325492E+02    0.40922E-01   -0.46811E-02126289   0.107E+00    0.758E-01
RMM:  12    -0.961660021839E+02   -0.52696E-02   -0.32516E-02116132   0.862E-01    0.930E-01
RMM:  13    -0.961641910951E+02    0.18111E-02   -0.19065E-02108364   0.749E-01    0.339E-01
RMM:  14    -0.961649515547E+02   -0.76046E-03   -0.51851E-03 92951   0.311E-01    0.282E-01
RMM:  15    -0.961656700819E+02   -0.71853E-03   -0.14642E-03 77969   0.176E-01    0.265E-01
RMM:  16    -0.961659524169E+02   -0.28233E-03   -0.49748E-04 56067   0.106E-01    0.246E-01
RMM:  17    -0.961651240700E+02    0.82835E-03   -0.41739E-04 54149   0.133E-01    0.199E-01
RMM:  18    -0.961648248495E+02    0.29922E-03   -0.33865E-04 52077   0.735E-02    0.205E-01
RMM:  19    -0.961635711232E+02    0.12537E-02   -0.22798E-03 88337   0.189E-01    0.179E-01
RMM:  20    -0.961624329565E+02    0.11382E-02   -0.54561E-03113848   0.326E-01    0.129E-01
RMM:  21    -0.961631020443E+02   -0.66909E-03   -0.87094E-04 64670   0.159E-01    0.583E-02
RMM:  22    -0.961632552391E+02   -0.15319E-03   -0.53499E-04 55316   0.125E-01
  16 F= -.10124830E+03 E0= -.10123485E+03  d E =-.166951E+00  mag=     0.0000
       N       E                     dE             d eps       ncg     rms          rms(c)
DAV:   1    -0.962335783581E+02   -0.70476E-01   -0.68490E+00 97680   0.295E+01    0.365E+00
RMM:   2    -0.962632755251E+02   -0.29697E-01   -0.19948E+00118469   0.900E+00    0.407E+00
RMM:   3    -0.966717975658E+02   -0.40852E+00   -0.86493E-01 97479   0.653E+00    0.119E+01
RMM:   4    -0.962040796186E+02    0.46772E+00   -0.33100E-01 89788   0.401E+00    0.262E+00
RMM:   5    -0.962948927957E+02   -0.90813E-01   -0.20781E-01 91994   0.272E+00    0.535E+00
RMM:   6    -0.961667325270E+02    0.12816E+00   -0.96539E-02 86117   0.217E+00    0.103E+00
RMM:   7    -0.961741522319E+02   -0.74197E-02   -0.31494E-02113520   0.554E-01    0.131E+00
RMM:   8    -0.961661268430E+02    0.80254E-02   -0.23131E-02106500   0.591E-01    0.552E-01
RMM:   9    -0.961665573609E+02   -0.43052E-03   -0.39005E-03 90287   0.269E-01    0.586E-01
RMM:  10    -0.961651177634E+02    0.14396E-02   -0.20084E-03 78598   0.260E-01    0.334E-01
RMM:  11    -0.961635754582E+02    0.15423E-02   -0.23624E-03 85869   0.234E-01    0.216E-01
RMM:  12    -0.961632870152E+02    0.28844E-03   -0.56624E-03112341   0.251E-01    0.663E-02
RMM:  13    -0.961633880518E+02   -0.10104E-03   -0.34093E-04 50386   0.956E-02
  17 F= -.10125664E+03 E0= -.10124303E+03  d E =-.175289E+00  mag=    -0.0000
       N       E                     dE             d eps       ncg     rms          rms(c)
DAV:   1    -0.960048148596E+02    0.15847E+00   -0.86418E+00119280   0.468E+01    0.267E+00
RMM:   2    -0.966525022580E+02   -0.64769E+00   -0.29211E+00103324   0.107E+01    0.106E+01
RMM:   3    -0.962201874416E+02    0.43231E+00   -0.94050E-01105959   0.677E+00    0.253E+00
RMM:   4    -0.963570186884E+02   -0.13683E+00   -0.31873E-01112784   0.315E+00    0.663E+00
RMM:   5    -0.962186785967E+02    0.13834E+00   -0.12134E-01 92934   0.223E+00    0.131E+00
RMM:   6    -0.962192990202E+02   -0.62042E-03   -0.34265E-02103714   0.102E+00    0.135E+00
RMM:   7    -0.962121312746E+02    0.71677E-02   -0.10974E-02111818   0.429E-01    0.970E-01
RMM:   8    -0.962068946923E+02    0.52366E-02   -0.78806E-03 97209   0.489E-01    0.738E-01
RMM:   9    -0.962084818607E+02   -0.15872E-02   -0.20808E-03 83366   0.200E-01    0.734E-01
RMM:  10    -0.962049737493E+02    0.35081E-02   -0.50288E-03105202   0.401E-01    0.527E-01
RMM:  11    -0.962039823268E+02    0.99142E-03   -0.49693E-03115550   0.351E-01    0.472E-01
RMM:  12    -0.962040994813E+02   -0.11715E-03   -0.15050E-03 78354   0.209E-01
  18 F= -.10129262E+03 E0= -.10127965E+03  d E =-.359809E-01  mag=     0.0000
       N       E                     dE             d eps       ncg     rms          rms(c)
DAV:   1    -0.961292506070E+02    0.74732E-01   -0.28927E+00112032   0.279E+01    0.163E+00
RMM:   2    -0.963742173013E+02   -0.24497E+00   -0.11195E+00105989   0.657E+00    0.647E+00
RMM:   3    -0.962101995659E+02    0.16402E+00   -0.33092E-01103850   0.409E+00    0.126E+00
RMM:   4    -0.962257669173E+02   -0.15567E-01   -0.98238E-02108823   0.187E+00    0.229E+00
RMM:   5    -0.962181941741E+02    0.75727E-02   -0.30029E-02102472   0.101E+00    0.149E+00
RMM:   6    -0.962177276531E+02    0.46652E-03   -0.10784E-02 97680   0.564E-01    0.124E+00
RMM:   7    -0.962061694625E+02    0.11558E-01   -0.54407E-03 85417   0.462E-01    0.414E-01
RMM:   8    -0.962051043892E+02    0.10651E-02   -0.55915E-03100277   0.311E-01    0.125E-01
RMM:   9    -0.962059395085E+02   -0.83512E-03   -0.20049E-03 80880   0.230E-01    0.778E-02
RMM:  10    -0.962060088041E+02   -0.69296E-04   -0.31837E-04 50237   0.107E-01
  19 F= -.10129190E+03 E0= -.10127847E+03  d E =-.352637E-01  mag=     0.0000
       N       E                     dE             d eps       ncg     rms          rms(c)
DAV:   1    -0.961932865014E+02    0.12653E-01   -0.47153E-01105984   0.114E+01    0.624E-01
RMM:   2    -0.962258221586E+02   -0.32536E-01   -0.18267E-01113190   0.263E+00    0.226E+00
RMM:   3    -0.962086063815E+02    0.17216E-01   -0.49187E-02106639   0.154E+00    0.621E-01
RMM:   4    -0.962149495607E+02   -0.63432E-02   -0.16378E-02102622   0.735E-01    0.149E+00
RMM:   5    -0.962086252244E+02    0.63243E-02   -0.61283E-03 89620   0.506E-01    0.402E-01
RMM:   6    -0.962088951886E+02   -0.26996E-03   -0.18545E-03 77142   0.238E-01    0.464E-01
RMM:   7    -0.962075571712E+02    0.13380E-02   -0.74334E-04 62178   0.165E-01    0.197E-01
RMM:   8    -0.962074951543E+02    0.62017E-04   -0.57710E-04 55777   0.128E-01
  20 F= -.10129443E+03 E0= -.10128106E+03  d E =-.377957E-01  mag=    -0.0000
       N       E                     dE             d eps       ncg     rms          rms(c)
DAV:   1    -0.962079997375E+02   -0.44257E-03   -0.27339E-01109488   0.646E+00    0.743E-01
RMM:   2    -0.962686504146E+02   -0.60651E-01   -0.11452E-01 94273   0.225E+00    0.378E+00
RMM:   3    -0.962091282833E+02    0.59522E-01   -0.44437E-02 89578   0.161E+00    0.490E-01
RMM:   4    -0.962209505397E+02   -0.11822E-01   -0.13686E-02103058   0.721E-01    0.189E+00
RMM:   5    -0.962109718134E+02    0.99787E-02   -0.67093E-03 85321   0.565E-01    0.548E-01
RMM:   6    -0.962120510095E+02   -0.10792E-02   -0.23190E-03 90241   0.206E-01    0.646E-01
RMM:   7    -0.962077950592E+02    0.42560E-02   -0.22909E-03 82813   0.278E-01    0.210E-01
RMM:   8    -0.962088814569E+02   -0.10864E-02   -0.53664E-04 55638   0.128E-01    0.299E-01
RMM:   9    -0.962082687513E+02    0.61271E-03   -0.54416E-04 55032   0.155E-01    0.896E-02
RMM:  10    -0.962083984756E+02   -0.12972E-03   -0.47502E-04 53191   0.137E-01
  21 F= -.10129620E+03 E0= -.10128278E+03  d E =-.176980E-02  mag=    -0.0000
       N       E                     dE             d eps       ncg     rms          rms(c)
DAV:   1    -0.962081184181E+02    0.15033E-03   -0.45464E-02117312   0.263E+00    0.301E-01
RMM:   2    -0.962174842772E+02   -0.93659E-02   -0.18210E-02 93854   0.909E-01    0.149E+00
RMM:   3    -0.962082972509E+02    0.91870E-02   -0.70697E-03 86836   0.639E-01    0.203E-01
RMM:   4    -0.962101112909E+02   -0.18140E-02   -0.21775E-03 88698   0.293E-01    0.741E-01
RMM:   5    -0.962087395645E+02    0.13717E-02   -0.96471E-04 62244   0.221E-01    0.298E-01
RMM:   6    -0.962087751825E+02   -0.35618E-04   -0.33548E-04 53944   0.838E-02
  22 F= -.10129694E+03 E0= -.10128314E+03  d E =-.250412E-02  mag=     0.0000
       N       E                     dE             d eps       ncg     rms          rms(c)
DAV:   1    -0.962180238419E+02   -0.92843E-02   -0.36774E-01102864   0.536E+00    0.105E+00
RMM:   2    -0.962248375138E+02   -0.68137E-02   -0.91818E-02105763   0.203E+00    0.172E+00
RMM:   3    -0.962347697843E+02   -0.99323E-02   -0.44081E-02 91749   0.147E+00    0.253E+00
RMM:   4    -0.962276545954E+02    0.71152E-02   -0.15040E-02 93377   0.855E-01    0.198E+00
RMM:   5    -0.962273904811E+02    0.26411E-03   -0.48160E-03 94886   0.304E-01    0.202E+00
RMM:   6    -0.962060191407E+02    0.21371E-01   -0.97696E-03119303   0.591E-01    0.823E-01
RMM:   7    -0.962041844874E+02    0.18347E-02   -0.13048E-02128326   0.555E-01    0.599E-01
RMM:   8    -0.962079337397E+02   -0.37493E-02   -0.55536E-03103677   0.439E-01    0.521E-01
RMM:   9    -0.962076867541E+02    0.24699E-03   -0.13100E-03 73687   0.181E-01    0.474E-01
RMM:  10    -0.962077110683E+02   -0.24314E-04   -0.22743E-04 49362   0.919E-02
  23 F= -.10129769E+03 E0= -.10128492E+03  d E =-.756395E-03  mag=    -0.0000
       N       E                     dE             d eps       ncg     rms          rms(c)
DAV:   1    -0.962789184905E+02   -0.71232E-01   -0.32488E+00 95760   0.161E+01    0.272E+00
RMM:   2    -0.962499087230E+02    0.29010E-01   -0.68128E-01117224   0.547E+00    0.290E+00
RMM:   3    -0.964327911558E+02   -0.18288E+00   -0.37754E-01 91949   0.437E+00    0.842E+00
RMM:   4    -0.962507368045E+02    0.18205E+00   -0.18015E-01 93886   0.289E+00    0.376E+00
RMM:   5    -0.962483771983E+02    0.23596E-02   -0.11641E-01 91724   0.208E+00    0.325E+00
RMM:   6    -0.961953195519E+02    0.53058E-01   -0.44956E-02 89384   0.145E+00    0.437E-01
RMM:   7    -0.961995735282E+02   -0.42540E-02   -0.18218E-02109939   0.411E-01    0.727E-01
RMM:   8    -0.961955022696E+02    0.40713E-02   -0.62580E-03 92960   0.380E-01    0.304E-01
RMM:   9    -0.961959802215E+02   -0.47795E-03   -0.15552E-03 75263   0.162E-01    0.354E-01
RMM:  10    -0.961954379751E+02    0.54225E-03   -0.39440E-04 53894   0.125E-01    0.232E-01
RMM:  11    -0.961947145731E+02    0.72340E-03   -0.22074E-03 87315   0.195E-01    0.111E-01
RMM:  12    -0.961949388078E+02   -0.22423E-03   -0.43467E-04 51882   0.116E-01    0.369E-02
RMM:  13    -0.961949955089E+02   -0.56701E-04   -0.17107E-04 48286   0.107E-01
  24 F= -.10129049E+03 E0= -.10127702E+03  d E =0.645269E-02  mag=    -0.0000
       N       E                     dE             d eps       ncg     rms          rms(c)
DAV:   1    -0.962262485435E+02   -0.31310E-01   -0.95261E-01102384   0.859E+00    0.151E+00
RMM:   2    -0.962425918993E+02   -0.16343E-01   -0.20622E-01108192   0.304E+00    0.287E+00
RMM:   3    -0.962421387236E+02    0.45318E-03   -0.11068E-01 93434   0.235E+00    0.299E+00
RMM:   4    -0.962350200244E+02    0.71187E-02   -0.55648E-02 93956   0.160E+00    0.294E+00
RMM:   5    -0.962119437032E+02    0.23076E-01   -0.27328E-02 88492   0.109E+00    0.129E+00
RMM:   6    -0.962089966953E+02    0.29470E-02   -0.93634E-03 88625   0.623E-01    0.954E-01
RMM:   7    -0.962027091235E+02    0.62876E-02   -0.39048E-03 84688   0.355E-01    0.293E-01
RMM:   8    -0.962027132733E+02   -0.41498E-05   -0.15663E-03 76772   0.195E-01
  25 F= -.10129523E+03 E0= -.10128159E+03  d E =0.170374E-02  mag=     0.0000
       N       E                     dE             d eps       ncg     rms          rms(c)
DAV:   1    -0.962110816646E+02   -0.83725E-02   -0.20126E-01109248   0.397E+00    0.751E-01
RMM:   2    -0.962139205624E+02   -0.28389E-02   -0.42339E-02109020   0.138E+00    0.122E+00
RMM:   3    -0.962164286552E+02   -0.25081E-02   -0.22412E-02 92316   0.104E+00    0.141E+00
RMM:   4    -0.962132988369E+02    0.31298E-02   -0.10061E-02 88854   0.708E-01    0.972E-01
RMM:   5    -0.962139324693E+02   -0.63363E-03   -0.36627E-03100155   0.250E-01    0.962E-01
RMM:   6    -0.962127739393E+02    0.11585E-02   -0.71557E-04 60596   0.158E-01    0.915E-01
RMM:   7    -0.962044628787E+02    0.83111E-02   -0.70840E-03118115   0.402E-01    0.380E-01
RMM:   8    -0.962063247297E+02   -0.18619E-02   -0.94682E-04 66976   0.176E-01    0.438E-01
RMM:   9    -0.962052328795E+02    0.10919E-02   -0.90839E-04 64222   0.182E-01    0.131E-01
RMM:  10    -0.962053098379E+02   -0.76958E-04   -0.55522E-04 55600   0.152E-01
  26 F= -.10129647E+03 E0= -.10128286E+03  d E =0.472780E-03  mag=    -0.0000
