       N       E                     dE             d eps       ncg     rms          rms(c)
DAV:   1    -0.112379364698E+02   -0.11238E+02   -0.45136E+03  7168   0.142E+02
DAV:   2    -0.149470360220E+02   -0.37091E+01   -0.36820E+01 10880   0.876E+00
DAV:   3    -0.149490067598E+02   -0.19707E-02   -0.19500E-02  7168   0.280E-01
DAV:   4    -0.149490077678E+02   -0.10079E-05   -0.98830E-06 14144   0.524E-03
DAV:   5    -0.149490077688E+02   -0.10181E-08   -0.85985E-12  7168   0.514E-06    0.234E+00
DAV:   6    -0.148993239131E+02    0.49684E-01   -0.85231E-03 11520   0.108E-01    0.136E+00
DAV:   7    -0.148636681803E+02    0.35656E-01   -0.23982E-02 11264   0.170E-01    0.251E-01
DAV:   8    -0.148635712211E+02    0.96959E-04   -0.30892E-05  8832   0.863E-03    0.187E-02
DAV:   9    -0.148635684389E+02    0.27822E-05   -0.48353E-06 13120   0.236E-03    0.117E-03
DAV:  10    -0.148635668002E+02    0.16388E-05   -0.17472E-08  7552   0.219E-04    0.234E-04
DAV:  11    -0.148635667093E+02    0.90842E-07   -0.68908E-10  7168   0.345E-05
   1 F= -.14863567E+02 E0= -.14863567E+02  d E =0.000000E+00
