 vasp.6.4.3 19Mar24 (build Mar 26 2024 14:05:37) complex                        
  
 executed on             LinuxIFC date 2025.01.03  04:52:10
 running   64 mpi-ranks, on    1 nodes
 distrk:  each k-point on   64 cores,    1 groups
 distr:  one band on NCORE=   1 cores,   64 groups


--------------------------------------------------------------------------------------------------------


 INCAR:
   ALGO = Normal
   EDIFF = 1e-06
   EDIFFG = -0.01
   ENCUT = 520
   GGA = Pe
   IBRION = -1
   ISIF = 4
   ISMEAR = -5
   LCHARG = False
   LREAL = False
   LWAVE = False
   NELM = 200
   NSW = 0
   PREC = Accurate
   SIGMA = 0.2

 POTCAR:    PAW_PBE Al 04Jan2001                  
 -----------------------------------------------------------------------------
|                                                                             |
|           W    W    AA    RRRRR   N    N  II  N    N   GGGG   !!!           |
|           W    W   A  A   R    R  NN   N  II  NN   N  G    G  !!!           |
|           W    W  A    A  R    R  N N  N  II  N N  N  G       !!!           |
|           W WW W  AAAAAA  RRRRR   N  N N  II  N  N N  G  GGG   !            |
|           WW  WW  A    A  R   R   N   NN  II  N   NN  G    G                |
|           W    W  A    A  R    R  N    N  II  N    N   GGGG   !!!           |
|                                                                             |
|     For optimal performance we recommend to set                             |
|       NCORE = 2 up to number-of-cores-per-socket                            |
|     NCORE specifies how many cores store one orbital (NPAR=cpu/NCORE).      |
|     This setting can greatly improve the performance of VASP for DFT.       |
|     The default, NCORE=1 might be grossly inefficient on modern             |
|     multi-core architectures or massively parallel machines. Do your        |
|     own testing! More info at https://www.vasp.at/wiki/index.php/NCORE      |
|     Unfortunately you need to use the default for GW and RPA                |
|     calculations (for HF NCORE is supported but not extensively tested      |
|     yet).                                                                   |
|                                                                             |
 -----------------------------------------------------------------------------

 POTCAR:    PAW_PBE Al 04Jan2001                  
   SHA256 =  17880443556af62b473fe41b62a467bd001ad55d2cabe504a3f22e34d4e9db96 Al/POTCAR             
   COPYR  = (c) Copyright 04Jan2001 Georg Kresse                                                    
   COPYR  = This file is part of the software VASP. Any use, copying, and all other rights are regul
   COPYR  = If you do not have a valid VASP license, you may not use, copy or distribute this file. 
   VRHFIN =Al: s2p1                                                                                 
   LEXCH  = PE                                                                                      
   EATOM  =    53.5387 eV,    3.9350 Ry                                                             
                                                                                                    
   TITEL  = PAW_PBE Al 04Jan2001                                                                    
   LULTRA =        F    use ultrasoft PP ?                                                          
   IUNSCR =        1    unscreen: 0-lin 1-nonlin 2-no                                               
   RPACOR =    1.500    partial core radius                                                         
   POMASS =   26.981; ZVAL   =    3.000    mass and valenz                                          
   RCORE  =    1.900    outmost cutoff radius                                                       
   RWIGS  =    2.650; RWIGS  =    1.402    wigner-seitz radius (au A)                               
   ENMAX  =  240.300; ENMIN  =  180.225 eV                                                          
   ICORE  =        2    local potential                                                             
   LCOR   =        T    correct aug charges                                                         
   LPAW   =        T    paw PP                                                                      
   EAUG   =  291.052                                                                                
   DEXC   =    0.000                                                                                
   RMAX   =    1.939    core radius for proj-oper                                                   
   RAUG   =    1.300    factor for augmentation sphere                                              
   RDEP   =    1.966    radius for radial grids                                                     
   RDEPT  =    1.856    core radius for aug-charge                                                  
                                                                                                    
   Atomic configuration                                                                             
    6 entries                                                                                       
     n  l   j            E        occ.                                                              
     1  0  0.50     -1511.1048   2.0000                                                             
     2  0  0.50      -108.1629   2.0000                                                             
     2  1  1.50       -69.6402   6.0000                                                             
     3  0  0.50        -7.7528   2.0000                                                             
     3  1  1.50        -2.7121   1.0000                                                             
     3  2  2.50        -2.7212   0.0000                                                             
   Description                                                                                      
     l       E           TYP  RCUT    TYP  RCUT                                                     
     0     -7.7528455     23  1.900                                                                 
     0     -3.3096929     23  1.900                                                                 
     1     -2.7120682     23  1.900                                                                 
     1     13.6058260     23  1.900                                                                 
     2     -2.7211652      7  1.900                                                                 
  local pseudopotential read in
  partial core-charges read in
  partial kinetic energy density read in
  atomic valenz-charges read in
  non local Contribution for L=           0  read in
    real space projection operators read in
  non local Contribution for L=           0  read in
    real space projection operators read in
  non local Contribution for L=           1  read in
    real space projection operators read in
  non local Contribution for L=           1  read in
    real space projection operators read in
    PAW grid and wavefunctions read in
 
   number of l-projection  operators is LMAX  =           4
   number of lm-projection operators is LMMAX =           8
 
  PAW_PBE Al 04Jan2001                  :
 energy of atom  1       EATOM=  -53.5387
 kinetic energy error for atom=    0.0002 (will be added to EATOM!!)
 
 
 POSCAR: Al4
  positions in direct lattice
  velocities in cartesian coordinates


 exchange-correlation table for PE
   RHO(1)=    0.500       N(1)  =     2000
   RHO(2)=  100.500       N(2)  =     4000
 


--------------------------------------------------------------------------------------------------------


 ion  position               nearest neighbor table
   1  0.000  0.000  0.000-   4 2.94   4 2.94   4 2.94   2 2.94   3 2.94   2 2.94   2 2.94   2 2.94
                             3 2.94   3 2.94   3 2.94   4 2.94
   2  0.000  0.500  0.500-   3 2.94   3 2.94   4 2.94   1 2.94   4 2.94   1 2.94   1 2.94   1 2.94
                             3 2.94   4 2.94   4 2.94   3 2.94
   3  0.500  0.000  0.500-   2 2.94   2 2.94   4 2.94   1 2.94   4 2.94   1 2.94   4 2.94   4 2.94
                             1 2.94   2 2.94   1 2.94   2 2.94
   4  0.500  0.500  0.000-   1 2.94   1 2.94   3 2.94   2 2.94   3 2.94   1 2.94   3 2.94   3 2.94
                             2 2.94   2 2.94   2 2.94   1 2.94
 
  LATTYP: Found a simple cubic cell.
 ALAT       =     4.1601676461
  
  Lattice vectors:
  
 A1 = (   4.1601676461,   0.0000000000,   0.0000000000)
 A2 = (   0.0000000000,   4.1601676461,   0.0000000000)
 A3 = (   0.0000000000,   0.0000000000,   4.1601676461)


Analysis of symmetry for initial positions (statically):
=====================================================================
 Subroutine PRICEL returns following result:
 
  LATTYP: Found a face centered cubic cell.
 ALAT       =     4.1601676461
  
  Lattice vectors:
  
 A1 = (   2.0800838231,  -2.0800838231,   0.0000000000)
 A2 = (   2.0800838231,   0.0000000000,   2.0800838231)
 A3 = (  -0.0000000000,  -2.0800838231,   2.0800838231)
 
   4 primitive cells build up your supercell.
 

 Routine SETGRP: Setting up the symmetry group for a 
 simple cubic supercell.


 Subroutine GETGRP returns: Found 48 space group operations
 (whereof 48 operations were pure point group operations)
 out of a pool of 48 trial point group operations.


The static configuration has the point symmetry O_h .


Analysis of symmetry for dynamics (positions and initial velocities):
=====================================================================
 Subroutine PRICEL returns following result:
 
  LATTYP: Found a face centered cubic cell.
 ALAT       =     4.1601676461
  
  Lattice vectors:
  
 A1 = (   2.0800838231,  -2.0800838231,   0.0000000000)
 A2 = (   2.0800838231,   0.0000000000,   2.0800838231)
 A3 = (  -0.0000000000,  -2.0800838231,   2.0800838231)
 
   4 primitive cells build up your supercell.
 

 Routine SETGRP: Setting up the symmetry group for a 
 simple cubic supercell.


 Subroutine GETGRP returns: Found 48 space group operations
 (whereof 48 operations were pure point group operations)
 out of a pool of 48 trial point group operations.


The dynamic configuration has the point symmetry O_h .


 Subroutine INISYM returns: Found 48 space group operations
 (whereof 48 operations are pure point group operations),
 and found     4 'primitive' translations


----------------------------------------------------------------------------------------

                                     Primitive cell                                     

  volume of cell :      18.0000

  direct lattice vectors                    reciprocal lattice vectors
     2.080083823 -2.080083823  0.000000000     0.240374928 -0.240374928 -0.240374928
     2.080083823  0.000000000  2.080083823     0.240374928  0.240374928  0.240374928
    -0.000000000 -2.080083823  2.080083823    -0.240374928 -0.240374928  0.240374928

  length of vectors
     2.941682753  2.941682753  2.941682753     0.416341589  0.416341589  0.416341589

  position of ions in fractional coordinates (direct lattice)
     0.000000000  0.000000000  0.000000000

  ion indices of the primitive-cell ions
   primitive index   ion index
                 1           1

----------------------------------------------------------------------------------------

 
 
 KPOINTS: pymatgen with grid density = 4001 / numb

Automatic generation of k-mesh.
 Grid dimensions read from file:
 generate k-points for:   10   10   10

 Generating k-lattice:

  Cartesian coordinates                     Fractional coordinates (reciprocal lattice)
     0.024037493 -0.000000000  0.000000000     0.100000000  0.000000000  0.000000000
     0.000000000  0.024037493  0.000000000     0.000000000  0.100000000  0.000000000
    -0.000000000 -0.000000000  0.024037493    -0.000000000 -0.000000000  0.100000000

  Length of vectors
     0.024037493  0.024037493  0.024037493

  Shift w.r.t. Gamma in fractional coordinates (k-lattice)
     0.000000000  0.000000000  0.000000000

 TETIRR: Found    492 inequivalent tetrahedra from     6000
 
 Subroutine IBZKPT returns following result:
 ===========================================
 
 Found     56 irreducible k-points:
 
 Following reciprocal coordinates:
            Coordinates               Weight
  0.000000  0.000000  0.000000      1.000000
  0.100000  0.000000  0.000000      6.000000
  0.200000  0.000000  0.000000      6.000000
  0.300000  0.000000  0.000000      6.000000
  0.400000  0.000000  0.000000      6.000000
  0.500000  0.000000  0.000000      3.000000
  0.100000  0.100000  0.000000     12.000000
  0.200000  0.100000  0.000000     24.000000
  0.300000  0.100000  0.000000     24.000000
  0.400000  0.100000  0.000000     24.000000
  0.500000  0.100000  0.000000     12.000000
  0.200000  0.200000  0.000000     12.000000
  0.300000  0.200000  0.000000     24.000000
  0.400000  0.200000  0.000000     24.000000
  0.500000  0.200000  0.000000     12.000000
  0.300000  0.300000  0.000000     12.000000
  0.400000  0.300000  0.000000     24.000000
  0.500000  0.300000  0.000000     12.000000
  0.400000  0.400000  0.000000     12.000000
  0.500000  0.400000  0.000000     12.000000
  0.500000  0.500000  0.000000      3.000000
  0.100000  0.100000  0.100000      8.000000
  0.200000  0.100000  0.100000     24.000000
  0.300000  0.100000  0.100000     24.000000
  0.400000  0.100000  0.100000     24.000000
  0.500000  0.100000  0.100000     12.000000
  0.200000  0.200000  0.100000     24.000000
  0.300000  0.200000  0.100000     48.000000
  0.400000  0.200000  0.100000     48.000000
  0.500000  0.200000  0.100000     24.000000
  0.300000  0.300000  0.100000     24.000000
  0.400000  0.300000  0.100000     48.000000
  0.500000  0.300000  0.100000     24.000000
  0.400000  0.400000  0.100000     24.000000
  0.500000  0.400000  0.100000     24.000000
  0.500000  0.500000  0.100000      6.000000
  0.200000  0.200000  0.200000      8.000000
  0.300000  0.200000  0.200000     24.000000
  0.400000  0.200000  0.200000     24.000000
  0.500000  0.200000  0.200000     12.000000
  0.300000  0.300000  0.200000     24.000000
  0.400000  0.300000  0.200000     48.000000
  0.500000  0.300000  0.200000     24.000000
  0.400000  0.400000  0.200000     24.000000
  0.500000  0.400000  0.200000     24.000000
  0.500000  0.500000  0.200000      6.000000
  0.300000  0.300000  0.300000      8.000000
  0.400000  0.300000  0.300000     24.000000
  0.500000  0.300000  0.300000     12.000000
  0.400000  0.400000  0.300000     24.000000
  0.500000  0.400000  0.300000     24.000000
  0.500000  0.500000  0.300000      6.000000
  0.400000  0.400000  0.400000      8.000000
  0.500000  0.400000  0.400000     12.000000
  0.500000  0.500000  0.400000      6.000000
  0.500000  0.500000  0.500000      1.000000
 
 Following cartesian coordinates:
            Coordinates               Weight
  0.000000  0.000000  0.000000      1.000000
  0.024037  0.000000  0.000000      6.000000
  0.048075  0.000000  0.000000      6.000000
  0.072112  0.000000  0.000000      6.000000
  0.096150  0.000000  0.000000      6.000000
  0.120187  0.000000  0.000000      3.000000
  0.024037  0.024037  0.000000     12.000000
  0.048075  0.024037  0.000000     24.000000
  0.072112  0.024037  0.000000     24.000000
  0.096150  0.024037  0.000000     24.000000
  0.120187  0.024037  0.000000     12.000000
  0.048075  0.048075  0.000000     12.000000
  0.072112  0.048075  0.000000     24.000000
  0.096150  0.048075  0.000000     24.000000
  0.120187  0.048075  0.000000     12.000000
  0.072112  0.072112  0.000000     12.000000
  0.096150  0.072112  0.000000     24.000000
  0.120187  0.072112  0.000000     12.000000
  0.096150  0.096150  0.000000     12.000000
  0.120187  0.096150  0.000000     12.000000
  0.120187  0.120187  0.000000      3.000000
  0.024037  0.024037  0.024037      8.000000
  0.048075  0.024037  0.024037     24.000000
  0.072112  0.024037  0.024037     24.000000
  0.096150  0.024037  0.024037     24.000000
  0.120187  0.024037  0.024037     12.000000
  0.048075  0.048075  0.024037     24.000000
  0.072112  0.048075  0.024037     48.000000
  0.096150  0.048075  0.024037     48.000000
  0.120187  0.048075  0.024037     24.000000
  0.072112  0.072112  0.024037     24.000000
  0.096150  0.072112  0.024037     48.000000
  0.120187  0.072112  0.024037     24.000000
  0.096150  0.096150  0.024037     24.000000
  0.120187  0.096150  0.024037     24.000000
  0.120187  0.120187  0.024037      6.000000
  0.048075  0.048075  0.048075      8.000000
  0.072112  0.048075  0.048075     24.000000
  0.096150  0.048075  0.048075     24.000000
  0.120187  0.048075  0.048075     12.000000
  0.072112  0.072112  0.048075     24.000000
  0.096150  0.072112  0.048075     48.000000
  0.120187  0.072112  0.048075     24.000000
  0.096150  0.096150  0.048075     24.000000
  0.120187  0.096150  0.048075     24.000000
  0.120187  0.120187  0.048075      6.000000
  0.072112  0.072112  0.072112      8.000000
  0.096150  0.072112  0.072112     24.000000
  0.120187  0.072112  0.072112     12.000000
  0.096150  0.096150  0.072112     24.000000
  0.120187  0.096150  0.072112     24.000000
  0.120187  0.120187  0.072112      6.000000
  0.096150  0.096150  0.096150      8.000000
  0.120187  0.096150  0.096150     12.000000
  0.120187  0.120187  0.096150      6.000000
  0.120187  0.120187  0.120187      1.000000
 


--------------------------------------------------------------------------------------------------------




 Dimension of arrays:
   k-points           NKPTS =     56   k-points in BZ     NKDIM =     56   number of bands    NBANDS=     64
   number of dos      NEDOS =    301   number of ions     NIONS =      4
   non local maximal  LDIM  =      4   non local SUM 2l+1 LMDIM =      8
   total plane-waves  NPLWV =  32768
   max r-space proj   IRMAX =      1   max aug-charges    IRDMAX=  17910
   dimension x,y,z NGX =    32 NGY =   32 NGZ =   32
   dimension x,y,z NGXF=    64 NGYF=   64 NGZF=   64
   support grid    NGXF=    64 NGYF=   64 NGZF=   64
   ions per type =               4
   NGX,Y,Z   is equivalent  to a cutoff of  12.79, 12.79, 12.79 a.u.
   NGXF,Y,Z  is equivalent  to a cutoff of  25.58, 25.58, 25.58 a.u.

 SYSTEM =  unknown system                          
 POSCAR =  Al4                                     

 Startparameter for this run:
   NWRITE =      2    write-flag & timer
   PREC   = accura    normal or accurate (medium, high low for compatibility)
   ISTART =      0    job   : 0-new  1-cont  2-samecut
   ICHARG =      2    charge: 1-file 2-atom 10-const
   ISPIN  =      1    spin polarized calculation?
   LNONCOLLINEAR =      F non collinear calculations
   LSORBIT =      F    spin-orbit coupling
   INIWAV =      1    electr: 0-lowe 1-rand  2-diag
   LASPH  =      F    aspherical Exc in radial PAW
 Electronic Relaxation 1
   ENCUT  =  520.0 eV  38.22 Ry    6.18 a.u.   7.74  7.74  7.74*2*pi/ulx,y,z
   ENINI  =  520.0     initial cutoff
   ENAUG  =  291.1 eV  augmentation charge cutoff
   NELM   =    200;   NELMIN=  2; NELMDL=  0     # of ELM steps 
   EDIFF  = 0.1E-05   stopping-criterion for ELM
   LREAL  =      F    real-space projection
   NLSPLINE    = F    spline interpolate recip. space projectors
   LCOMPAT=      F    compatible to vasp.4.4
   GGA_COMPAT  = T    GGA compatible to vasp.4.4-vasp.4.6
   LMAXPAW     = -100 max onsite density
   LMAXMIX     =    2 max onsite mixed and CHGCAR
   VOSKOWN=      0    Vosko Wilk Nusair interpolation
   ROPT   =    0.00000
 Ionic relaxation
   EDIFFG = -.1E-01   stopping-criterion for IOM
   NSW    =      0    number of steps for IOM
   NBLOCK =      1;   KBLOCK =      1    inner block; outer block 
   IBRION =     -1    ionic relax: 0-MD 1-quasi-New 2-CG
   NFREE  =      0    steps in history (QN), initial steepest desc. (CG)
   ISIF   =      4    stress and relaxation
   IWAVPR =     10    prediction:  0-non 1-charg 2-wave 3-comb
   ISYM   =      2    0-nonsym 1-usesym 2-fastsym
   LCORR  =      T    Harris-Foulkes like correction to forces

   POTIM  = 0.5000    time-step for ionic-motion
   TEIN   =    0.0    initial temperature
   TEBEG  =    0.0;   TEEND  =   0.0 temperature during run
   SMASS  =  -3.00    Nose mass-parameter (am)
   estimated Nose-frequenzy (Omega)   =  0.10E-29 period in steps = 0.13E+47 mass=  -0.396E-27a.u.
   SCALEE = 1.0000    scale energy and forces
   NPACO  =    256;   APACO  = 10.0  distance and # of slots for P.C.
   PSTRESS=    0.0 pullay stress

  Mass of Ions in am
   POMASS =  26.98
  Ionic Valenz
   ZVAL   =   3.00
  Atomic Wigner-Seitz radii
   RWIGS  =  -1.00
  virtual crystal weights 
   VCA    =   1.00
   NELECT =      12.0000    total number of electrons
   NUPDOWN=      -1.0000    fix difference up-down

 DOS related values:
   EMIN   =  10.00;   EMAX   =-10.00  energy-range for DOS
   EFERMI =   0.00;   METHOD = LEGACY      
   ISMEAR =    -5;   SIGMA  =   0.20  broadening in eV -4-tet -1-fermi 0-gaus

 Electronic relaxation 2 (details)
   IALGO  =     38    algorithm
   LDIAG  =      T    sub-space diagonalisation (order eigenvalues)
   LSUBROT=      F    optimize rotation matrix (better conditioning)
   TURBO    =      0    0=normal 1=particle mesh
   IRESTART =      0    0=no restart 2=restart with 2 vectors
   NREBOOT  =      0    no. of reboots
   NMIN     =      0    reboot dimension
   EREF     =   0.00    reference energy to select bands
   IMIX   =      4    mixing-type and parameters
     AMIX     =   0.40;   BMIX     =  1.00
     AMIX_MAG =   1.60;   BMIX_MAG =  1.00
     AMIN     =   0.10
     WC   =   100.;   INIMIX=   1;  MIXPRE=   1;  MAXMIX= -45

 Intra band minimization:
   WEIMIN = 0.0000     energy-eigenvalue tresh-hold
   EBREAK =  0.39E-08  absolut break condition
   DEPER  =   0.30     relativ break condition  

   TIME   =   0.40     timestep for ELM

  volume/ion in A,a.u.               =      18.00       121.47
  Fermi-wavevector in a.u.,A,eV,Ry     =   0.900930  1.702511 11.043509  0.811675
  Thomas-Fermi vector in A             =   2.023948
 
 Write flags
   LWAVE        =      F    write WAVECAR
   LDOWNSAMPLE  =      F    k-point downsampling of WAVECAR
   LCHARG       =      F    write CHGCAR
   LVTOT        =      F    write LOCPOT, total local potential
   LVHAR        =      F    write LOCPOT, Hartree potential only
   WRT_POTENTIAL= false  ! write potential to hdf5 file
   LELF         =      F    write electronic localiz. function (ELF)
   LORBIT       =      0    0 simple, 1 ext, 2 COOP (PROOUT), +10 PAW based schemes


 Dipole corrections
   LMONO      =      F    monopole corrections only (constant potential shift)
   LDIPOL     =      F    correct potential (dipole corrections)
   IDIPOL     =      0    1-x, 2-y, 3-z, 4-all directions 
   EPSILON    =  1.0000000 bulk dielectric constant
   LVACPOTAV  =      F  vacuum potentials using an averaging scheme for the charge density
   VACPOTFLAT =  0.1000000 required flatness to determine vacuum potential
 Exchange correlation treatment:
   GGA     = PE    functional components
   XC_C    = 1    coefficients multiplying the functional components
   LIBXC   =     F    Libxc                    
   VOSKOWN =     0    Vosko Wilk Nusair interpolation
   LHFCALC =     F    Hartree Fock is set to
   LHFONE  =     F    Hartree Fock one center treatment
   AEXX    =    0.0000 exact exchange contribution

 Parameters of functionals:
   PE:
     No parameter
 
 Van der Waals corrections
   IVDW    =     0    specifies the selected vdW correction

 Linear response parameters
   LEPSILON=     F    determine dielectric tensor
   LRPA    =     F    only Hartree local field effects (RPA)
   LNABLA  =     F    use nabla operator in PAW spheres
   LVEL    =     F    velocity operator in full k-point grid
   CSHIFT  =0.1000    complex shift for real part using Kramers Kronig
   OMEGAMAX=  -1.0    maximum frequency
   DEG_THRESHOLD= 0.2000000E-02 threshold for treating states as degnerate
   RTIME   =   -0.100 relaxation time in fs
  (WPLASMAI=    0.000 imaginary part of plasma frequency in eV, 0.658/RTIME)
   DFIELD  = 0.0000000 0.0000000 0.0000000 field for delta impulse in time
 
  Optional k-point grid parameters
   LKPOINTS_OPT  =     F    use optional k-point grid
   KPOINTS_OPT_MODE=     1    mode for optional k-point grid
 
 Orbital magnetization related:
   ORBITALMAG=     F  switch on orbital magnetization
   LCHIMAG   =     F  perturbation theory with respect to B field
   DQ        =  0.001000  dq finite difference perturbation B field
   LLRAUG    =     F  two centre corrections for induced B field
   LBONE     =     F  B-component reconstruction in AE one-centre
   LVGVCALC  =     T  calculate vGv susceptibility
   LVGVAPPL  =     F  apply vGv susceptibility instead of pGv for G=0

 Random number generation:
   RANDOM_GENERATOR = DEFAULT
   PCG_SEED         = not used


--------------------------------------------------------------------------------------------------------


 Static calculation
 charge density and potential will be updated during run
 non-spin polarized calculation
 Variant of blocked Davidson
 Davidson routine will perform the subspace rotation
 perform sub-space diagonalisation
    after iterative eigenvector-optimisation
 modified Broyden-mixing scheme, WC =      100.0
 initial mixing is a Kerker type mixing with AMIX =  0.4000 and BMIX =      1.0000
 Hartree-type preconditioning will be used
 using additional bands           58
 reciprocal scheme for non local part
 use partial core corrections
 calculate Harris-corrections to forces 
   (improved forces if not selfconsistent)
 use gradient corrections 
 use of overlap-Matrix (Vanderbilt PP)
 Fermi weights with tetrahedron method with Bloechl corrections


--------------------------------------------------------------------------------------------------------


  energy-cutoff  :      520.00
  volume of cell :       72.00
      direct lattice vectors                 reciprocal lattice vectors
     4.160167646  0.000000000  0.000000000     0.240374928 -0.000000000  0.000000000
     0.000000000  4.160167646  0.000000000     0.000000000  0.240374928  0.000000000
     0.000000000  0.000000000  4.160167646    -0.000000000 -0.000000000  0.240374928

  length of vectors
     4.160167646  4.160167646  4.160167646     0.240374928  0.240374928  0.240374928


 
 k-points in units of 2pi/SCALE and weight: pymatgen with grid density = 4001 / numb
   0.00000000  0.00000000  0.00000000       0.001
   0.02403749  0.00000000  0.00000000       0.006
   0.04807499  0.00000000  0.00000000       0.006
   0.07211248  0.00000000  0.00000000       0.006
   0.09614997  0.00000000  0.00000000       0.006
   0.12018746  0.00000000  0.00000000       0.003
   0.02403749  0.02403749  0.00000000       0.012
   0.04807499  0.02403749  0.00000000       0.024
   0.07211248  0.02403749  0.00000000       0.024
   0.09614997  0.02403749  0.00000000       0.024
   0.12018746  0.02403749  0.00000000       0.012
   0.04807499  0.04807499  0.00000000       0.012
   0.07211248  0.04807499  0.00000000       0.024
   0.09614997  0.04807499  0.00000000       0.024
   0.12018746  0.04807499  0.00000000       0.012
   0.07211248  0.07211248  0.00000000       0.012
   0.09614997  0.07211248  0.00000000       0.024
   0.12018746  0.07211248  0.00000000       0.012
   0.09614997  0.09614997  0.00000000       0.012
   0.12018746  0.09614997  0.00000000       0.012
   0.12018746  0.12018746  0.00000000       0.003
   0.02403749  0.02403749  0.02403749       0.008
   0.04807499  0.02403749  0.02403749       0.024
   0.07211248  0.02403749  0.02403749       0.024
   0.09614997  0.02403749  0.02403749       0.024
   0.12018746  0.02403749  0.02403749       0.012
   0.04807499  0.04807499  0.02403749       0.024
   0.07211248  0.04807499  0.02403749       0.048
   0.09614997  0.04807499  0.02403749       0.048
   0.12018746  0.04807499  0.02403749       0.024
   0.07211248  0.07211248  0.02403749       0.024
   0.09614997  0.07211248  0.02403749       0.048
   0.12018746  0.07211248  0.02403749       0.024
   0.09614997  0.09614997  0.02403749       0.024
   0.12018746  0.09614997  0.02403749       0.024
   0.12018746  0.12018746  0.02403749       0.006
   0.04807499  0.04807499  0.04807499       0.008
   0.07211248  0.04807499  0.04807499       0.024
   0.09614997  0.04807499  0.04807499       0.024
   0.12018746  0.04807499  0.04807499       0.012
   0.07211248  0.07211248  0.04807499       0.024
   0.09614997  0.07211248  0.04807499       0.048
   0.12018746  0.07211248  0.04807499       0.024
   0.09614997  0.09614997  0.04807499       0.024
   0.12018746  0.09614997  0.04807499       0.024
   0.12018746  0.12018746  0.04807499       0.006
   0.07211248  0.07211248  0.07211248       0.008
   0.09614997  0.07211248  0.07211248       0.024
   0.12018746  0.07211248  0.07211248       0.012
   0.09614997  0.09614997  0.07211248       0.024
   0.12018746  0.09614997  0.07211248       0.024
   0.12018746  0.12018746  0.07211248       0.006
   0.09614997  0.09614997  0.09614997       0.008
   0.12018746  0.09614997  0.09614997       0.012
   0.12018746  0.12018746  0.09614997       0.006
   0.12018746  0.12018746  0.12018746       0.001
 
 k-points in reciprocal lattice and weights: pymatgen with grid density = 4001 / numb
   0.00000000  0.00000000  0.00000000       0.001
   0.10000000  0.00000000  0.00000000       0.006
   0.20000000  0.00000000  0.00000000       0.006
   0.30000000  0.00000000  0.00000000       0.006
   0.40000000  0.00000000  0.00000000       0.006
   0.50000000  0.00000000  0.00000000       0.003
   0.10000000  0.10000000  0.00000000       0.012
   0.20000000  0.10000000  0.00000000       0.024
   0.30000000  0.10000000  0.00000000       0.024
   0.40000000  0.10000000  0.00000000       0.024
   0.50000000  0.10000000  0.00000000       0.012
   0.20000000  0.20000000  0.00000000       0.012
   0.30000000  0.20000000  0.00000000       0.024
   0.40000000  0.20000000  0.00000000       0.024
   0.50000000  0.20000000  0.00000000       0.012
   0.30000000  0.30000000  0.00000000       0.012
   0.40000000  0.30000000  0.00000000       0.024
   0.50000000  0.30000000  0.00000000       0.012
   0.40000000  0.40000000  0.00000000       0.012
   0.50000000  0.40000000  0.00000000       0.012
   0.50000000  0.50000000  0.00000000       0.003
   0.10000000  0.10000000  0.10000000       0.008
   0.20000000  0.10000000  0.10000000       0.024
   0.30000000  0.10000000  0.10000000       0.024
   0.40000000  0.10000000  0.10000000       0.024
   0.50000000  0.10000000  0.10000000       0.012
   0.20000000  0.20000000  0.10000000       0.024
   0.30000000  0.20000000  0.10000000       0.048
   0.40000000  0.20000000  0.10000000       0.048
   0.50000000  0.20000000  0.10000000       0.024
   0.30000000  0.30000000  0.10000000       0.024
   0.40000000  0.30000000  0.10000000       0.048
   0.50000000  0.30000000  0.10000000       0.024
   0.40000000  0.40000000  0.10000000       0.024
   0.50000000  0.40000000  0.10000000       0.024
   0.50000000  0.50000000  0.10000000       0.006
   0.20000000  0.20000000  0.20000000       0.008
   0.30000000  0.20000000  0.20000000       0.024
   0.40000000  0.20000000  0.20000000       0.024
   0.50000000  0.20000000  0.20000000       0.012
   0.30000000  0.30000000  0.20000000       0.024
   0.40000000  0.30000000  0.20000000       0.048
   0.50000000  0.30000000  0.20000000       0.024
   0.40000000  0.40000000  0.20000000       0.024
   0.50000000  0.40000000  0.20000000       0.024
   0.50000000  0.50000000  0.20000000       0.006
   0.30000000  0.30000000  0.30000000       0.008
   0.40000000  0.30000000  0.30000000       0.024
   0.50000000  0.30000000  0.30000000       0.012
   0.40000000  0.40000000  0.30000000       0.024
   0.50000000  0.40000000  0.30000000       0.024
   0.50000000  0.50000000  0.30000000       0.006
   0.40000000  0.40000000  0.40000000       0.008
   0.50000000  0.40000000  0.40000000       0.012
   0.50000000  0.50000000  0.40000000       0.006
   0.50000000  0.50000000  0.50000000       0.001
 
 position of ions in fractional coordinates (direct lattice) 
   0.00000000  0.00000000  0.00000000
   0.00000000  0.50000000  0.50000000
   0.50000000  0.00000000  0.50000000
   0.50000000  0.50000000  0.00000000
 
 position of ions in cartesian coordinates  (Angst):
   0.00000000  0.00000000  0.00000000
   0.00000000  2.08008382  2.08008382
   2.08008382  0.00000000  2.08008382
   2.08008382  2.08008382  0.00000000
 


--------------------------------------------------------------------------------------------------------


 k-point     1 :   0.0000 0.0000 0.0000  plane waves:    1935
 k-point     2 :   0.1000 0.0000 0.0000  plane waves:    1931
 k-point     3 :   0.2000 0.0000 0.0000  plane waves:    1939
 k-point     4 :   0.3000 0.0000 0.0000  plane waves:    1948
 k-point     5 :   0.4000 0.0000 0.0000  plane waves:    1944
 k-point     6 :   0.5000 0.0000 0.0000  plane waves:    1936
 k-point     7 :   0.1000 0.1000 0.0000  plane waves:    1937
 k-point     8 :   0.2000 0.1000 0.0000  plane waves:    1933
 k-point     9 :   0.3000 0.1000 0.0000  plane waves:    1935
 k-point    10 :   0.4000 0.1000 0.0000  plane waves:    1942
 k-point    11 :   0.5000 0.1000 0.0000  plane waves:    1940
 k-point    12 :   0.2000 0.2000 0.0000  plane waves:    1923
 k-point    13 :   0.3000 0.2000 0.0000  plane waves:    1941
 k-point    14 :   0.4000 0.2000 0.0000  plane waves:    1947
 k-point    15 :   0.5000 0.2000 0.0000  plane waves:    1946
 k-point    16 :   0.3000 0.3000 0.0000  plane waves:    1945
 k-point    17 :   0.4000 0.3000 0.0000  plane waves:    1928
 k-point    18 :   0.5000 0.3000 0.0000  plane waves:    1934
 k-point    19 :   0.4000 0.4000 0.0000  plane waves:    1951
 k-point    20 :   0.5000 0.4000 0.0000  plane waves:    1956
 k-point    21 :   0.5000 0.5000 0.0000  plane waves:    1956
 k-point    22 :   0.1000 0.1000 0.1000  plane waves:    1935
 k-point    23 :   0.2000 0.1000 0.1000  plane waves:    1935
 k-point    24 :   0.3000 0.1000 0.1000  plane waves:    1940
 k-point    25 :   0.4000 0.1000 0.1000  plane waves:    1948
 k-point    26 :   0.5000 0.1000 0.1000  plane waves:    1930
 k-point    27 :   0.2000 0.2000 0.1000  plane waves:    1935
 k-point    28 :   0.3000 0.2000 0.1000  plane waves:    1934
 k-point    29 :   0.4000 0.2000 0.1000  plane waves:    1950
 k-point    30 :   0.5000 0.2000 0.1000  plane waves:    1932
 k-point    31 :   0.3000 0.3000 0.1000  plane waves:    1950
 k-point    32 :   0.4000 0.3000 0.1000  plane waves:    1941
 k-point    33 :   0.5000 0.3000 0.1000  plane waves:    1936
 k-point    34 :   0.4000 0.4000 0.1000  plane waves:    1945
 k-point    35 :   0.5000 0.4000 0.1000  plane waves:    1948
 k-point    36 :   0.5000 0.5000 0.1000  plane waves:    1960
 k-point    37 :   0.2000 0.2000 0.2000  plane waves:    1929
 k-point    38 :   0.3000 0.2000 0.2000  plane waves:    1932
 k-point    39 :   0.4000 0.2000 0.2000  plane waves:    1940
 k-point    40 :   0.5000 0.2000 0.2000  plane waves:    1932
 k-point    41 :   0.3000 0.3000 0.2000  plane waves:    1937
 k-point    42 :   0.4000 0.3000 0.2000  plane waves:    1943
 k-point    43 :   0.5000 0.3000 0.2000  plane waves:    1946
 k-point    44 :   0.4000 0.4000 0.2000  plane waves:    1942
 k-point    45 :   0.5000 0.4000 0.2000  plane waves:    1936
 k-point    46 :   0.5000 0.5000 0.2000  plane waves:    1948
 k-point    47 :   0.3000 0.3000 0.3000  plane waves:    1920
 k-point    48 :   0.4000 0.3000 0.3000  plane waves:    1931
 k-point    49 :   0.5000 0.3000 0.3000  plane waves:    1936
 k-point    50 :   0.4000 0.4000 0.3000  plane waves:    1942
 k-point    51 :   0.5000 0.4000 0.3000  plane waves:    1930
 k-point    52 :   0.5000 0.5000 0.3000  plane waves:    1944
 k-point    53 :   0.4000 0.4000 0.4000  plane waves:    1914
 k-point    54 :   0.5000 0.4000 0.4000  plane waves:    1920
 k-point    55 :   0.5000 0.5000 0.4000  plane waves:    1916
 k-point    56 :   0.5000 0.5000 0.5000  plane waves:    1904

 maximum and minimum number of plane-waves per node :      1960     1904

 maximum number of plane-waves:      1960
 maximum index in each direction: 
   IXMAX=    7   IYMAX=    7   IZMAX=    7
   IXMIN=   -8   IYMIN=   -8   IZMIN=   -8


 serial   3D FFT for wavefunctions
 parallel 3D FFT for charge:
    minimum data exchange during FFTs selected (reduces bandwidth)


 total amount of memory used by VASP MPI-rank0    40910. kBytes
=======================================================================

   base      :      30000. kBytes
   nonl-proj :       7237. kBytes
   fftplans  :        299. kBytes
   grid      :       1527. kBytes
   one-center:         12. kBytes
   wavefun   :       1835. kBytes
 
     INWAV:  cpu time      0.0000: real time      0.0000
 Broyden mixing: mesh for mixing (old mesh)
   NGX = 15   NGY = 15   NGZ = 15
  (NGX  = 64   NGY  = 64   NGZ  = 64)
  gives a total of   3375 points

 initial charge density was supplied:
 charge density of overlapping atoms calculated
 number of electron      12.0000000 magnetization 
 keeping initial charge density in first step


--------------------------------------------------------------------------------------------------------


 Maximum index for augmentation-charges          797 (set IRDMAX)


--------------------------------------------------------------------------------------------------------


 First call to EWALD:  gamma=   0.426
 Maximum number of real-space cells 3x 3x 3
 Maximum number of reciprocal cells 3x 3x 3

    FEWALD:  cpu time      0.0029: real time      0.0029


--------------------------------------- Ionic step        1  -------------------------------------------




--------------------------------------- Iteration      1(   1)  ---------------------------------------


    POTLOK:  cpu time      0.0102: real time      0.0134
    SETDIJ:  cpu time      0.0046: real time      0.0052
     EDDAV:  cpu time      2.7124: real time      2.7292
 BZINTS: Fermi energy:    7.705823;   12.000000 electrons
         Band energy: 0.393365E+02;  BLOECHL correction:   -0.230892
       DOS:  cpu time      0.0143: real time      0.0144
    --------------------------------------------
      LOOP:  cpu time      2.7415: real time      2.7623

 eigenvalue-minimisations  :  7168
 total energy-change (2. order) :-0.1123794E+02  (-0.4513608E+03)
 number of electron      12.0000000 magnetization 
 augmentation part       12.0000000 magnetization 

 Free energy of the ion-electron system (eV)
  ---------------------------------------------------
  alpha Z        PSCENC =        -0.74640220
  Ewald energy   TEWEN  =      -285.65644434
  -Hartree energ DENC   =        -0.56879082
  -exchange      EXHF   =         0.00000000
  -V(xc)+E(xc)   XCENC  =      -105.57472408
  PAW double counting   =       264.80062850     -136.98248303
  entropy T*S    EENTRO =         0.00000000
  eigenvalues    EBANDS =        39.33645123
  atomic energy  EATOM  =       214.15382826
  Solvation  Ediel_sol  =         0.00000000
  ---------------------------------------------------
  free energy    TOTEN  =       -11.23793647 eV

  energy without entropy =      -11.23793647  energy(sigma->0) =      -11.23793647


--------------------------------------------------------------------------------------------------------




--------------------------------------- Iteration      1(   2)  ---------------------------------------


     EDDAV:  cpu time      5.8445: real time      5.8799
 BZINTS: Fermi energy:    7.124500;   12.000000 electrons
         Band energy: 0.356274E+02;  BLOECHL correction:   -0.235711
       DOS:  cpu time      0.0100: real time      0.0100
    --------------------------------------------
      LOOP:  cpu time      5.8545: real time      5.8899

 eigenvalue-minimisations  : 10880
 total energy-change (2. order) :-0.3709100E+01  (-0.3682021E+01)
 number of electron      12.0000000 magnetization 
 augmentation part       12.0000000 magnetization 

 Free energy of the ion-electron system (eV)
  ---------------------------------------------------
  alpha Z        PSCENC =        -0.74640220
  Ewald energy   TEWEN  =      -285.65644434
  -Hartree energ DENC   =        -0.56879082
  -exchange      EXHF   =         0.00000000
  -V(xc)+E(xc)   XCENC  =      -105.57472408
  PAW double counting   =       264.80062850     -136.98248303
  entropy T*S    EENTRO =         0.00000000
  eigenvalues    EBANDS =        35.62735168
  atomic energy  EATOM  =       214.15382826
  Solvation  Ediel_sol  =         0.00000000
  ---------------------------------------------------
  free energy    TOTEN  =       -14.94703602 eV

  energy without entropy =      -14.94703602  energy(sigma->0) =      -14.94703602


--------------------------------------------------------------------------------------------------------




--------------------------------------- Iteration      1(   3)  ---------------------------------------


     EDDAV:  cpu time      2.7341: real time      2.7510
 BZINTS: Fermi energy:    7.124121;   12.000000 electrons
         Band energy: 0.356254E+02;  BLOECHL correction:   -0.235722
       DOS:  cpu time      0.0107: real time      0.0107
    --------------------------------------------
      LOOP:  cpu time      2.7448: real time      2.7618

 eigenvalue-minimisations  :  7168
 total energy-change (2. order) :-0.1970738E-02  (-0.1949969E-02)
 number of electron      12.0000000 magnetization 
 augmentation part       12.0000000 magnetization 

 Free energy of the ion-electron system (eV)
  ---------------------------------------------------
  alpha Z        PSCENC =        -0.74640220
  Ewald energy   TEWEN  =      -285.65644434
  -Hartree energ DENC   =        -0.56879082
  -exchange      EXHF   =         0.00000000
  -V(xc)+E(xc)   XCENC  =      -105.57472408
  PAW double counting   =       264.80062850     -136.98248303
  entropy T*S    EENTRO =         0.00000000
  eigenvalues    EBANDS =        35.62538094
  atomic energy  EATOM  =       214.15382826
  Solvation  Ediel_sol  =         0.00000000
  ---------------------------------------------------
  free energy    TOTEN  =       -14.94900676 eV

  energy without entropy =      -14.94900676  energy(sigma->0) =      -14.94900676


--------------------------------------------------------------------------------------------------------




--------------------------------------- Iteration      1(   4)  ---------------------------------------


     EDDAV:  cpu time     10.5967: real time     10.6570
 BZINTS: Fermi energy:    7.124121;   12.000000 electrons
         Band energy: 0.356254E+02;  BLOECHL correction:   -0.235722
       DOS:  cpu time      0.0111: real time      0.0112
    --------------------------------------------
      LOOP:  cpu time     10.6078: real time     10.6681

 eigenvalue-minimisations  : 14144
 total energy-change (2. order) :-0.1007946E-05  (-0.9882987E-06)
 number of electron      12.0000000 magnetization 
 augmentation part       12.0000000 magnetization 

 Free energy of the ion-electron system (eV)
  ---------------------------------------------------
  alpha Z        PSCENC =        -0.74640220
  Ewald energy   TEWEN  =      -285.65644434
  -Hartree energ DENC   =        -0.56879082
  -exchange      EXHF   =         0.00000000
  -V(xc)+E(xc)   XCENC  =      -105.57472408
  PAW double counting   =       264.80062850     -136.98248303
  entropy T*S    EENTRO =         0.00000000
  eigenvalues    EBANDS =        35.62537993
  atomic energy  EATOM  =       214.15382826
  Solvation  Ediel_sol  =         0.00000000
  ---------------------------------------------------
  free energy    TOTEN  =       -14.94900777 eV

  energy without entropy =      -14.94900777  energy(sigma->0) =      -14.94900777


--------------------------------------------------------------------------------------------------------




--------------------------------------- Iteration      1(   5)  ---------------------------------------


     EDDAV:  cpu time      2.9381: real time      2.9596
 BZINTS: Fermi energy:    7.124121;   12.000000 electrons
         Band energy: 0.356254E+02;  BLOECHL correction:   -0.235722
       DOS:  cpu time      0.0097: real time      0.0107
    CHARGE:  cpu time      0.0285: real time      0.0290
    MIXING:  cpu time      0.0023: real time      0.0025
    --------------------------------------------
      LOOP:  cpu time      2.9787: real time      3.0018

 eigenvalue-minimisations  :  7168
 total energy-change (2. order) :-0.1018066E-08  (-0.8598455E-12)
 number of electron      12.0000000 magnetization 
 augmentation part       -0.1560872 magnetization 

 Broyden mixing:
  rms(total) = 0.23363E+00    rms(broyden)= 0.23363E+00
  rms(prec ) = 0.44657E+00
  weight for this iteration     100.00

 Free energy of the ion-electron system (eV)
  ---------------------------------------------------
  alpha Z        PSCENC =        -0.74640220
  Ewald energy   TEWEN  =      -285.65644434
  -Hartree energ DENC   =        -0.56879082
  -exchange      EXHF   =         0.00000000
  -V(xc)+E(xc)   XCENC  =      -105.57472408
  PAW double counting   =       264.80062850     -136.98248303
  entropy T*S    EENTRO =         0.00000000
  eigenvalues    EBANDS =        35.62537993
  atomic energy  EATOM  =       214.15382826
  Solvation  Ediel_sol  =         0.00000000
  ---------------------------------------------------
  free energy    TOTEN  =       -14.94900777 eV

  energy without entropy =      -14.94900777  energy(sigma->0) =      -14.94900777


--------------------------------------------------------------------------------------------------------




--------------------------------------- Iteration      1(   6)  ---------------------------------------


    POTLOK:  cpu time      0.0125: real time      0.0129
    SETDIJ:  cpu time      0.0012: real time      0.0012
     EDDAV:  cpu time      6.8608: real time      6.9041
 BZINTS: Fermi energy:    7.105727;   12.000000 electrons
         Band energy: 0.354191E+02;  BLOECHL correction:   -0.235942
       DOS:  cpu time      0.0111: real time      0.0112
    CHARGE:  cpu time      0.0249: real time      0.0250
    MIXING:  cpu time      0.0013: real time      0.0014
    --------------------------------------------
      LOOP:  cpu time      6.9118: real time      6.9557

 eigenvalue-minimisations  : 11520
 total energy-change (2. order) : 0.4968386E-01  (-0.8523071E-03)
 number of electron      12.0000000 magnetization 
 augmentation part       -0.1585460 magnetization 

 Broyden mixing:
  rms(total) = 0.13615E+00    rms(broyden)= 0.13615E+00
  rms(prec ) = 0.27387E+00
  weight for this iteration     100.00

 eigenvalues of (default mixing * dielectric matrix)
  average eigenvalue GAMMA=   2.3276
  2.3276

 Free energy of the ion-electron system (eV)
  ---------------------------------------------------
  alpha Z        PSCENC =        -0.74640220
  Ewald energy   TEWEN  =      -285.65644434
  -Hartree energ DENC   =        -0.43335058
  -exchange      EXHF   =         0.00000000
  -V(xc)+E(xc)   XCENC  =      -105.46202867
  PAW double counting   =       355.05189926     -227.22595987
  entropy T*S    EENTRO =         0.00000000
  eigenvalues    EBANDS =        35.41913423
  atomic energy  EATOM  =       214.15382826
  Solvation  Ediel_sol  =         0.00000000
  ---------------------------------------------------
  free energy    TOTEN  =       -14.89932391 eV

  energy without entropy =      -14.89932391  energy(sigma->0) =      -14.89932391


--------------------------------------------------------------------------------------------------------




--------------------------------------- Iteration      1(   7)  ---------------------------------------


    POTLOK:  cpu time      0.0103: real time      0.0131
    SETDIJ:  cpu time      0.0012: real time      0.0012
     EDDAV:  cpu time      6.4371: real time      6.4778
 BZINTS: Fermi energy:    7.082383;   12.000000 electrons
         Band energy: 0.351689E+02;  BLOECHL correction:   -0.236369
       DOS:  cpu time      0.0099: real time      0.0100
    CHARGE:  cpu time      0.0250: real time      0.0254
    MIXING:  cpu time      0.0011: real time      0.0011
    --------------------------------------------
      LOOP:  cpu time      6.4847: real time      6.5286

 eigenvalue-minimisations  : 11264
 total energy-change (2. order) : 0.3565573E-01  (-0.2398244E-02)
 number of electron      12.0000000 magnetization 
 augmentation part       -0.1630530 magnetization 

 Broyden mixing:
  rms(total) = 0.25079E-01    rms(broyden)= 0.25079E-01
  rms(prec ) = 0.27046E-01
  weight for this iteration     100.00

 eigenvalues of (default mixing * dielectric matrix)
  average eigenvalue GAMMA=   2.7295
  2.7295  2.7295

 Free energy of the ion-electron system (eV)
  ---------------------------------------------------
  alpha Z        PSCENC =        -0.74640220
  Ewald energy   TEWEN  =      -285.65644434
  -Hartree energ DENC   =        -0.38193103
  -exchange      EXHF   =         0.00000000
  -V(xc)+E(xc)   XCENC  =      -105.23265226
  PAW double counting   =       523.75929493     -395.92826156
  entropy T*S    EENTRO =         0.00000000
  eigenvalues    EBANDS =        35.16890001
  atomic energy  EATOM  =       214.15382826
  Solvation  Ediel_sol  =         0.00000000
  ---------------------------------------------------
  free energy    TOTEN  =       -14.86366818 eV

  energy without entropy =      -14.86366818  energy(sigma->0) =      -14.86366818


--------------------------------------------------------------------------------------------------------




--------------------------------------- Iteration      1(   8)  ---------------------------------------


    POTLOK:  cpu time      0.0132: real time      0.0137
    SETDIJ:  cpu time      0.0012: real time      0.0012
     EDDAV:  cpu time      4.5588: real time      4.5891
 BZINTS: Fermi energy:    7.083107;   12.000000 electrons
         Band energy: 0.351790E+02;  BLOECHL correction:   -0.236385
       DOS:  cpu time      0.0106: real time      0.0107
    CHARGE:  cpu time      0.0248: real time      0.0249
    MIXING:  cpu time      0.0004: real time      0.0004
    --------------------------------------------
      LOOP:  cpu time      4.6090: real time      4.6399

 eigenvalue-minimisations  :  8832
 total energy-change (2. order) : 0.9695912E-04  (-0.3089247E-05)
 number of electron      12.0000000 magnetization 
 augmentation part       -0.1633083 magnetization 

 Broyden mixing:
  rms(total) = 0.18719E-02    rms(broyden)= 0.18719E-02
  rms(prec ) = 0.35495E-02
  weight for this iteration     100.00

 eigenvalues of (default mixing * dielectric matrix)
  average eigenvalue GAMMA=   2.1213
  1.0681  2.5304  2.7655

 Free energy of the ion-electron system (eV)
  ---------------------------------------------------
  alpha Z        PSCENC =        -0.74640220
  Ewald energy   TEWEN  =      -285.65644434
  -Hartree energ DENC   =        -0.39339457
  -exchange      EXHF   =         0.00000000
  -V(xc)+E(xc)   XCENC  =      -105.21714213
  PAW double counting   =       483.94874223     -356.13178808
  entropy T*S    EENTRO =         0.00000000
  eigenvalues    EBANDS =        35.17902960
  atomic energy  EATOM  =       214.15382826
  Solvation  Ediel_sol  =         0.00000000
  ---------------------------------------------------
  free energy    TOTEN  =       -14.86357122 eV

  energy without entropy =      -14.86357122  energy(sigma->0) =      -14.86357122


--------------------------------------------------------------------------------------------------------




--------------------------------------- Iteration      1(   9)  ---------------------------------------


    POTLOK:  cpu time      0.0094: real time      0.0133
    SETDIJ:  cpu time      0.0012: real time      0.0012
     EDDAV:  cpu time      9.4546: real time      9.5054
 BZINTS: Fermi energy:    7.082811;   12.000000 electrons
         Band energy: 0.351759E+02;  BLOECHL correction:   -0.236391
       DOS:  cpu time      0.0109: real time      0.0110
    CHARGE:  cpu time      0.0249: real time      0.0250
    MIXING:  cpu time      0.0003: real time      0.0003
    --------------------------------------------
      LOOP:  cpu time      9.5014: real time      9.5561

 eigenvalue-minimisations  : 13120
 total energy-change (2. order) : 0.2782213E-05  (-0.4835314E-06)
 number of electron      12.0000000 magnetization 
 augmentation part       -0.1633724 magnetization 

 Broyden mixing:
  rms(total) = 0.11742E-03    rms(broyden)= 0.11741E-03
  rms(prec ) = 0.16837E-03
  weight for this iteration     100.00

 eigenvalues of (default mixing * dielectric matrix)
  average eigenvalue GAMMA=   2.1937
  0.9977  2.6471  2.6471  2.4827

 Free energy of the ion-electron system (eV)
  ---------------------------------------------------
  alpha Z        PSCENC =        -0.74640220
  Ewald energy   TEWEN  =      -285.65644434
  -Hartree energ DENC   =        -0.39415566
  -exchange      EXHF   =         0.00000000
  -V(xc)+E(xc)   XCENC  =      -105.21366730
  PAW double counting   =       486.00431598     -358.18696286
  entropy T*S    EENTRO =         0.00000000
  eigenvalues    EBANDS =        35.17591969
  atomic energy  EATOM  =       214.15382826
  Solvation  Ediel_sol  =         0.00000000
  ---------------------------------------------------
  free energy    TOTEN  =       -14.86356844 eV

  energy without entropy =      -14.86356844  energy(sigma->0) =      -14.86356844


--------------------------------------------------------------------------------------------------------




--------------------------------------- Iteration      1(  10)  ---------------------------------------


    POTLOK:  cpu time      0.0099: real time      0.0133
    SETDIJ:  cpu time      0.0011: real time      0.0012
     EDDAV:  cpu time      3.5878: real time      3.6100
 BZINTS: Fermi energy:    7.082770;   12.000000 electrons
         Band energy: 0.351754E+02;  BLOECHL correction:   -0.236391
       DOS:  cpu time      0.0106: real time      0.0107
    CHARGE:  cpu time      0.0250: real time      0.0251
    MIXING:  cpu time      0.0004: real time      0.0004
    --------------------------------------------
      LOOP:  cpu time      3.6347: real time      3.6605

 eigenvalue-minimisations  :  7552
 total energy-change (2. order) : 0.1638756E-05  (-0.1747170E-08)
 number of electron      12.0000000 magnetization 
 augmentation part       -0.1633691 magnetization 

 Broyden mixing:
  rms(total) = 0.23432E-04    rms(broyden)= 0.23430E-04
  rms(prec ) = 0.39667E-04
  weight for this iteration     100.00

 eigenvalues of (default mixing * dielectric matrix)
  average eigenvalue GAMMA=   1.9774
  0.9667  1.0563  2.6809  2.6809  2.5020

 Free energy of the ion-electron system (eV)
  ---------------------------------------------------
  alpha Z        PSCENC =        -0.74640220
  Ewald energy   TEWEN  =      -285.65644434
  -Hartree energ DENC   =        -0.39412887
  -exchange      EXHF   =         0.00000000
  -V(xc)+E(xc)   XCENC  =      -105.21378835
  PAW double counting   =       485.93610743     -358.11815824
  entropy T*S    EENTRO =         0.00000000
  eigenvalues    EBANDS =        35.17541951
  atomic energy  EATOM  =       214.15382826
  Solvation  Ediel_sol  =         0.00000000
  ---------------------------------------------------
  free energy    TOTEN  =       -14.86356680 eV

  energy without entropy =      -14.86356680  energy(sigma->0) =      -14.86356680


--------------------------------------------------------------------------------------------------------




--------------------------------------- Iteration      1(  11)  ---------------------------------------


    POTLOK:  cpu time      0.0128: real time      0.0132
    SETDIJ:  cpu time      0.0011: real time      0.0011
     EDDAV:  cpu time      4.2602: real time      4.2840
 BZINTS: Fermi energy:    7.082765;   12.000000 electrons
         Band energy: 0.351754E+02;  BLOECHL correction:   -0.236391
       DOS:  cpu time      0.0099: real time      0.0099
    --------------------------------------------
      LOOP:  cpu time      4.2840: real time      4.3083

 eigenvalue-minimisations  :  7168
 total energy-change (2. order) : 0.9084192E-07  (-0.6890822E-10)
 number of electron      12.0000000 magnetization 
 augmentation part       -0.1633691 magnetization 

 Free energy of the ion-electron system (eV)
  ---------------------------------------------------
  alpha Z        PSCENC =        -0.74640220
  Ewald energy   TEWEN  =      -285.65644434
  -Hartree energ DENC   =        -0.39414443
  -exchange      EXHF   =         0.00000000
  -V(xc)+E(xc)   XCENC  =      -105.21375953
  PAW double counting   =       485.95165023     -358.13365440
  entropy T*S    EENTRO =         0.00000000
  eigenvalues    EBANDS =        35.17535970
  atomic energy  EATOM  =       214.15382826
  Solvation  Ediel_sol  =         0.00000000
  ---------------------------------------------------
  free energy    TOTEN  =       -14.86356671 eV

  energy without entropy =      -14.86356671  energy(sigma->0) =      -14.86356671


--------------------------------------------------------------------------------------------------------




 average (electrostatic) potential at core
  the test charge radii are     1.0406
  (the norm of the test charge is              1.0000)
       1 -73.6273       2 -73.6273       3 -73.6273       4 -73.6273
 
 
 
 E-fermi :   7.0828     XC(G=0):  -9.8861     alpha+bet :-13.6367

 val. band max:        7.3459409128   @ k =   0.5000   0.5000   0.1000
 cond. band min:       6.8511050718   @ k =   0.1000   0.1000   0.0000
 fundamental gap:     -0.4948358411
 Fermi energy:         7.0827646088

 k-point     1 :       0.0000    0.0000    0.0000
  band No.  band energies     occupation 
      1      -3.4255      2.00000
      2       4.4077      2.00000
      3       4.4077      2.00000
      4       4.4077      2.00000
      5       5.5214      2.00000
      6       5.5214      2.00000
      7       5.5214      2.00000
      8      12.3258      0.00000
      9      12.3258      0.00000
     10      12.3258      0.00000
     11      12.3258      0.00000
     12      12.3258      0.00000
     13      12.3258      0.00000
     14      12.3563      0.00000
     15      12.3563      0.00000
     16      12.3563      0.00000
     17      15.4227      0.00000
     18      15.4227      0.00000
     19      15.4227      0.00000
     20      19.2693      0.00000
     21      19.2693      0.00000
     22      19.2693      0.00000
     23      20.1282      0.00000
     24      20.1282      0.00000
     25      20.1282      0.00000
     26      22.9713      0.00000
     27      25.6410      0.00000
     28      25.6410      0.00000
     29      28.1427      0.00000
     30      30.5074      0.00000
     31      30.5074      0.00000
     32      30.5074      0.00000
     33      31.2406      0.00000
     34      31.2406      0.00000
     35      31.2406      0.00000
     36      32.6642      0.00000
     37      32.6642      0.00000
     38      32.6642      0.00000
     39      32.6642      0.00000
     40      32.6642      0.00000
     41      32.6642      0.00000
     42      37.9778      0.00000
     43      38.1441      0.00000
     44      38.1441      0.00000
     45      38.1441      0.00000
     46      38.5214      0.00000
     47      38.5214      0.00000
     48      38.5214      0.00000
     49      38.5214      0.00000
     50      38.5214      0.00000
     51      38.5214      0.00000
     52      39.0206      0.00000
     53      39.0206      0.00000
     54      39.0206      0.00000
     55      40.0937      0.00000
     56      40.0937      0.00000
     57      40.0937      0.00000
     58      45.5964      0.00000
     59      45.5964      0.00000
     60      45.5964      0.00000
     61      45.5964      0.00000
     62      45.5964      0.00000
     63      45.5964      0.00000
     64      46.1115      0.00000

 k-point     2 :       0.1000    0.0000    0.0000
  band No.  band energies     occupation 
      1      -3.3400      2.00000
      2       3.3094      2.00000
      3       4.4867      2.00000
      4       4.4867      2.00000
      5       5.6055      2.00285
      6       5.6055      2.06628
      7       6.7697      1.47938
      8      10.8311      0.00000
      9      10.8311      0.00000
     10      11.7299      0.00000
     11      11.7299      0.00000
     12      12.3996      0.00000
     13      12.3996      0.00000
     14      12.4405      0.00000
     15      14.0089      0.00000
     16      14.0089      0.00000
     17      15.5006      0.00000
     18      16.1472      0.00000
     19      16.1472      0.00000
     20      18.2533      0.00000
     21      18.2533      0.00000
     22      18.6768      0.00000
     23      19.9167      0.00000
     24      21.2668      0.00000
     25      21.2668      0.00000
     26      23.7346      0.00000
     27      24.5578      0.00000
     28      25.7200      0.00000
     29      28.1675      0.00000
     30      30.6101      0.00000
     31      30.6101      0.00000
     32      30.7531      0.00000
     33      30.7531      0.00000
     34      30.9235      0.00000
     35      31.6084      0.00000
     36      31.6084      0.00000
     37      31.6935      0.00000
     38      32.3443      0.00000
     39      32.3443      0.00000
     40      32.6821      0.00000
     41      32.6821      0.00000
     42      38.0194      0.00000
     43      38.0194      0.00000
     44      38.1423      0.00000
     45      38.3898      0.00000
     46      38.5156      0.00000
     47      38.5156      0.00000
     48      38.5719      0.00000
     49      38.5719      0.00000
     50      38.6287      0.00000
     51      38.7350      0.00000
     52      38.7350      0.00000
     53      39.4782      0.00000
     54      39.4782      0.00000
     55      40.4925      0.00000
     56      40.7447      0.00000
     57      40.7447      0.00000
     58      43.3487      0.00000
     59      43.3487      0.00000
     60      43.4721      0.00000
     61      44.8704      0.00000
     62      44.8704      0.00000
     63      44.8847      0.00000
     64      44.8847      0.00000

 k-point     3 :       0.2000    0.0000    0.0000
  band No.  band energies     occupation 
      1      -3.0837      2.00000
      2       1.9450      2.00000
      3       4.7238      2.00000
      4       4.7238      2.00000
      5       5.8568      2.03175
      6       5.8568      2.50930
      7       8.5834     -0.14900
      8       9.4804      0.00000
      9       9.4804      0.00000
     10      10.6298      0.00000
     11      10.6298      0.00000
     12      12.6210      0.00000
     13      12.6210      0.00000
     14      12.6931      0.00000
     15      15.7323      0.00000
     16      15.8325      0.00000
     17      15.8325      0.00000
     18      17.0355      0.00000
     19      17.0355      0.00000
     20      17.5502      0.00000
     21      17.6293      0.00000
     22      17.6293      0.00000
     23      19.3642      0.00000
     24      22.3246      0.00000
     25      22.8430      0.00000
     26      22.8430      0.00000
     27      25.3730      0.00000
     28      25.9560      0.00000
     29      28.7817      0.00000
     30      29.4384      0.00000
     31      29.4384      0.00000
     32      29.4446      0.00000
     33      29.4446      0.00000
     34      30.1667      0.00000
     35      30.9264      0.00000
     36      30.9264      0.00000
     37      31.5398      0.00000
     38      31.5398      0.00000
     39      32.7298      0.00000
     40      32.7298      0.00000
     41      33.5295      0.00000
     42      36.7201      0.00000
     43      37.5535      0.00000
     44      37.5535      0.00000
     45      38.5658      0.00000
     46      38.5658      0.00000
     47      38.7222      0.00000
     48      38.7222      0.00000
     49      38.8736      0.00000
     50      38.8736      0.00000
     51      39.7028      0.00000
     52      39.8874      0.00000
     53      40.3605      0.00000
     54      40.3605      0.00000
     55      40.3970      0.00000
     56      40.4762      0.00000
     57      41.3524      0.00000
     58      41.3524      0.00000
     59      41.9301      0.00000
     60      41.9301      0.00000
     61      43.5876      0.00000
     62      43.5876      0.00000
     63      43.8888      0.00000
     64      43.8888      0.00000

 k-point     4 :       0.3000    0.0000    0.0000
  band No.  band energies     occupation 
      1      -2.6575      2.00000
      2       0.7080      2.00000
      3       5.1191      2.00000
      4       5.1191      2.00000
      5       6.2727      2.04067
      6       6.2727      2.53506
      7       8.2892      0.00000
      8       8.2892      0.00000
      9       9.5148      0.00000
     10       9.5148      0.00000
     11      10.5668      0.00000
     12      12.9901      0.00000
     13      12.9901      0.00000
     14      13.1132      0.00000
     15      15.9391      0.00000
     16      15.9391      0.00000
     17      16.1122      0.00000
     18      16.3990      0.00000
     19      17.8080      0.00000
     20      17.8080      0.00000
     21      18.6031      0.00000
     22      19.3641      0.00000
     23      19.3641      0.00000
     24      19.9031      0.00000
     25      24.5032      0.00000
     26      24.5032      0.00000
     27      26.3465      0.00000
     28      27.0031      0.00000
     29      27.0031      0.00000
     30      27.3768      0.00000
     31      27.6670      0.00000
     32      27.6670      0.00000
     33      29.2612      0.00000
     34      29.7864      0.00000
     35      30.4656      0.00000
     36      30.4656      0.00000
     37      31.4825      0.00000
     38      31.4825      0.00000
     39      32.7907      0.00000
     40      32.7907      0.00000
     41      35.0837      0.00000
     42      35.2235      0.00000
     43      36.9608      0.00000
     44      36.9608      0.00000
     45      37.4168      0.00000
     46      37.4168      0.00000
     47      37.4531      0.00000
     48      38.9684      0.00000
     49      38.9684      0.00000
     50      39.2691      0.00000
     51      39.2691      0.00000
     52      39.8081      0.00000
     53      40.5652      0.00000
     54      40.5652      0.00000
     55      41.3826      0.00000
     56      41.3826      0.00000
     57      41.6290      0.00000
     58      41.9305      0.00000
     59      42.4468      0.00000
     60      42.4468      0.00000
     61      42.6138      0.00000
     62      42.6138      0.00000
     63      43.0985      0.00000
     64      43.0985      0.00000

 k-point     5 :       0.4000    0.0000    0.0000
  band No.  band energies     occupation 
      1      -2.0628      2.00000
      2      -0.3767      2.00000
      3       5.6730      2.00000
      4       5.6730      2.00000
      5       6.8460      1.98229
      6       6.8460      1.99777
      7       7.2577      0.00000
      8       7.2577      0.00000
      9       8.5029      0.00000
     10       8.5029      0.00000
     11      12.6901      0.00000
     12      13.5069      0.00000
     13      13.5069      0.00000
     14      13.6991      0.00000
     15      14.9827      0.00000
     16      14.9827      0.00000
     17      15.3523      0.00000
     18      16.6304      0.00000
     19      17.2079      0.00000
     20      18.0878      0.00000
     21      19.9292      0.00000
     22      19.9292      0.00000
     23      21.1720      0.00000
     24      21.1720      0.00000
     25      24.5560      0.00000
     26      24.5560      0.00000
     27      25.7629      0.00000
     28      25.7629      0.00000
     29      26.1720      0.00000
     30      26.1720      0.00000
     31      26.8866      0.00000
     32      28.3699      0.00000
     33      29.2039      0.00000
     34      29.2039      0.00000
     35      29.6161      0.00000
     36      30.9966      0.00000
     37      32.3266      0.00000
     38      32.3266      0.00000
     39      32.8417      0.00000
     40      32.8417      0.00000
     41      33.7474      0.00000
     42      34.6677      0.00000
     43      35.0979      0.00000
     44      35.0979      0.00000
     45      36.3919      0.00000
     46      37.4440      0.00000
     47      37.4440      0.00000
     48      38.7797      0.00000
     49      39.2983      0.00000
     50      39.2983      0.00000
     51      39.7153      0.00000
     52      39.7153      0.00000
     53      40.3537      0.00000
     54      40.3537      0.00000
     55      41.1851      0.00000
     56      41.1851      0.00000
     57      41.4612      0.00000
     58      41.4612      0.00000
     59      42.5995      0.00000
     60      42.5995      0.00000
     61      43.6890      0.00000
     62      44.1620      0.00000
     63      44.1620      0.00000
     64      44.8053      0.00000

 k-point     6 :       0.5000    0.0000    0.0000
  band No.  band energies     occupation 
      1      -1.3016      2.00000
      2      -1.3016      2.00000
      3       6.3857      2.00000
      4       6.3857      2.00000
      5       6.3857      2.00000
      6       6.3857      2.00000
      7       7.4384      0.00000
      8       7.4384      0.00000
      9       7.7620      0.00000
     10       7.7620      0.00000
     11      14.1714      0.00000
     12      14.1714      0.00000
     13      14.1714      0.00000
     14      14.1714      0.00000
     15      14.4476      0.00000
     16      14.4476      0.00000
     17      14.9322      0.00000
     18      14.9322      0.00000
     19      17.2758      0.00000
     20      17.2758      0.00000
     21      22.1851      0.00000
     22      22.1851      0.00000
     23      22.1851      0.00000
     24      22.1851      0.00000
     25      22.4004      0.00000
     26      22.4004      0.00000
     27      24.4919      0.00000
     28      24.4919      0.00000
     29      27.5669      0.00000
     30      27.5669      0.00000
     31      27.7637      0.00000
     32      27.7637      0.00000
     33      27.7637      0.00000
     34      27.7637      0.00000
     35      32.0519      0.00000
     36      32.0519      0.00000
     37      32.3299      0.00000
     38      32.3299      0.00000
     39      32.8615      0.00000
     40      32.8615      0.00000
     41      33.5213      0.00000
     42      33.5213      0.00000
     43      33.5213      0.00000
     44      33.5213      0.00000
     45      37.4756      0.00000
     46      37.4756      0.00000
     47      37.6117      0.00000
     48      37.6117      0.00000
     49      39.6662      0.00000
     50      39.6662      0.00000
     51      39.6662      0.00000
     52      39.6662      0.00000
     53      40.6613      0.00000
     54      40.6613      0.00000
     55      40.6613      0.00000
     56      40.6613      0.00000
     57      41.0814      0.00000
     58      41.0814      0.00000
     59      42.4289      0.00000
     60      42.4289      0.00000
     61      45.9912      0.00000
     62      45.9912      0.00000
     63      46.0239      0.00000
     64      46.0239      0.00000

 k-point     7 :       0.1000    0.1000    0.0000
  band No.  band energies     occupation 
      1      -3.2545      2.00000
      2       3.3908      2.00000
      3       3.3908      2.00000
      4       4.5657      2.00000
      5       5.6893      2.05549
      6       6.8511      2.13369
      7       6.8511      0.97916
      8       9.7620      0.00000
      9      10.9102      0.00000
     10      10.9102      0.00000
     11      11.8056      0.00000
     12      11.8056      0.00000
     13      12.4741      0.00000
     14      13.7754      0.00000
     15      14.0877      0.00000
     16      14.0877      0.00000
     17      16.2230      0.00000
     18      16.2230      0.00000
     19      16.9912      0.00000
     20      17.0975      0.00000
     21      17.5507      0.00000
     22      19.4354      0.00000
     23      20.2231      0.00000
     24      21.1388      0.00000
     25      21.5614      0.00000
     26      24.3213      0.00000
     27      24.5476      0.00000
     28      25.0844      0.00000
     29      27.9838      0.00000
     30      30.1373      0.00000
     31      30.1373      0.00000
     32      30.3781      0.00000
     33      30.7183      0.00000
     34      31.5266      0.00000
     35      31.5441      0.00000
     36      31.7691      0.00000
     37      31.8223      0.00000
     38      31.8223      0.00000
     39      32.1798      0.00000
     40      32.3531      0.00000
     41      32.3531      0.00000
     42      36.9341      0.00000
     43      37.4288      0.00000
     44      37.4288      0.00000
     45      38.7353      0.00000
     46      38.7353      0.00000
     47      38.7573      0.00000
     48      38.7585      0.00000
     49      38.7585      0.00000
     50      39.1399      0.00000
     51      39.2951      0.00000
     52      39.2951      0.00000
     53      39.5363      0.00000
     54      39.6316      0.00000
     55      40.7695      0.00000
     56      41.2078      0.00000
     57      41.2078      0.00000
     58      42.1436      0.00000
     59      42.1436      0.00000
     60      43.8124      0.00000
     61      43.8124      0.00000
     62      44.1867      0.00000
     63      44.7095      0.00000
     64      44.8744      0.00000

 k-point     8 :       0.2000    0.1000    0.0000
  band No.  band energies     occupation 
      1      -2.9984      2.00000
      2       2.0275      2.00000
      3       3.6349      2.00000
      4       4.8028      2.00000
      5       5.9400      2.10139
      6       7.0948      0.88332
      7       8.4530     -0.07706
      8       8.6631      0.00000
      9       9.5596      0.00000
     10      10.7079      0.00000
     11      11.1475      0.00000
     12      11.7498      0.00000
     13      12.0323      0.00000
     14      14.3240      0.00000
     15      15.0939      0.00000
     16      15.8237      0.00000
     17      15.9107      0.00000
     18      16.4377      0.00000
     19      16.4486      0.00000
     20      17.7017      0.00000
     21      18.5575      0.00000
     22      18.8297      0.00000
     23      19.8947      0.00000
     24      22.2647      0.00000
     25      22.4001      0.00000
     26      22.7637      0.00000
     27      25.1410      0.00000
     28      26.1509      0.00000
     29      28.2641      0.00000
     30      28.3625      0.00000
     31      29.1302      0.00000
     32      29.2688      0.00000
     33      29.4844      0.00000
     34      30.4901      0.00000
     35      31.0550      0.00000
     36      31.5203      0.00000
     37      31.6308      0.00000
     38      31.7707      0.00000
     39      32.1835      0.00000
     40      32.3714      0.00000
     41      33.9449      0.00000
     42      36.0716      0.00000
     43      36.1103      0.00000
     44      36.7634      0.00000
     45      38.1834      0.00000
     46      38.8118      0.00000
     47      38.8155      0.00000
     48      38.8414      0.00000
     49      39.3523      0.00000
     50      39.7238      0.00000
     51      39.7979      0.00000
     52      39.9595      0.00000
     53      40.0680      0.00000
     54      40.1608      0.00000
     55      40.4673      0.00000
     56      41.0299      0.00000
     57      41.0551      0.00000
     58      41.1490      0.00000
     59      42.4191      0.00000
     60      42.5280      0.00000
     61      42.8312      0.00000
     62      44.0135      0.00000
     63      44.0934      0.00000
     64      45.1679      0.00000

 k-point     9 :       0.3000    0.1000    0.0000
  band No.  band energies     occupation 
      1      -2.5724      2.00000
      2       0.7912      2.00000
      3       4.0411      2.00000
      4       5.1982      2.00000
      5       6.3523      2.04512
      6       7.2702      0.53121
      7       7.4978      0.00000
      8       8.3684      0.00000
      9       9.5961      0.00000
     10      10.6442      0.00000
     11      10.6697      0.00000
     12      11.5424      0.00000
     13      12.4096      0.00000
     14      14.6717      0.00000
     15      14.7174      0.00000
     16      15.3715      0.00000
     17      16.8189      0.00000
     18      16.9784      0.00000
     19      17.7960      0.00000
     20      17.8854      0.00000
     21      19.0893      0.00000
     22      19.4311      0.00000
     23      20.1144      0.00000
     24      20.3355      0.00000
     25      23.9462      0.00000
     26      24.2118      0.00000
     27      25.6990      0.00000
     28      26.0036      0.00000
     29      27.0650      0.00000
     30      27.6223      0.00000
     31      28.0176      0.00000
     32      28.1082      0.00000
     33      28.6723      0.00000
     34      29.1056      0.00000
     35      30.3899      0.00000
     36      30.8733      0.00000
     37      31.6647      0.00000
     38      31.9210      0.00000
     39      32.3761      0.00000
     40      32.9938      0.00000
     41      34.3087      0.00000
     42      35.5185      0.00000
     43      35.8317      0.00000
     44      36.1012      0.00000
     45      36.4922      0.00000
     46      38.4456      0.00000
     47      38.5767      0.00000
     48      38.6545      0.00000
     49      38.8632      0.00000
     50      39.2266      0.00000
     51      39.7319      0.00000
     52      39.9860      0.00000
     53      40.2719      0.00000
     54      40.3217      0.00000
     55      40.3826      0.00000
     56      40.4968      0.00000
     57      41.5150      0.00000
     58      42.0855      0.00000
     59      42.6992      0.00000
     60      43.0625      0.00000
     61      43.2530      0.00000
     62      43.9125      0.00000
     63      44.1824      0.00000
     64      45.7571      0.00000

 k-point    10 :       0.4000    0.1000    0.0000
  band No.  band energies     occupation 
      1      -1.9780      2.00000
      2      -0.2928      2.00000
      3       4.6083      2.00000
      4       5.7521      2.00000
      5       6.2138      2.00788
      6       6.9465      1.79766
      7       7.3369      0.00000
      8       8.0376      0.00000
      9       8.6046      0.00000
     10       9.6710      0.00000
     11      12.0941      0.00000
     12      12.7551      0.00000
     13      12.9451      0.00000
     14      13.6617      0.00000
     15      14.4211      0.00000
     16      15.2669      0.00000
     17      16.8190      0.00000
     18      17.3006      0.00000
     19      17.3253      0.00000
     20      18.7272      0.00000
     21      19.0352      0.00000
     22      20.0052      0.00000
     23      21.2098      0.00000
     24      22.1695      0.00000
     25      23.7223      0.00000
     26      24.6255      0.00000
     27      25.3878      0.00000
     28      25.7235      0.00000
     29      25.7974      0.00000
     30      26.6853      0.00000
     31      26.8003      0.00000
     32      27.1513      0.00000
     33      29.0316      0.00000
     34      29.7289      0.00000
     35      29.9945      0.00000
     36      30.0392      0.00000
     37      32.0910      0.00000
     38      32.3385      0.00000
[...]
     64      46.3207      0.00000

 k-point    52 :       0.5000    0.5000    0.3000
  band No.  band energies     occupation 
      1       1.5412      2.00000
      2       1.5412      2.00000
      3       1.5412      2.00000
      4       1.5412      2.00000
      5       4.8210      2.00000
      6       4.8210      2.00000
      7       4.8210      2.00000
      8       4.8210      2.07316
      9      14.3833      0.00000
     10      14.3833      0.00000
     11      14.3833      0.00000
     12      14.3833      0.00000
     13      16.6873      0.00000
     14      16.6873      0.00000
     15      16.6873      0.00000
     16      16.6873      0.00000
     17      18.4304      0.00000
     18      18.4304      0.00000
     19      18.4304      0.00000
     20      18.4304      0.00000
     21      19.7402      0.00000
     22      19.7402      0.00000
     23      19.7402      0.00000
     24      19.7402      0.00000
     25      22.3826      0.00000
     26      22.3826      0.00000
     27      22.3826      0.00000
     28      22.3826      0.00000
     29      24.6486      0.00000
     30      24.6486      0.00000
     31      24.6486      0.00000
     32      24.6486      0.00000
     33      28.4070      0.00000
     34      28.4070      0.00000
     35      28.4070      0.00000
     36      28.4070      0.00000
     37      29.8118      0.00000
     38      29.8118      0.00000
     39      29.8118      0.00000
     40      29.8118      0.00000
     41      35.4247      0.00000
     42      35.4247      0.00000
     43      35.4247      0.00000
     44      35.4247      0.00000
     45      37.4588      0.00000
     46      37.4588      0.00000
     47      37.4588      0.00000
     48      37.4588      0.00000
     49      39.0845      0.00000
     50      39.0845      0.00000
     51      39.0845      0.00000
     52      39.0845      0.00000
     53      43.7248      0.00000
     54      43.7248      0.00000
     55      43.7248      0.00000
     56      43.7248      0.00000
     57      44.7216      0.00000
     58      44.7216      0.00000
     59      44.7216      0.00000
     60      44.7216      0.00000
     61      46.2289      0.00000
     62      46.2289      0.00000
     63      46.2289      0.00000
     64      46.2289      0.00000

 k-point    53 :       0.4000    0.4000    0.4000
  band No.  band energies     occupation 
      1       0.6271      2.00000
      2       2.2850      2.00000
      3       2.2850      2.00000
      4       2.2850      2.00000
      5       3.9266      2.00000
      6       3.9266      2.00000
      7       3.9266      2.00000
      8       5.5531      2.06596
      9      15.0733      0.00000
     10      15.0733      0.00000
     11      15.0733      0.00000
     12      15.8833      0.00000
     13      15.8833      0.00000
     14      15.8833      0.00000
     15      17.3376      0.00000
     16      17.3376      0.00000
     17      17.5620      0.00000
     18      17.5620      0.00000
     19      17.5620      0.00000
     20      18.9250      0.00000
     21      18.9250      0.00000
     22      20.3867      0.00000
     23      20.3867      0.00000
     24      20.3867      0.00000
     25      20.8384      0.00000
     26      22.6107      0.00000
     27      22.9195      0.00000
     28      22.9195      0.00000
     29      22.9195      0.00000
     30      24.0198      0.00000
     31      24.0198      0.00000
     32      24.0198      0.00000
     33      28.5153      0.00000
     34      28.5153      0.00000
     35      28.5153      0.00000
     36      28.9762      0.00000
     37      28.9762      0.00000
     38      30.7558      0.00000
     39      30.7558      0.00000
     40      30.7558      0.00000
     41      35.1540      0.00000
     42      36.5641      0.00000
     43      36.5641      0.00000
     44      36.5641      0.00000
     45      36.6342      0.00000
     46      36.6342      0.00000
     47      36.6342      0.00000
     48      37.9149      0.00000
     49      37.9149      0.00000
     50      37.9149      0.00000
     51      38.3344      0.00000
     52      38.3344      0.00000
     53      43.5027      0.00000
     54      44.0884      0.00000
     55      44.0884      0.00000
     56      44.0884      0.00000
     57      45.0641      0.00000
     58      45.1184      0.00000
     59      45.1184      0.00000
     60      46.5037      0.00000
     61      46.5037      0.00000
     62      46.5037      0.00000
     63      46.8211      0.00000
     64      46.8211      0.00000

 k-point    54 :       0.5000    0.4000    0.4000
  band No.  band energies     occupation 
      1       1.3755      2.00000
      2       1.3755      2.00000
      3       3.0223      2.00000
      4       3.0223      2.00000
      5       3.0296      2.00000
      6       3.0296      2.00000
      7       4.6607      2.00000
      8       4.6607      2.02272
      9      15.6492      0.00000
     10      15.6492      0.00000
     11      15.6811      0.00000
     12      15.6811      0.00000
     13      16.5461      0.00000
     14      16.5461      0.00000
     15      17.0625      0.00000
     16      17.0625      0.00000
     17      17.9148      0.00000
     18      17.9148      0.00000
     19      18.7758      0.00000
     20      18.7758      0.00000
     21      19.1353      0.00000
     22      19.1353      0.00000
     23      19.5704      0.00000
     24      19.5704      0.00000
     25      21.6687      0.00000
     26      21.6687      0.00000
     27      22.6721      0.00000
     28      22.6721      0.00000
     29      22.7458      0.00000
     30      22.7458      0.00000
     31      23.5373      0.00000
     32      23.5373      0.00000
     33      28.8558      0.00000
     34      28.8558      0.00000
     35      29.6229      0.00000
     36      29.6229      0.00000
     37      30.2651      0.00000
     38      30.2651      0.00000
     39      30.4218      0.00000
     40      30.4218      0.00000
     41      36.1619      0.00000
     42      36.1619      0.00000
     43      36.2957      0.00000
     44      36.2957      0.00000
     45      36.6201      0.00000
     46      36.6201      0.00000
     47      36.8190      0.00000
     48      36.8190      0.00000
     49      37.8045      0.00000
     50      37.8045      0.00000
     51      37.9871      0.00000
     52      37.9871      0.00000
     53      43.5502      0.00000
     54      43.5502      0.00000
     55      43.6895      0.00000
     56      43.6895      0.00000
     57      45.7280      0.00000
     58      45.7280      0.00000
     59      45.8785      0.00000
     60      45.8785      0.00000
     61      47.1718      0.00000
     62      47.1718      0.00000
     63      47.1988      0.00000
     64      47.1988      0.00000

 k-point    55 :       0.5000    0.5000    0.4000
  band No.  band energies     occupation 
      1       2.1205      2.00000
      2       2.1205      2.00000
      3       2.1205      2.00000
      4       2.1205      2.00000
      5       3.7638      2.00000
      6       3.7638      2.00000
      7       3.7638      2.00000
      8       3.7638      2.00000
      9      16.2716      0.00000
     10      16.2716      0.00000
     11      16.2716      0.00000
     12      16.2716      0.00000
     13      17.1890      0.00000
     14      17.1890      0.00000
     15      17.1890      0.00000
     16      17.1890      0.00000
     17      18.5676      0.00000
     18      18.5676      0.00000
     19      18.5676      0.00000
     20      18.5676      0.00000
     21      18.7887      0.00000
     22      18.7887      0.00000
     23      18.7887      0.00000
     24      18.7887      0.00000
     25      21.6335      0.00000
     26      21.6335      0.00000
     27      21.6335      0.00000
     28      21.6335      0.00000
     29      22.6258      0.00000
     30      22.6258      0.00000
     31      22.6258      0.00000
     32      22.6258      0.00000
     33      29.9390      0.00000
     34      29.9390      0.00000
     35      29.9390      0.00000
     36      29.9390      0.00000
     37      30.4461      0.00000
     38      30.4461      0.00000
     39      30.4461      0.00000
     40      30.4461      0.00000
     41      36.0567      0.00000
     42      36.0567      0.00000
     43      36.0567      0.00000
     44      36.0567      0.00000
     45      37.0134      0.00000
     46      37.0134      0.00000
     47      37.0134      0.00000
     48      37.0134      0.00000
     49      37.1788      0.00000
     50      37.1788      0.00000
     51      37.1788      0.00000
     52      37.1788      0.00000
     53      43.1671      0.00000
     54      43.1671      0.00000
     55      43.1671      0.00000
     56      43.1671      0.00000
     57      46.6668      0.00000
     58      46.6668      0.00000
     59      46.6668      0.00000
     60      46.6668      0.00000
     61      47.3546      0.00000
     62      47.3546      0.00000
     63      47.3546      0.00000
     64      47.3546      0.00000

 k-point    56 :       0.5000    0.5000    0.5000
  band No.  band energies     occupation 
      1       2.8539      2.00000
      2       2.8539      2.00000
      3       2.8539      2.00000
      4       2.8539      2.00000
      5       2.8705      2.00000
      6       2.8705      2.00000
      7       2.8705      2.00000
      8       2.8705      2.00000
      9      17.6381      0.00000
     10      17.6381      0.00000
     11      17.6381      0.00000
     12      17.6381      0.00000
     13      17.6381      0.00000
     14      17.6381      0.00000
     15      17.6381      0.00000
     16      17.6381      0.00000
     17      18.1895      0.00000
     18      18.1895      0.00000
     19      18.1895      0.00000
     20      18.1895      0.00000
     21      18.1895      0.00000
     22      18.1895      0.00000
     23      18.1895      0.00000
     24      18.1895      0.00000
     25      21.3160      0.00000
     26      21.3160      0.00000
     27      21.3160      0.00000
     28      21.3160      0.00000
     29      21.6974      0.00000
     30      21.6974      0.00000
     31      21.6974      0.00000
     32      21.6974      0.00000
     33      30.6815      0.00000
     34      30.6815      0.00000
     35      30.6815      0.00000
     36      30.6815      0.00000
     37      30.6815      0.00000
     38      30.6815      0.00000
     39      30.6815      0.00000
     40      30.6815      0.00000
     41      36.3084      0.00000
     42      36.3084      0.00000
     43      36.3084      0.00000
     44      36.3084      0.00000
     45      36.3084      0.00000
     46      36.3084      0.00000
     47      36.3084      0.00000
     48      36.3084      0.00000
     49      36.8906      0.00000
     50      36.8906      0.00000
     51      36.8906      0.00000
     52      36.8906      0.00000
     53      42.6373      0.00000
     54      42.6373      0.00000
     55      42.6373      0.00000
     56      42.6373      0.00000
     57      47.5999      0.00000
     58      47.5999      0.00000
     59      47.5999      0.00000
     60      47.5999      0.00000
     61      48.5500      0.00000
     62      48.5500      0.00000
     63      48.5500      0.00000
     64      48.5500      0.00000


--------------------------------------------------------------------------------------------------------


 soft charge-density along one line, spin component           1
         0         1         2         3         4         5         6         7         8         9
 total charge-density along one line
 
 pseudopotential strength for first ion, spin component:           1
  8.472  14.441  -0.000  -0.000   0.000  -0.000  -0.000  -0.000
 14.441  24.615  -0.000  -0.000   0.000  -0.000  -0.000  -0.000
 -0.000  -0.000   1.984   0.000   0.000   5.727   0.000   0.000
 -0.000  -0.000   0.000   1.984   0.000   0.000   5.727   0.000
  0.000   0.000   0.000   0.000   1.984   0.000   0.000   5.727
 -0.000  -0.000   5.727   0.000   0.000  16.442   0.000   0.000
 -0.000  -0.000   0.000   5.727   0.000   0.000  16.442   0.000
 -0.000  -0.000   0.000   0.000   5.727   0.000   0.000  16.442
 total augmentation occupancy for first ion, spin component:           1
  2.999  -0.669   0.000   0.000   0.000   0.000  -0.000  -0.000
 -0.669   0.222  -0.000   0.000   0.000   0.000   0.000   0.000
  0.000  -0.000   0.982   0.000   0.000  -0.060  -0.000  -0.000
  0.000   0.000   0.000   0.982   0.000  -0.000  -0.060  -0.000
  0.000   0.000   0.000   0.000   0.982  -0.000  -0.000  -0.060
  0.000   0.000  -0.060  -0.000  -0.000   0.004   0.000   0.000
 -0.000   0.000  -0.000  -0.060  -0.000   0.000   0.004   0.000
 -0.000   0.000  -0.000  -0.000  -0.060   0.000   0.000   0.004


------------------------ aborting loop because EDIFF is reached ----------------------------------------


    CHARGE:  cpu time      0.0248: real time      0.0250
    FORLOC:  cpu time      0.0004: real time      0.0006
    FORNL :  cpu time      0.0298: real time      0.0304
    STRESS:  cpu time      0.4618: real time      0.4676
    FORCOR:  cpu time      0.0038: real time      0.0039
    FORHAR:  cpu time      0.0011: real time      0.0012
    MIXING:  cpu time      0.0004: real time      0.0004
    OFIELD:  cpu time      0.0004: real time      0.0004

  FORCE on cell =-STRESS in cart. coord.  units (eV):
  Direction    XX          YY          ZZ          XY          YZ          ZX
  --------------------------------------------------------------------------------------
  Alpha Z    -0.74640    -0.74640    -0.74640
  Ewald     -95.21886   -95.21886   -95.21886    -0.00000     0.00000     0.00000
  Hartree     0.13139     0.13139     0.13139    -0.00000    -0.00000    -0.00000
  E(xc)     -33.36039   -33.36039   -33.36039     0.00000     0.00000     0.00000
  Local      -0.18273    -0.18273    -0.18273     0.00000     0.00000     0.00000
  n-local    73.45090    74.14030    75.55484     0.07066     0.62191     0.22943
  augment    -4.36374    -4.36374    -4.36374     0.00000     0.00000     0.00000
  Kinetic    54.39744    56.06292    60.07106     1.39628    -7.79317    -1.38373
  Fock        0.00000     0.00000     0.00000     0.00000     0.00000     0.00000
  -------------------------------------------------------------------------------------
  Total      -2.51491    -2.51491    -2.51491    -0.00000    -0.00000    -0.00000
  in kB     -55.96294   -55.96294   -55.96294    -0.00000    -0.00000    -0.00000
  external pressure =      -55.96 kB  Pullay stress =        0.00 kB


 VOLUME and BASIS-vectors are now :
 -----------------------------------------------------------------------------
  energy-cutoff  :      520.00
  volume of cell :       72.00
      direct lattice vectors                 reciprocal lattice vectors
     4.160167646  0.000000000  0.000000000     0.240374928 -0.000000000  0.000000000
     0.000000000  4.160167646  0.000000000     0.000000000  0.240374928  0.000000000
     0.000000000  0.000000000  4.160167646    -0.000000000 -0.000000000  0.240374928

  length of vectors
     4.160167646  4.160167646  4.160167646     0.240374928  0.240374928  0.240374928


 FORCES acting on ions
    electron-ion (+dipol)            ewald-force                    non-local-force                 convergence-correction
 -----------------------------------------------------------------------------------------------
   0.164E-14 0.969E-15 0.963E-15   -.126E-14 0.268E-15 -.557E-15   0.897E-20 0.931E-19 -.503E-20   0.172E-16 -.114E-14 -.923E-16
   0.140E-14 -.132E-14 -.101E-14   -.306E-14 -.189E-15 0.306E-15   0.781E-20 -.333E-19 -.163E-19   0.185E-16 0.113E-14 0.950E-16
   -.264E-14 0.158E-14 -.431E-13   0.300E-14 0.231E-15 0.316E-15   0.371E-19 0.251E-20 -.421E-19   -.321E-16 -.823E-15 0.961E-16
   -.304E-14 -.638E-15 -.187E-14   0.124E-14 -.217E-15 -.875E-16   -.895E-20 0.211E-19 -.221E-19   -.247E-16 0.836E-15 -.988E-16
 -----------------------------------------------------------------------------------------------
   -.264E-14 0.590E-15 -.450E-13   -.899E-16 0.919E-16 -.234E-16   0.450E-19 0.834E-19 -.856E-19   -.211E-16 0.105E-16 -.317E-20
 
 
 POSITION                                       TOTAL-FORCE (eV/Angst)
 -----------------------------------------------------------------------------------
      0.00000      0.00000      0.00000         0.000000      0.000000     -0.000000
      0.00000      2.08008      2.08008         0.000000     -0.000000      0.000000
      2.08008      0.00000      2.08008        -0.000000      0.000000     -0.000000
      2.08008      2.08008      0.00000        -0.000000      0.000000      0.000000
 -----------------------------------------------------------------------------------
    total drift:                               -0.000000      0.000000     -0.000000


--------------------------------------------------------------------------------------------------------



  FREE ENERGIE OF THE ION-ELECTRON SYSTEM (eV)
  ---------------------------------------------------
  free  energy   TOTEN  =       -14.86356671 eV

  energy  without entropy=      -14.86356671  energy(sigma->0) =      -14.86356671
 


--------------------------------------------------------------------------------------------------------


    POTLOK:  cpu time      0.0070: real time      0.0072


--------------------------------------------------------------------------------------------------------


     LOOP+:  cpu time     60.9000: real time     61.4674
 -----------------------------------------------------------------------------
|                                                                             |
|           W    W    AA    RRRRR   N    N  II  N    N   GGGG   !!!           |
|           W    W   A  A   R    R  NN   N  II  NN   N  G    G  !!!           |
|           W    W  A    A  R    R  N N  N  II  N N  N  G       !!!           |
|           W WW W  AAAAAA  RRRRR   N  N N  II  N  N N  G  GGG   !            |
|           WW  WW  A    A  R   R   N   NN  II  N   NN  G    G                |
|           W    W  A    A  R    R  N    N  II  N    N   GGGG   !!!           |
|                                                                             |
|     Tetrahedron method does not include variations of the Fermi             |
|     occupations, so forces and stress will be inaccurate. We suggest        |
|     using a different smearing scheme ISMEAR = 1 or 2 for metals in         |
|     relaxations.                                                            |
|                                                                             |
 -----------------------------------------------------------------------------

    4ORBIT:  cpu time      0.0000: real time      0.0000
 BZINTS: Fermi energy:    7.082765;   12.000000 electrons
         Band energy: 0.351754E+02;  BLOECHL correction:   -0.236391

 total amount of memory used by VASP MPI-rank0    40910. kBytes
=======================================================================

   base      :      30000. kBytes
   nonl-proj :       7237. kBytes
   fftplans  :        299. kBytes
   grid      :       1527. kBytes
   one-center:         12. kBytes
   wavefun   :       1835. kBytes
 
  
  
 General timing and accounting informations for this job:
 ========================================================
  
                  Total CPU time used (sec):       63.935
                            User time (sec):       61.841
                          System time (sec):        2.093
                         Elapsed time (sec):       66.748
  
                   Maximum memory used (kb):      716976.
                   Average memory used (kb):          N/A
  
                          Minor page faults:       151641
                          Major page faults:          129
                 Voluntary context switches:         4816
