       N       E                     dE             d eps       ncg     rms          rms(c)
DAV:   1     0.173629967694E+04    0.17363E+04   -0.91804E+04 32256   0.239E+03
DAV:   2     0.100622117562E+02   -0.17262E+04   -0.16963E+04 32384   0.602E+02
DAV:   3    -0.102616691609E+03   -0.11268E+03   -0.11149E+03 40576   0.159E+02
DAV:   4    -0.105072300423E+03   -0.24556E+01   -0.24533E+01 32672   0.250E+01
DAV:   5    -0.105127123000E+03   -0.54823E-01   -0.54821E-01 41408   0.379E+00    0.380E+01
DAV:   6    -0.109976174494E+03   -0.48491E+01   -0.22910E+02 37568   0.864E+01    0.640E+01
DAV:   7    -0.111571777272E+03   -0.15956E+01   -0.46329E+02 43328   0.816E+01    0.583E+01
DAV:   8    -0.956528346086E+02    0.15919E+02   -0.80254E+01 44000   0.568E+01    0.251E+01
DAV:   9    -0.104816731228E+03   -0.91639E+01   -0.18679E+02 44032   0.433E+01    0.508E+01
DAV:  10    -0.934916819018E+02    0.11325E+02   -0.57613E+01 45472   0.304E+01    0.198E+01
DAV:  11    -0.932206472035E+02    0.27103E+00   -0.23310E+01 44928   0.178E+01    0.143E+01
DAV:  12    -0.932887879251E+02   -0.68141E-01   -0.10980E+01 44224   0.124E+01    0.117E+01
DAV:  13    -0.931029213596E+02    0.18587E+00   -0.38341E+00 44800   0.801E+00    0.827E+00
DAV:  14    -0.933352986409E+02   -0.23238E+00   -0.19590E+00 41344   0.783E+00    0.731E+00
DAV:  15    -0.934060265981E+02   -0.70728E-01   -0.36537E+00 42880   0.100E+01    0.633E+00
DAV:  16    -0.933206515516E+02    0.85375E-01   -0.15397E+00 42688   0.614E+00    0.253E+00
DAV:  17    -0.933555406282E+02   -0.34889E-01   -0.24731E-01 39776   0.243E+00    0.212E+00
DAV:  18    -0.933644214738E+02   -0.88808E-02   -0.57242E-02 42144   0.142E+00    0.127E+00
DAV:  19    -0.933720577083E+02   -0.76362E-02   -0.33378E-02 44032   0.825E-01    0.918E-01
DAV:  20    -0.933732212103E+02   -0.11635E-02   -0.49616E-03 39168   0.441E-01    0.598E-01
DAV:  21    -0.933736452222E+02   -0.42401E-03   -0.55772E-03 44608   0.358E-01    0.239E-01
DAV:  22    -0.933740708886E+02   -0.42567E-03   -0.14516E-03 40448   0.169E-01    0.118E-01
DAV:  23    -0.933741647311E+02   -0.93842E-04   -0.37230E-04 40512   0.107E-01    0.765E-02
DAV:  24    -0.933741874174E+02   -0.22686E-04   -0.11294E-04 39968   0.543E-02    0.586E-02
DAV:  25    -0.933741962336E+02   -0.88163E-05   -0.26617E-05 41408   0.350E-02    0.380E-02
DAV:  26    -0.933741998121E+02   -0.35785E-05   -0.23135E-05 43616   0.307E-02    0.144E-02
DAV:  27    -0.933742018765E+02   -0.20644E-05   -0.44830E-06 31040   0.112E-02    0.855E-03
DAV:  28    -0.933742012565E+02    0.61998E-06   -0.15683E-06 18464   0.676E-03
   1 F= -.93374201E+02 E0= -.93374201E+02  d E =0.000000E+00  mag=     2.6394
