 vasp.6.4.3 19Mar24 (build Mar 26 2024 14:05:37) complex                        
  
 executed on             LinuxIFC date 2024.12.16  13:45:35
 running  128 mpi-ranks, on    1 nodes
 distrk:  each k-point on   32 cores,    4 groups
 distr:  one band on NCORE=   1 cores,   32 groups


--------------------------------------------------------------------------------------------------------


 INCAR:
   ALGO = Normal
   EDIFF = 1e-06
   EDIFFG = -0.01
   ENCUT = 520
   GGA = Pe
   IBRION = -1
   ISIF = 4
   ISMEAR = -5
   ISPIN = 2
   KPAR = 4
   LCHARG = True
   LORBIT = 11
   LREAL = False
   LWAVE = False
   MAGMOM = 1*-2.598 1*2.583 1*2.58 2*-2.632 1*2.771 1*-2.598 1*2.583 1*2.58 2*-0.087 1*0.239
   NELM = 200
   NSW = 0
   PREC = Accurate
   SIGMA = 0.2

 POTCAR:    PAW_PBE Fe_pv 02Aug2007               
 POTCAR:    PAW_PBE Pt 04Feb2005                  
 -----------------------------------------------------------------------------
|                                                                             |
|           W    W    AA    RRRRR   N    N  II  N    N   GGGG   !!!           |
|           W    W   A  A   R    R  NN   N  II  NN   N  G    G  !!!           |
|           W    W  A    A  R    R  N N  N  II  N N  N  G       !!!           |
|           W WW W  AAAAAA  RRRRR   N  N N  II  N  N N  G  GGG   !            |
|           WW  WW  A    A  R   R   N   NN  II  N   NN  G    G                |
|           W    W  A    A  R    R  N    N  II  N    N   GGGG   !!!           |
|                                                                             |
|     For optimal performance we recommend to set                             |
|       NCORE = 2 up to number-of-cores-per-socket                            |
|     NCORE specifies how many cores store one orbital (NPAR=cpu/NCORE).      |
|     This setting can greatly improve the performance of VASP for DFT.       |
|     The default, NCORE=1 might be grossly inefficient on modern             |
|     multi-core architectures or massively parallel machines. Do your        |
|     own testing! More info at https://www.vasp.at/wiki/index.php/NCORE      |
|     Unfortunately you need to use the default for GW and RPA                |
|     calculations (for HF NCORE is supported but not extensively tested      |
|     yet).                                                                   |
|                                                                             |
 -----------------------------------------------------------------------------

 POTCAR:    PAW_PBE Fe_pv 02Aug2007               
   SHA256 =  5d22e414b1f82158bf2c7ecb8b97b28fd0923e48cadc1c3bf74d524558f5dd32 Fe_pv/POTCAR          
   COPYR  = (c) Copyright 02Aug2007 Georg Kresse                                                    
   COPYR  = This file is part of the software VASP. Any use, copying, and all other rights are regul
   COPYR  = If you do not have a valid VASP license, you may not use, copy or distribute this file. 
   VRHFIN =Fe:  3pd7s1                                                                              
   LEXCH  = PE                                                                                      
   EATOM  =  2457.4239 eV,  180.6156 Ry                                                             
                                                                                                    
   TITEL  = PAW_PBE Fe_pv 02Aug2007                                                                 
   LULTRA =        F    use ultrasoft PP ?                                                          
   IUNSCR =        1    unscreen: 0-lin 1-nonlin 2-no                                               
   RPACOR =    1.750    partial core radius                                                         
   POMASS =   55.847; ZVAL   =   14.000    mass and valenz                                          
   RCORE  =    2.200    outmost cutoff radius                                                       
   RWIGS  =    2.200; RWIGS  =    1.164    wigner-seitz radius (au A)                               
   ENMAX  =  293.238; ENMIN  =  219.928 eV                                                          
   ICORE  =        3    local potential                                                             
   LCOR   =        T    correct aug charges                                                         
   LPAW   =        T    paw PP                                                                      
   EAUG   =  578.342                                                                                
   DEXC   =    0.000                                                                                
   RMAX   =    2.249    core radius for proj-oper                                                   
   RAUG   =    1.300    factor for augmentation sphere                                              
   RDEP   =    2.296    radius for radial grids                                                     
   RDEPT  =    1.766    core radius for aug-charge                                                  
                                                                                                    
   Atomic configuration                                                                             
    8 entries                                                                                       
     n  l   j            E        occ.                                                              
     1  0  0.50     -6993.8440   2.0000                                                             
     2  0  0.50      -814.6047   2.0000                                                             
     2  1  1.50      -693.3689   6.0000                                                             
     3  0  0.50       -89.4732   2.0000                                                             
     3  1  1.50       -55.6373   6.0000                                                             
     3  2  2.50        -3.8151   7.0000                                                             
     4  0  0.50        -4.2551   1.0000                                                             
     4  3  2.50        -1.3606   0.0000                                                             
   Description                                                                                      
     l       E           TYP  RCUT    TYP  RCUT                                                     
     1    -55.6372668     23  2.000                                                                 
     1     -5.4423304     23  2.000                                                                 
     2     -3.8151096     23  2.200                                                                 
     2     -5.1756922     23  2.200                                                                 
     0     -4.2550951     23  2.200                                                                 
     0     27.2116520     23  2.200                                                                 
     3     -1.3605826     23  2.200                                                                 
  local pseudopotential read in
  partial core-charges read in
  partial kinetic energy density read in
  atomic valenz-charges read in
  non local Contribution for L=           1  read in
    real space projection operators read in
  non local Contribution for L=           1  read in
    real space projection operators read in
  non local Contribution for L=           2  read in
    real space projection operators read in
  non local Contribution for L=           2  read in
    real space projection operators read in
  non local Contribution for L=           0  read in
    real space projection operators read in
  non local Contribution for L=           0  read in
    real space projection operators read in
    PAW grid and wavefunctions read in
 
   number of l-projection  operators is LMAX  =           6
   number of lm-projection operators is LMMAX =          18
 
 POTCAR:    PAW_PBE Pt 04Feb2005                  
   SHA256 =  3ed90460adef76debcff1cfb73ee1349b515b1a3db03439735b44de3a8db7dc8 Pt/POTCAR             
   COPYR  = (c) Copyright 04Feb2005 Georg Kresse                                                    
   COPYR  = This file is part of the software VASP. Any use, copying, and all other rights are regul
   COPYR  = If you do not have a valid VASP license, you may not use, copy or distribute this file. 
   VRHFIN =Pt: s1d9                                                                                 
   LEXCH  = PE                                                                                      
   EATOM  =   729.1176 eV,   53.5886 Ry                                                             
                                                                                                    
   TITEL  = PAW_PBE Pt 04Feb2005                                                                    
   LULTRA =        F    use ultrasoft PP ?                                                          
   IUNSCR =        1    unscreen: 0-lin 1-nonlin 2-no                                               
   RPACOR =    2.330    partial core radius                                                         
   POMASS =  195.080; ZVAL   =   10.000    mass and valenz                                          
   RCORE  =    2.600    outmost cutoff radius                                                       
   RWIGS  =    2.750; RWIGS  =    1.455    wigner-seitz radius (au A)                               
   ENMAX  =  230.283; ENMIN  =  172.712 eV                                                          
   ICORE  =        3    local potential                                                             
   LCOR   =        T    correct aug charges                                                         
   LPAW   =        T    paw PP                                                                      
   EAUG   =  358.966                                                                                
   DEXC   =    0.000                                                                                
   RMAX   =    2.658    core radius for proj-oper                                                   
   RAUG   =    1.300    factor for augmentation sphere                                              
   RDEP   =    2.761    radius for radial grids                                                     
   RDEPT  =    2.203    core radius for aug-charge                                                  
                                                                                                    
   Atomic configuration                                                                             
   16 entries                                                                                       
     n  l   j            E        occ.                                                              
     1  0  0.50    -78401.1885   2.0000                                                             
     2  0  0.50    -13770.7750   2.0000                                                             
     2  1  1.50    -11931.0468   6.0000                                                             
     3  0  0.50     -3234.7234   2.0000                                                             
     3  1  1.50     -2699.2216   6.0000                                                             
     3  2  2.50     -2119.5714  10.0000                                                             
     4  0  0.50      -695.1528   2.0000                                                             
     4  1  1.50      -519.6034   6.0000                                                             
     4  2  2.50      -306.6786  10.0000                                                             
     4  3  3.50       -70.1041  14.0000                                                             
     5  0  0.50      -101.7747   2.0000                                                             
     5  1  1.50       -55.9873   6.0000                                                             
     5  2  2.50        -6.1423   9.0000                                                             
     6  0  0.50        -5.6573   1.0000                                                             
     6  1  1.50        -6.8029   0.0000                                                             
     5  3  2.50        -1.3606   0.0000                                                             
   Description                                                                                      
     l       E           TYP  RCUT    TYP  RCUT                                                     
     2     -6.1423404     23  2.500                                                                 
     2     -7.5029230     23  2.500                                                                 
     0     -5.6573207     23  2.500                                                                 
     0      0.7416693     23  2.500                                                                 
     1     -2.7211652     23  2.600                                                                 
     1     20.4087390     23  2.600                                                                 
     3     -1.3605826     23  2.500                                                                 
  local pseudopotential read in
  partial core-charges read in
  partial kinetic energy density read in
  atomic valenz-charges read in
  non local Contribution for L=           2  read in
    real space projection operators read in
  non local Contribution for L=           2  read in
    real space projection operators read in
  non local Contribution for L=           0  read in
    real space projection operators read in
  non local Contribution for L=           0  read in
    real space projection operators read in
  non local Contribution for L=           1  read in
    real space projection operators read in
  non local Contribution for L=           1  read in
    real space projection operators read in
    PAW grid and wavefunctions read in
 
   number of l-projection  operators is LMAX  =           6
   number of lm-projection operators is LMMAX =          18
 
  PAW_PBE Fe_pv 02Aug2007               :
 energy of atom  1       EATOM=-2457.4239
 kinetic energy error for atom=    0.0062 (will be added to EATOM!!)
  PAW_PBE Pt 04Feb2005                  :
 energy of atom  2       EATOM= -729.1176
 kinetic energy error for atom=    0.0032 (will be added to EATOM!!)
 
 
 POSCAR: Fe9 Pt3
  positions in direct lattice
  velocities in cartesian coordinates


 exchange-correlation table for PE
   RHO(1)=    0.500       N(1)  =     2000
   RHO(2)=  100.500       N(2)  =     4000
 


--------------------------------------------------------------------------------------------------------


 ion  position               nearest neighbor table
   1  0.000  0.500  0.167-   5 2.60   5 2.60   4 2.60   4 2.60   7 2.63   7 2.63   7 2.63   7 2.63
                            11 2.67  11 2.67  10 2.67  10 2.67
   2  0.000  0.500  0.500-  11 2.63  11 2.63   8 2.63   8 2.63   8 2.63   8 2.63  12 2.66  12 2.66
                             6 2.66   6 2.66   5 2.71   5 2.71
   3  0.000  0.500  0.834-  10 2.63  10 2.63   9 2.63   9 2.63   9 2.63   9 2.63   6 2.66   6 2.66
                            12 2.66  12 2.66   4 2.71   4 2.71
   4  0.500  0.500  0.007-   1 2.60   7 2.60   7 2.60   1 2.60  10 2.63  10 2.63  10 2.63  10 2.63
                             9 2.71   3 2.71   9 2.71   3 2.71
   5  0.500  0.500  0.326-   1 2.60   7 2.60   7 2.60   1 2.60  11 2.63  11 2.63  11 2.63  11 2.63
                             8 2.71   2 2.71   8 2.71   2 2.71
   6  0.500  0.500  0.667-  12 2.63  12 2.63  12 2.63  12 2.63   9 2.66   3 2.66   3 2.66   9 2.66
                             2 2.66   8 2.66   2 2.66   8 2.66
   7  0.500  0.000  0.167-   5 2.60   5 2.60   4 2.60   4 2.60   1 2.63   1 2.63   1 2.63   1 2.63
                            11 2.67  11 2.67  10 2.67  10 2.67
   8  0.500  0.000  0.500-  11 2.63  11 2.63   2 2.63   2 2.63   2 2.63   2 2.63  12 2.66  12 2.66
                             6 2.66   6 2.66   5 2.71   5 2.71
   9  0.500  0.000  0.834-  10 2.63  10 2.63   3 2.63   3 2.63   3 2.63   3 2.63   6 2.66   6 2.66
                            12 2.66  12 2.66   4 2.71   4 2.71
  10  0.000  0.000  0.997-   3 2.63   9 2.63   3 2.63   9 2.63   4 2.63   4 2.63   4 2.63   4 2.63
                             1 2.67   7 2.67   7 2.67   1 2.67
  11  0.000  0.000  0.336-   2 2.63   8 2.63   2 2.63   8 2.63   5 2.63   5 2.63   5 2.63   5 2.63
                             1 2.67   7 2.67   7 2.67   1 2.67
  12  0.000  0.000  0.667-   6 2.63   6 2.63   6 2.63   6 2.63   3 2.66   9 2.66   9 2.66   3 2.66
                             2 2.66   8 2.66   8 2.66   2 2.66
 
  LATTYP: Found a simple tetragonal cell.
 ALAT       =     3.7198352749
 C/A-ratio  =     3.0502014764
  
  Lattice vectors:
  
 A1 = (   3.7198352749,   0.0000000000,   0.0000000000)
 A2 = (   0.0000000000,   3.7198352749,   0.0000000000)
 A3 = (   0.0000000000,   0.0000000000,  11.3462470474)


Analysis of symmetry for initial positions (statically):
=====================================================================
 Subroutine PRICEL returns:
 Original cell was already a primitive cell.
 

 Routine SETGRP: Setting up the symmetry group for a 
 simple tetragonal supercell.


 Subroutine GETGRP returns: Found  8 space group operations
 (whereof  8 operations were pure point group operations)
 out of a pool of 16 trial point group operations.


The static configuration has the point symmetry C_4v.


Analysis of symmetry for dynamics (positions and initial velocities):
=====================================================================
 Subroutine PRICEL returns:
 Original cell was already a primitive cell.
 

 Routine SETGRP: Setting up the symmetry group for a 
 simple tetragonal supercell.


 Subroutine GETGRP returns: Found  8 space group operations
 (whereof  8 operations were pure point group operations)
 out of a pool of 16 trial point group operations.


The dynamic configuration has the point symmetry C_4v.


Analysis of structural, dynamic, and magnetic symmetry:
=====================================================================
 Subroutine PRICEL returns:
 Original cell was already a primitive cell.
 

 Routine SETGRP: Setting up the symmetry group for a 
 simple tetragonal supercell.


 Subroutine GETGRP returns: Found  8 space group operations
 (whereof  8 operations were pure point group operations)
 out of a pool of 16 trial point group operations.


The overall configuration has the point symmetry C_4v.


 Subroutine INISYM returns: Found  8 space group operations
 (whereof  8 operations are pure point group operations),
 and found     1 'primitive' translations


----------------------------------------------------------------------------------------

                                     Primitive cell                                     

  volume of cell :     157.0000

  direct lattice vectors                    reciprocal lattice vectors
     3.719835275  0.000000000  0.000000000     0.268829108  0.000000000  0.000000000
     0.000000000  3.719835275  0.000000000     0.000000000  0.268829108  0.000000000
     0.000000000  0.000000000 11.346247047     0.000000000  0.000000000  0.088134869

  length of vectors
     3.719835275  3.719835275 11.346247047     0.268829108  0.268829108  0.088134869

  position of ions in fractional coordinates (direct lattice)
     0.000000000  0.500000000  0.166649211
     0.000000000  0.500000000  0.499523102
     0.000000000  0.500000000  0.833832699
     0.500000000  0.500000000  0.007023253
     0.500000000  0.500000000  0.326162652
     0.500000000  0.500000000  0.666822381
     0.500000000  0.000000000  0.166649211
     0.500000000  0.000000000  0.499523102
     0.500000000  0.000000000  0.833832699
     0.000000000  0.000000000  0.997423293
     0.000000000  0.000000000  0.335869085
     0.000000000  0.000000000  0.666689313

  ion indices of the primitive-cell ions
   primitive index   ion index
                 1           1
                 2           2
                 3           3
                 4           4
                 5           5
                 6           6
                 7           7
                 8           8
                 9           9
                10          10
                11          11
                12          12

----------------------------------------------------------------------------------------

 
 
 KPOINTS: pymatgen with grid density = 8800 / numb

Automatic generation of k-mesh.
 Grid dimensions read from file:
 generate k-points for:   13   13    4

 Generating k-lattice:

  Cartesian coordinates                     Fractional coordinates (reciprocal lattice)
     0.020679162  0.000000000  0.000000000     0.076923077  0.000000000  0.000000000
     0.000000000  0.020679162  0.000000000     0.000000000  0.076923077  0.000000000
     0.000000000  0.000000000  0.022033717     0.000000000  0.000000000  0.250000000

  Length of vectors
     0.020679162  0.020679162  0.022033717

  Shift w.r.t. Gamma in fractional coordinates (k-lattice)
     0.000000000  0.000000000  0.000000000

 TETIRR: Found   1010 inequivalent tetrahedra from     4056
 
 Subroutine IBZKPT returns following result:
 ===========================================
 
 Found     84 irreducible k-points:
 
 Following reciprocal coordinates:
            Coordinates               Weight
  0.000000  0.000000  0.000000      1.000000
  0.076923  0.000000  0.000000      4.000000
  0.153846  0.000000  0.000000      4.000000
  0.230769  0.000000  0.000000      4.000000
  0.307692  0.000000  0.000000      4.000000
  0.384615  0.000000  0.000000      4.000000
  0.461538  0.000000  0.000000      4.000000
  0.076923  0.076923  0.000000      4.000000
  0.153846  0.076923  0.000000      8.000000
  0.230769  0.076923  0.000000      8.000000
  0.307692  0.076923  0.000000      8.000000
  0.384615  0.076923  0.000000      8.000000
  0.461538  0.076923  0.000000      8.000000
  0.153846  0.153846  0.000000      4.000000
  0.230769  0.153846  0.000000      8.000000
  0.307692  0.153846  0.000000      8.000000
  0.384615  0.153846  0.000000      8.000000
  0.461538  0.153846  0.000000      8.000000
  0.230769  0.230769  0.000000      4.000000
  0.307692  0.230769  0.000000      8.000000
  0.384615  0.230769  0.000000      8.000000
  0.461538  0.230769  0.000000      8.000000
  0.307692  0.307692  0.000000      4.000000
  0.384615  0.307692  0.000000      8.000000
  0.461538  0.307692  0.000000      8.000000
  0.384615  0.384615  0.000000      4.000000
  0.461538  0.384615  0.000000      8.000000
  0.461538  0.461538  0.000000      4.000000
  0.000000  0.000000  0.250000      2.000000
  0.076923  0.000000  0.250000      8.000000
  0.153846  0.000000  0.250000      8.000000
  0.230769  0.000000  0.250000      8.000000
  0.307692  0.000000  0.250000      8.000000
  0.384615  0.000000  0.250000      8.000000
  0.461538  0.000000  0.250000      8.000000
  0.076923  0.076923  0.250000      8.000000
  0.153846  0.076923  0.250000     16.000000
  0.230769  0.076923  0.250000     16.000000
  0.307692  0.076923  0.250000     16.000000
  0.384615  0.076923  0.250000     16.000000
  0.461538  0.076923  0.250000     16.000000
  0.153846  0.153846  0.250000      8.000000
  0.230769  0.153846  0.250000     16.000000
  0.307692  0.153846  0.250000     16.000000
  0.384615  0.153846  0.250000     16.000000
  0.461538  0.153846  0.250000     16.000000
  0.230769  0.230769  0.250000      8.000000
  0.307692  0.230769  0.250000     16.000000
  0.384615  0.230769  0.250000     16.000000
  0.461538  0.230769  0.250000     16.000000
  0.307692  0.307692  0.250000      8.000000
  0.384615  0.307692  0.250000     16.000000
  0.461538  0.307692  0.250000     16.000000
  0.384615  0.384615  0.250000      8.000000
  0.461538  0.384615  0.250000     16.000000
  0.461538  0.461538  0.250000      8.000000
  0.000000  0.000000  0.500000      1.000000
  0.076923  0.000000  0.500000      4.000000
  0.153846  0.000000  0.500000      4.000000
  0.230769  0.000000  0.500000      4.000000
  0.307692  0.000000  0.500000      4.000000
  0.384615  0.000000  0.500000      4.000000
  0.461538  0.000000  0.500000      4.000000
  0.076923  0.076923  0.500000      4.000000
  0.153846  0.076923  0.500000      8.000000
  0.230769  0.076923  0.500000      8.000000
  0.307692  0.076923  0.500000      8.000000
  0.384615  0.076923  0.500000      8.000000
  0.461538  0.076923  0.500000      8.000000
  0.153846  0.153846  0.500000      4.000000
  0.230769  0.153846  0.500000      8.000000
  0.307692  0.153846  0.500000      8.000000
  0.384615  0.153846  0.500000      8.000000
  0.461538  0.153846  0.500000      8.000000
  0.230769  0.230769  0.500000      4.000000
  0.307692  0.230769  0.500000      8.000000
  0.384615  0.230769  0.500000      8.000000
  0.461538  0.230769  0.500000      8.000000
  0.307692  0.307692  0.500000      4.000000
  0.384615  0.307692  0.500000      8.000000
  0.461538  0.307692  0.500000      8.000000
  0.384615  0.384615  0.500000      4.000000
  0.461538  0.384615  0.500000      8.000000
  0.461538  0.461538  0.500000      4.000000
 
 Following cartesian coordinates:
            Coordinates               Weight
  0.000000  0.000000  0.000000      1.000000
  0.020679  0.000000  0.000000      4.000000
  0.041358  0.000000  0.000000      4.000000
  0.062037  0.000000  0.000000      4.000000
  0.082717  0.000000  0.000000      4.000000
  0.103396  0.000000  0.000000      4.000000
  0.124075  0.000000  0.000000      4.000000
  0.020679  0.020679  0.000000      4.000000
  0.041358  0.020679  0.000000      8.000000
  0.062037  0.020679  0.000000      8.000000
  0.082717  0.020679  0.000000      8.000000
  0.103396  0.020679  0.000000      8.000000
  0.124075  0.020679  0.000000      8.000000
  0.041358  0.041358  0.000000      4.000000
  0.062037  0.041358  0.000000      8.000000
  0.082717  0.041358  0.000000      8.000000
  0.103396  0.041358  0.000000      8.000000
  0.124075  0.041358  0.000000      8.000000
  0.062037  0.062037  0.000000      4.000000
  0.082717  0.062037  0.000000      8.000000
  0.103396  0.062037  0.000000      8.000000
  0.124075  0.062037  0.000000      8.000000
  0.082717  0.082717  0.000000      4.000000
  0.103396  0.082717  0.000000      8.000000
  0.124075  0.082717  0.000000      8.000000
  0.103396  0.103396  0.000000      4.000000
  0.124075  0.103396  0.000000      8.000000
  0.124075  0.124075  0.000000      4.000000
  0.000000  0.000000  0.022034      2.000000
  0.020679  0.000000  0.022034      8.000000
  0.041358  0.000000  0.022034      8.000000
  0.062037  0.000000  0.022034      8.000000
  0.082717  0.000000  0.022034      8.000000
  0.103396  0.000000  0.022034      8.000000
  0.124075  0.000000  0.022034      8.000000
  0.020679  0.020679  0.022034      8.000000
  0.041358  0.020679  0.022034     16.000000
  0.062037  0.020679  0.022034     16.000000
  0.082717  0.020679  0.022034     16.000000
  0.103396  0.020679  0.022034     16.000000
  0.124075  0.020679  0.022034     16.000000
  0.041358  0.041358  0.022034      8.000000
  0.062037  0.041358  0.022034     16.000000
  0.082717  0.041358  0.022034     16.000000
  0.103396  0.041358  0.022034     16.000000
  0.124075  0.041358  0.022034     16.000000
  0.062037  0.062037  0.022034      8.000000
  0.082717  0.062037  0.022034     16.000000
  0.103396  0.062037  0.022034     16.000000
  0.124075  0.062037  0.022034     16.000000
  0.082717  0.082717  0.022034      8.000000
  0.103396  0.082717  0.022034     16.000000
  0.124075  0.082717  0.022034     16.000000
  0.103396  0.103396  0.022034      8.000000
  0.124075  0.103396  0.022034     16.000000
  0.124075  0.124075  0.022034      8.000000
  0.000000  0.000000  0.044067      1.000000
  0.020679  0.000000  0.044067      4.000000
  0.041358  0.000000  0.044067      4.000000
  0.062037  0.000000  0.044067      4.000000
  0.082717  0.000000  0.044067      4.000000
  0.103396  0.000000  0.044067      4.000000
  0.124075  0.000000  0.044067      4.000000
  0.020679  0.020679  0.044067      4.000000
  0.041358  0.020679  0.044067      8.000000
  0.062037  0.020679  0.044067      8.000000
  0.082717  0.020679  0.044067      8.000000
  0.103396  0.020679  0.044067      8.000000
  0.124075  0.020679  0.044067      8.000000
  0.041358  0.041358  0.044067      4.000000
  0.062037  0.041358  0.044067      8.000000
  0.082717  0.041358  0.044067      8.000000
  0.103396  0.041358  0.044067      8.000000
  0.124075  0.041358  0.044067      8.000000
  0.062037  0.062037  0.044067      4.000000
  0.082717  0.062037  0.044067      8.000000
  0.103396  0.062037  0.044067      8.000000
  0.124075  0.062037  0.044067      8.000000
  0.082717  0.082717  0.044067      4.000000
  0.103396  0.082717  0.044067      8.000000
  0.124075  0.082717  0.044067      8.000000
  0.103396  0.103396  0.044067      4.000000
  0.124075  0.103396  0.044067      8.000000
  0.124075  0.124075  0.044067      4.000000
 


--------------------------------------------------------------------------------------------------------




 Dimension of arrays:
   k-points           NKPTS =     84   k-points in BZ     NKDIM =     84   number of bands    NBANDS=     96
   number of dos      NEDOS =    301   number of ions     NIONS =     12
   non local maximal  LDIM  =      6   non local SUM 2l+1 LMDIM =     18
   total plane-waves  NPLWV =  65856
   max r-space proj   IRMAX =      1   max aug-charges    IRDMAX=  25602
   dimension x,y,z NGX =    28 NGY =   28 NGZ =   84
   dimension x,y,z NGXF=    56 NGYF=   56 NGZF=  168
   support grid    NGXF=    56 NGYF=   56 NGZF=  168
   ions per type =               9   3
   NGX,Y,Z   is equivalent  to a cutoff of  12.51, 12.51, 12.31 a.u.
   NGXF,Y,Z  is equivalent  to a cutoff of  25.03, 25.03, 24.62 a.u.

 SYSTEM =  unknown system                          
 POSCAR =  Fe9 Pt3                                 

 Startparameter for this run:
   NWRITE =      2    write-flag & timer
   PREC   = accura    normal or accurate (medium, high low for compatibility)
   ISTART =      0    job   : 0-new  1-cont  2-samecut
   ICHARG =      2    charge: 1-file 2-atom 10-const
   ISPIN  =      2    spin polarized calculation?
   LNONCOLLINEAR =      F non collinear calculations
   LSORBIT =      F    spin-orbit coupling
   INIWAV =      1    electr: 0-lowe 1-rand  2-diag
   LASPH  =      F    aspherical Exc in radial PAW
 Electronic Relaxation 1
   ENCUT  =  520.0 eV  38.22 Ry    6.18 a.u.   6.92  6.92 21.10*2*pi/ulx,y,z
   ENINI  =  520.0     initial cutoff
   ENAUG  =  578.3 eV  augmentation charge cutoff
   NELM   =    200;   NELMIN=  2; NELMDL=  0     # of ELM steps 
   EDIFF  = 0.1E-05   stopping-criterion for ELM
   LREAL  =      F    real-space projection
   NLSPLINE    = F    spline interpolate recip. space projectors
   LCOMPAT=      F    compatible to vasp.4.4
   GGA_COMPAT  = T    GGA compatible to vasp.4.4-vasp.4.6
   LMAXPAW     = -100 max onsite density
   LMAXMIX     =    2 max onsite mixed and CHGCAR
   VOSKOWN=      0    Vosko Wilk Nusair interpolation
   ROPT   =    0.00000   0.00000
 Ionic relaxation
   EDIFFG = -.1E-01   stopping-criterion for IOM
   NSW    =      0    number of steps for IOM
   NBLOCK =      1;   KBLOCK =      1    inner block; outer block 
   IBRION =     -1    ionic relax: 0-MD 1-quasi-New 2-CG
   NFREE  =      0    steps in history (QN), initial steepest desc. (CG)
   ISIF   =      4    stress and relaxation
   IWAVPR =     10    prediction:  0-non 1-charg 2-wave 3-comb
   ISYM   =      2    0-nonsym 1-usesym 2-fastsym
   LCORR  =      T    Harris-Foulkes like correction to forces

   POTIM  = 0.5000    time-step for ionic-motion
   TEIN   =    0.0    initial temperature
   TEBEG  =    0.0;   TEEND  =   0.0 temperature during run
   SMASS  =  -3.00    Nose mass-parameter (am)
   estimated Nose-frequenzy (Omega)   =  0.10E-29 period in steps = 0.13E+47 mass=  -0.316E-27a.u.
   SCALEE = 1.0000    scale energy and forces
   NPACO  =    256;   APACO  = 10.0  distance and # of slots for P.C.
   PSTRESS=    0.0 pullay stress

  Mass of Ions in am
   POMASS =  55.85195.08
  Ionic Valenz
   ZVAL   =  14.00 10.00
  Atomic Wigner-Seitz radii
   RWIGS  =  -1.00 -1.00
  virtual crystal weights 
   VCA    =   1.00  1.00
   NELECT =     156.0000    total number of electrons
   NUPDOWN=      -1.0000    fix difference up-down

 DOS related values:
   EMIN   =  10.00;   EMAX   =-10.00  energy-range for DOS
   EFERMI =   0.00;   METHOD = LEGACY      
   ISMEAR =    -5;   SIGMA  =   0.20  broadening in eV -4-tet -1-fermi 0-gaus

 Electronic relaxation 2 (details)
   IALGO  =     38    algorithm
   LDIAG  =      T    sub-space diagonalisation (order eigenvalues)
   LSUBROT=      F    optimize rotation matrix (better conditioning)
   TURBO    =      0    0=normal 1=particle mesh
   IRESTART =      0    0=no restart 2=restart with 2 vectors
   NREBOOT  =      0    no. of reboots
   NMIN     =      0    reboot dimension
   EREF     =   0.00    reference energy to select bands
   IMIX   =      4    mixing-type and parameters
     AMIX     =   0.40;   BMIX     =  1.00
     AMIX_MAG =   1.60;   BMIX_MAG =  1.00
     AMIN     =   0.10
     WC   =   100.;   INIMIX=   1;  MIXPRE=   1;  MAXMIX= -45

 Intra band minimization:
   WEIMIN = 0.0000     energy-eigenvalue tresh-hold
   EBREAK =  0.26E-08  absolut break condition
   DEPER  =   0.30     relativ break condition  

   TIME   =   0.40     timestep for ELM

  volume/ion in A,a.u.               =      13.08        88.29
  Fermi-wavevector in a.u.,A,eV,Ry     =   1.633615  3.087085 36.309857  2.668699
  Thomas-Fermi vector in A             =   2.725391
 
 Write flags
   LWAVE        =      F    write WAVECAR
   LDOWNSAMPLE  =      F    k-point downsampling of WAVECAR
   LCHARG       =      T    write CHGCAR
   LVTOT        =      F    write LOCPOT, total local potential
   LVHAR        =      F    write LOCPOT, Hartree potential only
   WRT_POTENTIAL= false  ! write potential to hdf5 file
   LELF         =      F    write electronic localiz. function (ELF)
   LORBIT       =     11    0 simple, 1 ext, 2 COOP (PROOUT), +10 PAW based schemes


 Dipole corrections
   LMONO      =      F    monopole corrections only (constant potential shift)
   LDIPOL     =      F    correct potential (dipole corrections)
   IDIPOL     =      0    1-x, 2-y, 3-z, 4-all directions 
   EPSILON    =  1.0000000 bulk dielectric constant
   LVACPOTAV  =      F  vacuum potentials using an averaging scheme for the charge density
   VACPOTFLAT =  0.1000000 required flatness to determine vacuum potential
 Exchange correlation treatment:
   GGA     = PE    functional components
   XC_C    = 1    coefficients multiplying the functional components
   LIBXC   =     F    Libxc                    
   VOSKOWN =     0    Vosko Wilk Nusair interpolation
   LHFCALC =     F    Hartree Fock is set to
   LHFONE  =     F    Hartree Fock one center treatment
   AEXX    =    0.0000 exact exchange contribution

 Parameters of functionals:
   PE:
     No parameter
 
 Van der Waals corrections
   IVDW    =     0    specifies the selected vdW correction

 Linear response parameters
   LEPSILON=     F    determine dielectric tensor
   LRPA    =     F    only Hartree local field effects (RPA)
   LNABLA  =     F    use nabla operator in PAW spheres
   LVEL    =     F    velocity operator in full k-point grid
   CSHIFT  =0.1000    complex shift for real part using Kramers Kronig
   OMEGAMAX=  -1.0    maximum frequency
   DEG_THRESHOLD= 0.2000000E-02 threshold for treating states as degnerate
   RTIME   =   -0.100 relaxation time in fs
  (WPLASMAI=    0.000 imaginary part of plasma frequency in eV, 0.658/RTIME)
   DFIELD  = 0.0000000 0.0000000 0.0000000 field for delta impulse in time
 
  Optional k-point grid parameters
   LKPOINTS_OPT  =     F    use optional k-point grid
   KPOINTS_OPT_MODE=     1    mode for optional k-point grid
 
 Orbital magnetization related:
   ORBITALMAG=     F  switch on orbital magnetization
   LCHIMAG   =     F  perturbation theory with respect to B field
   DQ        =  0.001000  dq finite difference perturbation B field
   LLRAUG    =     F  two centre corrections for induced B field
   LBONE     =     F  B-component reconstruction in AE one-centre
   LVGVCALC  =     T  calculate vGv susceptibility
   LVGVAPPL  =     F  apply vGv susceptibility instead of pGv for G=0

 Random number generation:
   RANDOM_GENERATOR = DEFAULT
   PCG_SEED         = not used


--------------------------------------------------------------------------------------------------------


 Static calculation
 charge density and potential will be updated during run
 spin polarized calculation
 Variant of blocked Davidson
 Davidson routine will perform the subspace rotation
 perform sub-space diagonalisation
    after iterative eigenvector-optimisation
 modified Broyden-mixing scheme, WC =      100.0
 initial mixing is a Kerker type mixing with AMIX =  0.4000 and BMIX =      1.0000
 Hartree-type preconditioning will be used
 using additional bands           18
 reciprocal scheme for non local part
 use partial core corrections
 calculate Harris-corrections to forces 
   (improved forces if not selfconsistent)
 use gradient corrections 
 use of overlap-Matrix (Vanderbilt PP)
 Fermi weights with tetrahedron method with Bloechl corrections


--------------------------------------------------------------------------------------------------------


  energy-cutoff  :      520.00
  volume of cell :      157.00
      direct lattice vectors                 reciprocal lattice vectors
     3.719835275  0.000000000  0.000000000     0.268829108  0.000000000  0.000000000
     0.000000000  3.719835275  0.000000000     0.000000000  0.268829108  0.000000000
     0.000000000  0.000000000 11.346247047     0.000000000  0.000000000  0.088134869

  length of vectors
     3.719835275  3.719835275 11.346247047     0.268829108  0.268829108  0.088134869


 
 k-points in units of 2pi/SCALE and weight: pymatgen with grid density = 8800 / numb
   0.00000000  0.00000000  0.00000000       0.001
   0.02067916  0.00000000  0.00000000       0.006
   0.04135832  0.00000000  0.00000000       0.006
   0.06203749  0.00000000  0.00000000       0.006
   0.08271665  0.00000000  0.00000000       0.006
   0.10339581  0.00000000  0.00000000       0.006
   0.12407497  0.00000000  0.00000000       0.006
   0.02067916  0.02067916  0.00000000       0.006
   0.04135832  0.02067916  0.00000000       0.012
   0.06203749  0.02067916  0.00000000       0.012
   0.08271665  0.02067916  0.00000000       0.012
   0.10339581  0.02067916  0.00000000       0.012
   0.12407497  0.02067916  0.00000000       0.012
   0.04135832  0.04135832  0.00000000       0.006
   0.06203749  0.04135832  0.00000000       0.012
   0.08271665  0.04135832  0.00000000       0.012
   0.10339581  0.04135832  0.00000000       0.012
   0.12407497  0.04135832  0.00000000       0.012
   0.06203749  0.06203749  0.00000000       0.006
   0.08271665  0.06203749  0.00000000       0.012
   0.10339581  0.06203749  0.00000000       0.012
   0.12407497  0.06203749  0.00000000       0.012
   0.08271665  0.08271665  0.00000000       0.006
   0.10339581  0.08271665  0.00000000       0.012
   0.12407497  0.08271665  0.00000000       0.012
   0.10339581  0.10339581  0.00000000       0.006
   0.12407497  0.10339581  0.00000000       0.012
   0.12407497  0.12407497  0.00000000       0.006
   0.00000000  0.00000000  0.02203372       0.003
   0.02067916  0.00000000  0.02203372       0.012
   0.04135832  0.00000000  0.02203372       0.012
   0.06203749  0.00000000  0.02203372       0.012
   0.08271665  0.00000000  0.02203372       0.012
   0.10339581  0.00000000  0.02203372       0.012
   0.12407497  0.00000000  0.02203372       0.012
   0.02067916  0.02067916  0.02203372       0.012
   0.04135832  0.02067916  0.02203372       0.024
   0.06203749  0.02067916  0.02203372       0.024
   0.08271665  0.02067916  0.02203372       0.024
   0.10339581  0.02067916  0.02203372       0.024
   0.12407497  0.02067916  0.02203372       0.024
   0.04135832  0.04135832  0.02203372       0.012
   0.06203749  0.04135832  0.02203372       0.024
   0.08271665  0.04135832  0.02203372       0.024
   0.10339581  0.04135832  0.02203372       0.024
   0.12407497  0.04135832  0.02203372       0.024
   0.06203749  0.06203749  0.02203372       0.012
   0.08271665  0.06203749  0.02203372       0.024
   0.10339581  0.06203749  0.02203372       0.024
   0.12407497  0.06203749  0.02203372       0.024
   0.08271665  0.08271665  0.02203372       0.012
   0.10339581  0.08271665  0.02203372       0.024
   0.12407497  0.08271665  0.02203372       0.024
   0.10339581  0.10339581  0.02203372       0.012
   0.12407497  0.10339581  0.02203372       0.024
   0.12407497  0.12407497  0.02203372       0.012
   0.00000000  0.00000000  0.04406743       0.001
   0.02067916  0.00000000  0.04406743       0.006
   0.04135832  0.00000000  0.04406743       0.006
   0.06203749  0.00000000  0.04406743       0.006
   0.08271665  0.00000000  0.04406743       0.006
   0.10339581  0.00000000  0.04406743       0.006
   0.12407497  0.00000000  0.04406743       0.006
   0.02067916  0.02067916  0.04406743       0.006
   0.04135832  0.02067916  0.04406743       0.012
   0.06203749  0.02067916  0.04406743       0.012
   0.08271665  0.02067916  0.04406743       0.012
   0.10339581  0.02067916  0.04406743       0.012
   0.12407497  0.02067916  0.04406743       0.012
   0.04135832  0.04135832  0.04406743       0.006
   0.06203749  0.04135832  0.04406743       0.012
   0.08271665  0.04135832  0.04406743       0.012
   0.10339581  0.04135832  0.04406743       0.012
   0.12407497  0.04135832  0.04406743       0.012
   0.06203749  0.06203749  0.04406743       0.006
   0.08271665  0.06203749  0.04406743       0.012
   0.10339581  0.06203749  0.04406743       0.012
   0.12407497  0.06203749  0.04406743       0.012
   0.08271665  0.08271665  0.04406743       0.006
   0.10339581  0.08271665  0.04406743       0.012
   0.12407497  0.08271665  0.04406743       0.012
   0.10339581  0.10339581  0.04406743       0.006
   0.12407497  0.10339581  0.04406743       0.012
   0.12407497  0.12407497  0.04406743       0.006
 
 k-points in reciprocal lattice and weights: pymatgen with grid density = 8800 / numb
   0.00000000  0.00000000  0.00000000       0.001
   0.07692308  0.00000000  0.00000000       0.006
   0.15384615  0.00000000  0.00000000       0.006
   0.23076923  0.00000000  0.00000000       0.006
   0.30769231  0.00000000  0.00000000       0.006
   0.38461538  0.00000000  0.00000000       0.006
   0.46153846  0.00000000  0.00000000       0.006
   0.07692308  0.07692308  0.00000000       0.006
   0.15384615  0.07692308  0.00000000       0.012
   0.23076923  0.07692308  0.00000000       0.012
   0.30769231  0.07692308  0.00000000       0.012
   0.38461538  0.07692308  0.00000000       0.012
   0.46153846  0.07692308  0.00000000       0.012
   0.15384615  0.15384615  0.00000000       0.006
   0.23076923  0.15384615  0.00000000       0.012
   0.30769231  0.15384615  0.00000000       0.012
   0.38461538  0.15384615  0.00000000       0.012
   0.46153846  0.15384615  0.00000000       0.012
   0.23076923  0.23076923  0.00000000       0.006
   0.30769231  0.23076923  0.00000000       0.012
   0.38461538  0.23076923  0.00000000       0.012
   0.46153846  0.23076923  0.00000000       0.012
   0.30769231  0.30769231  0.00000000       0.006
   0.38461538  0.30769231  0.00000000       0.012
   0.46153846  0.30769231  0.00000000       0.012
   0.38461538  0.38461538  0.00000000       0.006
   0.46153846  0.38461538  0.00000000       0.012
   0.46153846  0.46153846  0.00000000       0.006
   0.00000000  0.00000000  0.25000000       0.003
   0.07692308  0.00000000  0.25000000       0.012
   0.15384615  0.00000000  0.25000000       0.012
   0.23076923  0.00000000  0.25000000       0.012
   0.30769231  0.00000000  0.25000000       0.012
   0.38461538  0.00000000  0.25000000       0.012
   0.46153846  0.00000000  0.25000000       0.012
   0.07692308  0.07692308  0.25000000       0.012
   0.15384615  0.07692308  0.25000000       0.024
   0.23076923  0.07692308  0.25000000       0.024
   0.30769231  0.07692308  0.25000000       0.024
   0.38461538  0.07692308  0.25000000       0.024
   0.46153846  0.07692308  0.25000000       0.024
   0.15384615  0.15384615  0.25000000       0.012
   0.23076923  0.15384615  0.25000000       0.024
   0.30769231  0.15384615  0.25000000       0.024
   0.38461538  0.15384615  0.25000000       0.024
   0.46153846  0.15384615  0.25000000       0.024
   0.23076923  0.23076923  0.25000000       0.012
   0.30769231  0.23076923  0.25000000       0.024
   0.38461538  0.23076923  0.25000000       0.024
   0.46153846  0.23076923  0.25000000       0.024
   0.30769231  0.30769231  0.25000000       0.012
   0.38461538  0.30769231  0.25000000       0.024
   0.46153846  0.30769231  0.25000000       0.024
   0.38461538  0.38461538  0.25000000       0.012
   0.46153846  0.38461538  0.25000000       0.024
   0.46153846  0.46153846  0.25000000       0.012
   0.00000000  0.00000000  0.50000000       0.001
   0.07692308  0.00000000  0.50000000       0.006
   0.15384615  0.00000000  0.50000000       0.006
   0.23076923  0.00000000  0.50000000       0.006
   0.30769231  0.00000000  0.50000000       0.006
   0.38461538  0.00000000  0.50000000       0.006
   0.46153846  0.00000000  0.50000000       0.006
   0.07692308  0.07692308  0.50000000       0.006
   0.15384615  0.07692308  0.50000000       0.012
   0.23076923  0.07692308  0.50000000       0.012
   0.30769231  0.07692308  0.50000000       0.012
   0.38461538  0.07692308  0.50000000       0.012
   0.46153846  0.07692308  0.50000000       0.012
   0.15384615  0.15384615  0.50000000       0.006
   0.23076923  0.15384615  0.50000000       0.012
   0.30769231  0.15384615  0.50000000       0.012
   0.38461538  0.15384615  0.50000000       0.012
   0.46153846  0.15384615  0.50000000       0.012
   0.23076923  0.23076923  0.50000000       0.006
   0.30769231  0.23076923  0.50000000       0.012
   0.38461538  0.23076923  0.50000000       0.012
   0.46153846  0.23076923  0.50000000       0.012
   0.30769231  0.30769231  0.50000000       0.006
   0.38461538  0.30769231  0.50000000       0.012
   0.46153846  0.30769231  0.50000000       0.012
   0.38461538  0.38461538  0.50000000       0.006
   0.46153846  0.38461538  0.50000000       0.012
   0.46153846  0.46153846  0.50000000       0.006
 
 position of ions in fractional coordinates (direct lattice) 
   0.00000000  0.50000000  0.16664921
   0.00000000  0.50000000  0.49952310
   0.00000000  0.50000000  0.83383270
   0.50000000  0.50000000  0.00702325
   0.50000000  0.50000000  0.32616265
   0.50000000  0.50000000  0.66682238
   0.50000000  0.00000000  0.16664921
   0.50000000  0.00000000  0.49952310
   0.50000000  0.00000000  0.83383270
   0.00000000  0.00000000  0.99742329
   0.00000000  0.00000000  0.33586908
   0.00000000  0.00000000  0.66668931
 
 position of ions in cartesian coordinates  (Angst):
   0.00000000  1.85991764  1.89084311
   0.00000000  1.85991764  5.66771253
   0.00000000  1.85991764  9.46087179
   1.85991764  1.85991764  0.07968757
   1.85991764  1.85991764  3.70072203
   1.85991764  1.85991764  7.56593147
   1.85991764  0.00000000  1.89084311
   1.85991764  0.00000000  5.66771253
   1.85991764  0.00000000  9.46087179
   0.00000000  0.00000000 11.31701109
   0.00000000  0.00000000  3.81085361
   0.00000000  0.00000000  7.56442165
 


--------------------------------------------------------------------------------------------------------


 k-point     1 :   0.0000 0.0000 0.0000  plane waves:    4227
 k-point     2 :   0.0769 0.0000 0.0000  plane waves:    4205
 k-point     3 :   0.1538 0.0000 0.0000  plane waves:    4198
 k-point     4 :   0.2308 0.0000 0.0000  plane waves:    4210
 k-point     5 :   0.3077 0.0000 0.0000  plane waves:    4224
 k-point     6 :   0.3846 0.0000 0.0000  plane waves:    4214
 k-point     7 :   0.4615 0.0000 0.0000  plane waves:    4238
 k-point     8 :   0.0769 0.0769 0.0000  plane waves:    4201
 k-point     9 :   0.1538 0.0769 0.0000  plane waves:    4214
 k-point    10 :   0.2308 0.0769 0.0000  plane waves:    4214
 k-point    11 :   0.3077 0.0769 0.0000  plane waves:    4216
 k-point    12 :   0.3846 0.0769 0.0000  plane waves:    4217
 k-point    13 :   0.4615 0.0769 0.0000  plane waves:    4224
 k-point    14 :   0.1538 0.1538 0.0000  plane waves:    4212
 k-point    15 :   0.2308 0.1538 0.0000  plane waves:    4209
 k-point    16 :   0.3077 0.1538 0.0000  plane waves:    4232
 k-point    17 :   0.3846 0.1538 0.0000  plane waves:    4233
 k-point    18 :   0.4615 0.1538 0.0000  plane waves:    4227
 k-point    19 :   0.2308 0.2308 0.0000  plane waves:    4238
 k-point    20 :   0.3077 0.2308 0.0000  plane waves:    4232
 k-point    21 :   0.3846 0.2308 0.0000  plane waves:    4240
 k-point    22 :   0.4615 0.2308 0.0000  plane waves:    4234
 k-point    23 :   0.3077 0.3077 0.0000  plane waves:    4244
 k-point    24 :   0.3846 0.3077 0.0000  plane waves:    4243
 k-point    25 :   0.4615 0.3077 0.0000  plane waves:    4237
 k-point    26 :   0.3846 0.3846 0.0000  plane waves:    4246
 k-point    27 :   0.4615 0.3846 0.0000  plane waves:    4237
 k-point    28 :   0.4615 0.4615 0.0000  plane waves:    4246
 k-point    29 :   0.0000 0.0000 0.2500  plane waves:    4206
 k-point    30 :   0.0769 0.0000 0.2500  plane waves:    4207
 k-point    31 :   0.1538 0.0000 0.2500  plane waves:    4204
 k-point    32 :   0.2308 0.0000 0.2500  plane waves:    4208
 k-point    33 :   0.3077 0.0000 0.2500  plane waves:    4213
 k-point    34 :   0.3846 0.0000 0.2500  plane waves:    4229
 k-point    35 :   0.4615 0.0000 0.2500  plane waves:    4229
 k-point    36 :   0.0769 0.0769 0.2500  plane waves:    4202
 k-point    37 :   0.1538 0.0769 0.2500  plane waves:    4209
 k-point    38 :   0.2308 0.0769 0.2500  plane waves:    4216
 k-point    39 :   0.3077 0.0769 0.2500  plane waves:    4207
 k-point    40 :   0.3846 0.0769 0.2500  plane waves:    4222
 k-point    41 :   0.4615 0.0769 0.2500  plane waves:    4237
 k-point    42 :   0.1538 0.1538 0.2500  plane waves:    4212
 k-point    43 :   0.2308 0.1538 0.2500  plane waves:    4224
 k-point    44 :   0.3077 0.1538 0.2500  plane waves:    4224
 k-point    45 :   0.3846 0.1538 0.2500  plane waves:    4233
 k-point    46 :   0.4615 0.1538 0.2500  plane waves:    4239
 k-point    47 :   0.2308 0.2308 0.2500  plane waves:    4234
 k-point    48 :   0.3077 0.2308 0.2500  plane waves:    4238
 k-point    49 :   0.3846 0.2308 0.2500  plane waves:    4236
 k-point    50 :   0.4615 0.2308 0.2500  plane waves:    4235
 k-point    51 :   0.3077 0.3077 0.2500  plane waves:    4246
 k-point    52 :   0.3846 0.3077 0.2500  plane waves:    4247
 k-point    53 :   0.4615 0.3077 0.2500  plane waves:    4246
 k-point    54 :   0.3846 0.3846 0.2500  plane waves:    4242
 k-point    55 :   0.4615 0.3846 0.2500  plane waves:    4244
 k-point    56 :   0.4615 0.4615 0.2500  plane waves:    4222
 k-point    57 :   0.0000 0.0000 0.5000  plane waves:    4210
 k-point    58 :   0.0769 0.0000 0.5000  plane waves:    4214
 k-point    59 :   0.1538 0.0000 0.5000  plane waves:    4214
 k-point    60 :   0.2308 0.0000 0.5000  plane waves:    4204
 k-point    61 :   0.3077 0.0000 0.5000  plane waves:    4218
 k-point    62 :   0.3846 0.0000 0.5000  plane waves:    4234
 k-point    63 :   0.4615 0.0000 0.5000  plane waves:    4218
 k-point    64 :   0.0769 0.0769 0.5000  plane waves:    4218
 k-point    65 :   0.1538 0.0769 0.5000  plane waves:    4216
 k-point    66 :   0.2308 0.0769 0.5000  plane waves:    4214
 k-point    67 :   0.3077 0.0769 0.5000  plane waves:    4210
 k-point    68 :   0.3846 0.0769 0.5000  plane waves:    4220
 k-point    69 :   0.4615 0.0769 0.5000  plane waves:    4244
 k-point    70 :   0.1538 0.1538 0.5000  plane waves:    4220
 k-point    71 :   0.2308 0.1538 0.5000  plane waves:    4216
 k-point    72 :   0.3077 0.1538 0.5000  plane waves:    4222
 k-point    73 :   0.3846 0.1538 0.5000  plane waves:    4224
 k-point    74 :   0.4615 0.1538 0.5000  plane waves:    4246
 k-point    75 :   0.2308 0.2308 0.5000  plane waves:    4242
 k-point    76 :   0.3077 0.2308 0.5000  plane waves:    4242
 k-point    77 :   0.3846 0.2308 0.5000  plane waves:    4244
 k-point    78 :   0.4615 0.2308 0.5000  plane waves:    4238
 k-point    79 :   0.3077 0.3077 0.5000  plane waves:    4246
 k-point    80 :   0.3846 0.3077 0.5000  plane waves:    4242
 k-point    81 :   0.4615 0.3077 0.5000  plane waves:    4234
 k-point    82 :   0.3846 0.3846 0.5000  plane waves:    4234
 k-point    83 :   0.4615 0.3846 0.5000  plane waves:    4236
 k-point    84 :   0.4615 0.4615 0.5000  plane waves:    4246

 maximum and minimum number of plane-waves per node :      4247     4198

 maximum number of plane-waves:      4247
 maximum index in each direction: 
   IXMAX=    6   IYMAX=    6   IZMAX=   21
   IXMIN=   -7   IYMIN=   -7   IZMIN=  -21


 serial   3D FFT for wavefunctions
 parallel 3D FFT for charge:
    minimum data exchange during FFTs selected (reduces bandwidth)


 total amount of memory used by VASP MPI-rank0   177978. kBytes
=======================================================================

   base      :      30000. kBytes
   nonl-proj :     103778. kBytes
   fftplans  :        888. kBytes
   grid      :       6813. kBytes
   one-center:        373. kBytes
   wavefun   :      36126. kBytes
 
     INWAV:  cpu time      0.0002: real time      0.0002
 Broyden mixing: mesh for mixing (old mesh)
   NGX = 13   NGY = 13   NGZ = 43
  (NGX  = 56   NGY  = 56   NGZ  =168)
  gives a total of   7267 points

 initial charge density was supplied:
 charge density of overlapping atoms calculated
 number of electron     156.0000000 magnetization       2.7020000
 keeping initial charge density in first step


--------------------------------------------------------------------------------------------------------


 Maximum index for augmentation-charges         1023 (set IRDMAX)


--------------------------------------------------------------------------------------------------------


 First call to EWALD:  gamma=   0.329
 Maximum number of real-space cells 4x 4x 2
 Maximum number of reciprocal cells 2x 2x 5

    FEWALD:  cpu time      0.0031: real time      0.0031


--------------------------------------- Ionic step        1  -------------------------------------------




--------------------------------------- Iteration      1(   1)  ---------------------------------------


    POTLOK:  cpu time      0.0280: real time      0.0498
    SETDIJ:  cpu time      0.0075: real time      0.0077
     EDDAV:  cpu time      4.4149: real time      4.4472
 BZINTS: Fermi energy:   24.241130;  156.000000 electrons
         Band energy: 0.480393E+03;  BLOECHL correction:   -0.085101
       DOS:  cpu time      0.1017: real time      0.1028
    --------------------------------------------
      LOOP:  cpu time      4.5521: real time      4.6076

 eigenvalue-minimisations  : 32256
 total energy-change (2. order) : 0.1736300E+04  (-0.9180357E+04)
 number of electron     156.0000000 magnetization       2.7020000
 augmentation part      156.0000000 magnetization       2.7020000

 Free energy of the ion-electron system (eV)
  ---------------------------------------------------
  alpha Z        PSCENC =      1084.01356410
  Ewald energy   TEWEN  =    -18046.06244293
  -Hartree energ DENC   =     -6018.69098209
  -exchange      EXHF   =         0.00000000
  -V(xc)+E(xc)   XCENC  =       656.50191593
  PAW double counting   =     20094.31550370   -20818.27364961
  entropy T*S    EENTRO =         0.00000000
  eigenvalues    EBANDS =       480.39282350
  atomic energy  EATOM  =     24304.10294433
  Solvation  Ediel_sol  =         0.00000000
  ---------------------------------------------------
  free energy    TOTEN  =      1736.29967694 eV

  energy without entropy =     1736.29967694  energy(sigma->0) =     1736.29967694


--------------------------------------------------------------------------------------------------------




--------------------------------------- Iteration      1(   2)  ---------------------------------------


     EDDAV:  cpu time      4.3909: real time      4.4345
 BZINTS: Fermi energy:   12.525970;  156.000000 electrons
         Band energy:-0.124584E+04;  BLOECHL correction:   -0.040083
       DOS:  cpu time      0.0994: real time      0.1007
    --------------------------------------------
      LOOP:  cpu time      4.4903: real time      4.5352

 eigenvalue-minimisations  : 32384
 total energy-change (2. order) :-0.1726237E+04  (-0.1696254E+04)
 number of electron     156.0000000 magnetization       2.7020000
 augmentation part      156.0000000 magnetization       2.7020000

 Free energy of the ion-electron system (eV)
  ---------------------------------------------------
  alpha Z        PSCENC =      1084.01356410
  Ewald energy   TEWEN  =    -18046.06244293
  -Hartree energ DENC   =     -6018.69098209
  -exchange      EXHF   =         0.00000000
  -V(xc)+E(xc)   XCENC  =       656.50191593
  PAW double counting   =     20094.31550370   -20818.27364961
  entropy T*S    EENTRO =         0.00000000
  eigenvalues    EBANDS =     -1245.84464168
  atomic energy  EATOM  =     24304.10294433
  Solvation  Ediel_sol  =         0.00000000
  ---------------------------------------------------
  free energy    TOTEN  =        10.06221176 eV

  energy without entropy =       10.06221176  energy(sigma->0) =       10.06221176


--------------------------------------------------------------------------------------------------------




--------------------------------------- Iteration      1(   3)  ---------------------------------------


     EDDAV:  cpu time      5.6504: real time      5.6890
 BZINTS: Fermi energy:   11.589079;  156.000000 electrons
         Band energy:-0.135852E+04;  BLOECHL correction:   -0.028414
       DOS:  cpu time      0.1012: real time      0.1020
    --------------------------------------------
      LOOP:  cpu time      5.7516: real time      5.7910

 eigenvalue-minimisations  : 40576
 total energy-change (2. order) :-0.1126789E+03  (-0.1114875E+03)
 number of electron     156.0000000 magnetization       2.7020000
 augmentation part      156.0000000 magnetization       2.7020000

 Free energy of the ion-electron system (eV)
  ---------------------------------------------------
  alpha Z        PSCENC =      1084.01356410
  Ewald energy   TEWEN  =    -18046.06244293
  -Hartree energ DENC   =     -6018.69098209
  -exchange      EXHF   =         0.00000000
  -V(xc)+E(xc)   XCENC  =       656.50191593
  PAW double counting   =     20094.31550370   -20818.27364961
  entropy T*S    EENTRO =         0.00000000
  eigenvalues    EBANDS =     -1358.52354504
  atomic energy  EATOM  =     24304.10294433
  Solvation  Ediel_sol  =         0.00000000
  ---------------------------------------------------
  free energy    TOTEN  =      -102.61669161 eV

  energy without entropy =     -102.61669161  energy(sigma->0) =     -102.61669161


--------------------------------------------------------------------------------------------------------




--------------------------------------- Iteration      1(   4)  ---------------------------------------


     EDDAV:  cpu time      4.4902: real time      4.5216
 BZINTS: Fermi energy:   11.577407;  156.000000 electrons
         Band energy:-0.136098E+04;  BLOECHL correction:   -0.027864
       DOS:  cpu time      0.0992: real time      0.1003
    --------------------------------------------
      LOOP:  cpu time      4.5894: real time      4.6218

 eigenvalue-minimisations  : 32672
 total energy-change (2. order) :-0.2455609E+01  (-0.2453291E+01)
 number of electron     156.0000000 magnetization       2.7020000
 augmentation part      156.0000000 magnetization       2.7020000

 Free energy of the ion-electron system (eV)
  ---------------------------------------------------
  alpha Z        PSCENC =      1084.01356410
  Ewald energy   TEWEN  =    -18046.06244293
  -Hartree energ DENC   =     -6018.69098209
  -exchange      EXHF   =         0.00000000
  -V(xc)+E(xc)   XCENC  =       656.50191593
  PAW double counting   =     20094.31550370   -20818.27364961
  entropy T*S    EENTRO =         0.00000000
  eigenvalues    EBANDS =     -1360.97915386
  atomic energy  EATOM  =     24304.10294433
  Solvation  Ediel_sol  =         0.00000000
  ---------------------------------------------------
  free energy    TOTEN  =      -105.07230042 eV

  energy without entropy =     -105.07230042  energy(sigma->0) =     -105.07230042


--------------------------------------------------------------------------------------------------------




--------------------------------------- Iteration      1(   5)  ---------------------------------------


     EDDAV:  cpu time      5.8233: real time      5.8606
 BZINTS: Fermi energy:   11.577156;  156.000000 electrons
         Band energy:-0.136103E+04;  BLOECHL correction:   -0.027846
       DOS:  cpu time      0.1003: real time      0.1012
    CHARGE:  cpu time      0.1527: real time      0.1539
    MIXING:  cpu time      0.0043: real time      0.0044
    --------------------------------------------
      LOOP:  cpu time      6.0806: real time      6.1202

 eigenvalue-minimisations  : 41408
 total energy-change (2. order) :-0.5482258E-01  (-0.5482056E-01)
 number of electron     156.0000251 magnetization       2.6147907
 augmentation part       79.2484456 magnetization       1.8786727

 Broyden mixing:
  rms(total) = 0.38029E+01    rms(broyden)= 0.38022E+01
  rms(prec ) = 0.43085E+01
  weight for this iteration     100.00

 Free energy of the ion-electron system (eV)
  ---------------------------------------------------
  alpha Z        PSCENC =      1084.01356410
  Ewald energy   TEWEN  =    -18046.06244293
  -Hartree energ DENC   =     -6018.69098209
  -exchange      EXHF   =         0.00000000
  -V(xc)+E(xc)   XCENC  =       656.50191593
  PAW double counting   =     20094.31550370   -20818.27364961
  entropy T*S    EENTRO =         0.00000000
  eigenvalues    EBANDS =     -1361.03397643
  atomic energy  EATOM  =     24304.10294433
  Solvation  Ediel_sol  =         0.00000000
  ---------------------------------------------------
  free energy    TOTEN  =      -105.12712300 eV

  energy without entropy =     -105.12712300  energy(sigma->0) =     -105.12712300


--------------------------------------------------------------------------------------------------------




--------------------------------------- Iteration      1(   6)  ---------------------------------------


    POTLOK:  cpu time      0.0322: real time      0.0442
    SETDIJ:  cpu time      0.0072: real time      0.0072
     EDDAV:  cpu time      5.0480: real time      5.0816
 BZINTS: Fermi energy:    8.860432;  156.000000 electrons
         Band energy:-0.179324E+04;  BLOECHL correction:   -0.029116
       DOS:  cpu time      0.1079: real time      0.1085
    CHARGE:  cpu time      0.1480: real time      0.1488
    MIXING:  cpu time      0.0029: real time      0.0030
    --------------------------------------------
      LOOP:  cpu time      5.3462: real time      5.3933

 eigenvalue-minimisations  : 37568
 total energy-change (2. order) :-0.4849051E+01  (-0.2291039E+02)
 number of electron     156.0000286 magnetization       2.6453371
 augmentation part       88.5975356 magnetization       2.1264726

 Broyden mixing:
  rms(total) = 0.64020E+01    rms(broyden)= 0.64018E+01
  rms(prec ) = 0.85098E+01
  weight for this iteration     100.00

 eigenvalues of (default mixing * dielectric matrix)
  average eigenvalue GAMMA=   0.2357
  0.2357

 Free energy of the ion-electron system (eV)
  ---------------------------------------------------
  alpha Z        PSCENC =      1084.01356410
  Ewald energy   TEWEN  =    -18046.06244293
  -Hartree energ DENC   =     -5597.91077636
  -exchange      EXHF   =         0.00000000
  -V(xc)+E(xc)   XCENC  =       638.76014894
  PAW double counting   =     20395.24331642   -21094.88698566
  entropy T*S    EENTRO =         0.00000000
  eigenvalues    EBANDS =     -1793.23594334
  atomic energy  EATOM  =     24304.10294433
  Solvation  Ediel_sol  =         0.00000000
  ---------------------------------------------------
  free energy    TOTEN  =      -109.97617449 eV

  energy without entropy =     -109.97617449  energy(sigma->0) =     -109.97617449


--------------------------------------------------------------------------------------------------------




--------------------------------------- Iteration      1(   7)  ---------------------------------------


    POTLOK:  cpu time      0.0291: real time      0.0441
    SETDIJ:  cpu time      0.0077: real time      0.0077
     EDDAV:  cpu time      5.9240: real time      5.9622
 BZINTS: Fermi energy:    9.759932;  156.000000 electrons
         Band energy:-0.169074E+04;  BLOECHL correction:   -0.028234
       DOS:  cpu time      0.1086: real time      0.1093
    CHARGE:  cpu time      0.1467: real time      0.1475
    MIXING:  cpu time      0.0023: real time      0.0024
    --------------------------------------------
      LOOP:  cpu time      6.2185: real time      6.2731

 eigenvalue-minimisations  : 43328
 total energy-change (2. order) :-0.1595603E+01  (-0.4632930E+02)
 number of electron     156.0000273 magnetization       2.9606221
 augmentation part       85.7118039 magnetization       1.5771769

 Broyden mixing:
  rms(total) = 0.58292E+01    rms(broyden)= 0.58288E+01
  rms(prec ) = 0.79969E+01
  weight for this iteration     100.00

 eigenvalues of (default mixing * dielectric matrix)
  average eigenvalue GAMMA=   0.3275
  0.5135  0.1415

 Free energy of the ion-electron system (eV)
  ---------------------------------------------------
  alpha Z        PSCENC =      1084.01356410
  Ewald energy   TEWEN  =    -18046.06244293
  -Hartree energ DENC   =     -5686.27314159
  -exchange      EXHF   =         0.00000000
  -V(xc)+E(xc)   XCENC  =       641.16810827
  PAW double counting   =     20747.24757016   -21465.03133149
  entropy T*S    EENTRO =         0.00000000
  eigenvalues    EBANDS =     -1690.73704812
  atomic energy  EATOM  =     24304.10294433
  Solvation  Ediel_sol  =         0.00000000
  ---------------------------------------------------
  free energy    TOTEN  =      -111.57177727 eV

  energy without entropy =     -111.57177727  energy(sigma->0) =     -111.57177727


--------------------------------------------------------------------------------------------------------




--------------------------------------- Iteration      1(   8)  ---------------------------------------


    POTLOK:  cpu time      0.0307: real time      0.0448
    SETDIJ:  cpu time      0.0085: real time      0.0086
     EDDAV:  cpu time      6.1814: real time      6.2208
 BZINTS: Fermi energy:   10.137998;  156.000000 electrons
         Band energy:-0.158980E+04;  BLOECHL correction:   -0.022858
       DOS:  cpu time      0.1074: real time      0.1080
    CHARGE:  cpu time      0.1477: real time      0.1485
    MIXING:  cpu time      0.0018: real time      0.0018
    --------------------------------------------
      LOOP:  cpu time      6.4774: real time      6.5323

 eigenvalue-minimisations  : 44000
 total energy-change (2. order) : 0.1591894E+02  (-0.8025390E+01)
 number of electron     156.0000262 magnetization       2.9635125
 augmentation part       83.7922649 magnetization       3.0070702

 Broyden mixing:
  rms(total) = 0.25060E+01    rms(broyden)= 0.25053E+01
  rms(prec ) = 0.34944E+01
  weight for this iteration     100.00

 eigenvalues of (default mixing * dielectric matrix)
  average eigenvalue GAMMA=   0.4714
  0.9511  0.3268  0.1362

 Free energy of the ion-electron system (eV)
  ---------------------------------------------------
  alpha Z        PSCENC =      1084.01356410
  Ewald energy   TEWEN  =    -18046.06244293
  -Hartree energ DENC   =     -5753.84887631
  -exchange      EXHF   =         0.00000000
  -V(xc)+E(xc)   XCENC  =       643.28627853
  PAW double counting   =     21195.12546283   -21932.46719357
  entropy T*S    EENTRO =         0.00000000
  eigenvalues    EBANDS =     -1589.80257159
  atomic energy  EATOM  =     24304.10294433
  Solvation  Ediel_sol  =         0.00000000
  ---------------------------------------------------
  free energy    TOTEN  =       -95.65283461 eV

  energy without entropy =      -95.65283461  energy(sigma->0) =      -95.65283461


--------------------------------------------------------------------------------------------------------




--------------------------------------- Iteration      1(   9)  ---------------------------------------


    POTLOK:  cpu time      0.0303: real time      0.0451
    SETDIJ:  cpu time      0.0075: real time      0.0076
     EDDAV:  cpu time      5.9190: real time      5.9570
 BZINTS: Fermi energy:   10.100419;  156.000000 electrons
         Band energy:-0.161686E+04;  BLOECHL correction:   -0.015282
       DOS:  cpu time      0.1093: real time      0.1100
    CHARGE:  cpu time      0.1462: real time      0.1470
    MIXING:  cpu time      0.0017: real time      0.0018
    --------------------------------------------
      LOOP:  cpu time      6.2140: real time      6.2684

 eigenvalue-minimisations  : 44032
 total energy-change (2. order) :-0.9163897E+01  (-0.1867884E+02)
 number of electron     156.0000268 magnetization       3.2678904
 augmentation part       84.3218290 magnetization       0.8210214

 Broyden mixing:
  rms(total) = 0.50846E+01    rms(broyden)= 0.50842E+01
  rms(prec ) = 0.75448E+01
  weight for this iteration     100.00

 eigenvalues of (default mixing * dielectric matrix)
  average eigenvalue GAMMA=   0.4484
  1.1909  0.3645  0.1355  0.1026

 Free energy of the ion-electron system (eV)
  ---------------------------------------------------
  alpha Z        PSCENC =      1084.01356410
  Ewald energy   TEWEN  =    -18046.06244293
  -Hartree energ DENC   =     -5729.70602176
  -exchange      EXHF   =         0.00000000
  -V(xc)+E(xc)   XCENC  =       642.64269401
  PAW double counting   =     21422.30285061   -22165.24892180
  entropy T*S    EENTRO =         0.00000000
  eigenvalues    EBANDS =     -1616.86139778
  atomic energy  EATOM  =     24304.10294433
  Solvation  Ediel_sol  =         0.00000000
  ---------------------------------------------------
  free energy    TOTEN  =      -104.81673123 eV

  energy without entropy =     -104.81673123  energy(sigma->0) =     -104.81673123


--------------------------------------------------------------------------------------------------------




--------------------------------------- Iteration      1(  10)  ---------------------------------------


    POTLOK:  cpu time      0.0297: real time      0.0439
    SETDIJ:  cpu time      0.0082: real time      0.0082
     EDDAV:  cpu time      6.3547: real time      6.3955
 BZINTS: Fermi energy:    9.674951;  156.000000 electrons
         Band energy:-0.163281E+04;  BLOECHL correction:   -0.020554
       DOS:  cpu time      0.1090: real time      0.1096
    CHARGE:  cpu time      0.1476: real time      0.1484
    MIXING:  cpu time      0.0019: real time      0.0019
    --------------------------------------------
      LOOP:  cpu time      6.6511: real time      6.7075

 eigenvalue-minimisations  : 45472
 total energy-change (2. order) : 0.1132505E+02  (-0.5761346E+01)
 number of electron     156.0000265 magnetization       3.2805022
 augmentation part       84.6992218 magnetization       2.5462084

 Broyden mixing:
  rms(total) = 0.19833E+01    rms(broyden)= 0.19829E+01
  rms(prec ) = 0.25889E+01
  weight for this iteration     100.00

 eigenvalues of (default mixing * dielectric matrix)
  average eigenvalue GAMMA=   0.3968
  1.1996  0.3198  0.1753  0.1753  0.1140

 Free energy of the ion-electron system (eV)
  ---------------------------------------------------
  alpha Z        PSCENC =      1084.01356410
  Ewald energy   TEWEN  =    -18046.06244293
  -Hartree energ DENC   =     -5698.04066030
  -exchange      EXHF   =         0.00000000
  -V(xc)+E(xc)   XCENC  =       641.47553138
  PAW double counting   =     21598.06535334   -22344.23769880
  entropy T*S    EENTRO =         0.00000000
  eigenvalues    EBANDS =     -1632.80827301
  atomic energy  EATOM  =     24304.10294433
  Solvation  Ediel_sol  =         0.00000000
  ---------------------------------------------------
  free energy    TOTEN  =       -93.49168190 eV

  energy without entropy =      -93.49168190  energy(sigma->0) =      -93.49168190


--------------------------------------------------------------------------------------------------------




--------------------------------------- Iteration      1(  11)  ---------------------------------------


    POTLOK:  cpu time      0.0299: real time      0.0440
    SETDIJ:  cpu time      0.0080: real time      0.0080
     EDDAV:  cpu time      6.1913: real time      6.2311
 BZINTS: Fermi energy:    9.677995;  156.000000 electrons
         Band energy:-0.163504E+04;  BLOECHL correction:   -0.019831
       DOS:  cpu time      0.1075: real time      0.1081
    CHARGE:  cpu time      0.1468: real time      0.1477
    MIXING:  cpu time      0.0017: real time      0.0017
    --------------------------------------------
      LOOP:  cpu time      6.4852: real time      6.5407

 eigenvalue-minimisations  : 44928
 total energy-change (2. order) : 0.2710347E+00  (-0.2331011E+01)
 number of electron     156.0000264 magnetization       3.3030888
 augmentation part       84.7537109 magnetization       2.3884754

 Broyden mixing:
  rms(total) = 0.14337E+01    rms(broyden)= 0.14334E+01
  rms(prec ) = 0.22293E+01
  weight for this iteration     100.00

 eigenvalues of (default mixing * dielectric matrix)
  average eigenvalue GAMMA=   0.3588
  1.1829  0.3025  0.3025  0.1342  0.1342  0.0968

 Free energy of the ion-electron system (eV)
  ---------------------------------------------------
  alpha Z        PSCENC =      1084.01356410
  Ewald energy   TEWEN  =    -18046.06244293
  -Hartree energ DENC   =     -5694.50776729
  -exchange      EXHF   =         0.00000000
  -V(xc)+E(xc)   XCENC  =       641.51352959
  PAW double counting   =     21634.36305995   -22381.60444584
  entropy T*S    EENTRO =         0.00000000
  eigenvalues    EBANDS =     -1635.03908910
  atomic energy  EATOM  =     24304.10294433
  Solvation  Ediel_sol  =         0.00000000
  ---------------------------------------------------
  free energy    TOTEN  =       -93.22064720 eV

  energy without entropy =      -93.22064720  energy(sigma->0) =      -93.22064720


--------------------------------------------------------------------------------------------------------




--------------------------------------- Iteration      1(  12)  ---------------------------------------


    POTLOK:  cpu time      0.0306: real time      0.0443
    SETDIJ:  cpu time      0.0074: real time      0.0075
     EDDAV:  cpu time      6.0198: real time      6.0582
 BZINTS: Fermi energy:    9.702374;  156.000000 electrons
         Band energy:-0.163526E+04;  BLOECHL correction:   -0.022756
       DOS:  cpu time      0.1068: real time      0.1075
    CHARGE:  cpu time      0.1463: real time      0.1471
    MIXING:  cpu time      0.0018: real time      0.0018
    --------------------------------------------
      LOOP:  cpu time      6.3127: real time      6.3664

 eigenvalue-minimisations  : 44224
 total energy-change (2. order) :-0.6814072E-01  (-0.1098047E+01)
 number of electron     156.0000263 magnetization       3.3260612
 augmentation part       84.7325569 magnetization       2.4788475

 Broyden mixing:
  rms(total) = 0.11652E+01    rms(broyden)= 0.11651E+01
  rms(prec ) = 0.16569E+01
  weight for this iteration     100.00

 eigenvalues of (default mixing * dielectric matrix)
  average eigenvalue GAMMA=   0.3244
  1.1745  0.2836  0.2836  0.1627  0.1627  0.1102  0.0937

 Free energy of the ion-electron system (eV)
  ---------------------------------------------------
  alpha Z        PSCENC =      1084.01356410
  Ewald energy   TEWEN  =    -18046.06244293
  -Hartree energ DENC   =     -5693.34162250
  -exchange      EXHF   =         0.00000000
  -V(xc)+E(xc)   XCENC  =       641.86529045
  PAW double counting   =     21671.84689740   -22420.44877843
  entropy T*S    EENTRO =         0.00000000
  eigenvalues    EBANDS =     -1635.26464035
  atomic energy  EATOM  =     24304.10294433
  Solvation  Ediel_sol  =         0.00000000
  ---------------------------------------------------
  free energy    TOTEN  =       -93.28878793 eV

  energy without entropy =      -93.28878793  energy(sigma->0) =      -93.28878793


--------------------------------------------------------------------------------------------------------




--------------------------------------- Iteration      1(  13)  ---------------------------------------


    POTLOK:  cpu time      0.0434: real time      0.0442
    SETDIJ:  cpu time      0.0077: real time      0.0077
     EDDAV:  cpu time      6.3310: real time      6.3719
 BZINTS: Fermi energy:    9.713299;  156.000000 electrons
         Band energy:-0.163521E+04;  BLOECHL correction:   -0.025815
       DOS:  cpu time      0.1076: real time      0.1082
    CHARGE:  cpu time      0.1486: real time      0.1495
    MIXING:  cpu time      0.0019: real time      0.0019
    --------------------------------------------
      LOOP:  cpu time      6.6402: real time      6.6836

 eigenvalue-minimisations  : 44800
 total energy-change (2. order) : 0.1858666E+00  (-0.3834131E+00)
 number of electron     156.0000262 magnetization       3.2841018
 augmentation part       84.6943563 magnetization       2.6733521

 Broyden mixing:
  rms(total) = 0.82750E+00    rms(broyden)= 0.82741E+00
  rms(prec ) = 0.92462E+00
  weight for this iteration     100.00

 eigenvalues of (default mixing * dielectric matrix)
  average eigenvalue GAMMA=   0.4271
  1.2003  0.6956  0.6956  0.3481  0.1422  0.1422  0.1043  0.0885

 Free energy of the ion-electron system (eV)
  ---------------------------------------------------
  alpha Z        PSCENC =      1084.01356410
  Ewald energy   TEWEN  =    -18046.06244293
  -Hartree energ DENC   =     -5692.64745877
  -exchange      EXHF   =         0.00000000
  -V(xc)+E(xc)   XCENC  =       642.10187955
  PAW double counting   =     21695.01368248   -22444.41187975
  entropy T*S    EENTRO =         0.00000000
  eigenvalues    EBANDS =     -1635.21321036
  atomic energy  EATOM  =     24304.10294433
  Solvation  Ediel_sol  =         0.00000000
  ---------------------------------------------------
  free energy    TOTEN  =       -93.10292136 eV

  energy without entropy =      -93.10292136  energy(sigma->0) =      -93.10292136


--------------------------------------------------------------------------------------------------------




--------------------------------------- Iteration      1(  14)  ---------------------------------------


    POTLOK:  cpu time      0.0294: real time      0.0443
    SETDIJ:  cpu time      0.0082: real time      0.0082
     EDDAV:  cpu time      5.6390: real time      5.6753
[...]
     81       9.9698      0.00000
     82      10.0162      0.00000
     83      10.2421      0.00000
     84      10.4693      0.00000
     85      10.5309      0.00000
     86      10.7138      0.00000
     87      10.7417      0.00000
     88      10.7582      0.00000
     89      11.1307      0.00000
     90      11.2174      0.00000
     91      11.2417      0.00000
     92      11.3746      0.00000
     93      11.3944      0.00000
     94      11.8546      0.00000
     95      11.9476      0.00000
     96      12.0722      0.00000


--------------------------------------------------------------------------------------------------------


 soft charge-density along one line, spin component           1
         0         1         2         3         4         5         6         7         8         9
 total charge-density along one line
 
 soft charge-density along one line, spin component           2
         0         1         2         3         4         5         6         7         8         9
 total charge-density along one line
 
 pseudopotential strength for first ion, spin component:           1
-42.833   0.000  -0.000   6.711  -0.000   0.000  -0.000  -0.000
  0.000 -42.830  -0.000  -0.000   6.709   0.000  -0.000   0.000
 -0.000  -0.000 -42.770   0.000   0.000   6.684   0.000  -0.000
  6.711  -0.000   0.000   5.889  -0.000   0.000   0.000   0.000
 -0.000   6.709   0.000  -0.000   5.889   0.000   0.000  -0.000
  0.000   0.000   6.684   0.000   0.000   5.895  -0.000   0.000
 -0.000  -0.000   0.000   0.000   0.000  -0.000  -0.361  -0.000
 -0.000   0.000  -0.000   0.000  -0.000   0.000  -0.000  -0.337
 -0.000  -0.000   0.000   0.000   0.000  -0.000   0.000   0.000
 -0.000  -0.000  -0.000   0.000   0.000   0.000   0.000  -0.000
 -0.000  -0.000  -0.000   0.000   0.000   0.000  -0.000  -0.000
 -0.000  -0.000   0.000   0.000   0.000  -0.000  -0.903  -0.000
 -0.000   0.000  -0.000   0.000  -0.000   0.000  -0.000  -0.879
 -0.000  -0.000   0.000   0.000   0.000  -0.000   0.000   0.000
 -0.000  -0.000  -0.000   0.000   0.000   0.000   0.000  -0.000
 -0.000  -0.000  -0.000   0.000   0.000   0.000  -0.000  -0.000
 -0.000   0.000   0.000  -0.000  -0.000   0.000   0.000  -0.000
 -0.000   0.000   0.000  -0.000  -0.000   0.000   0.000  -0.000
 pseudopotential strength for first ion, spin component:           2
-45.086   0.000  -0.000   7.658  -0.000   0.000  -0.000  -0.000
  0.000 -45.062  -0.000  -0.000   7.648   0.000   0.000   0.000
 -0.000  -0.000 -44.915   0.000   0.000   7.590   0.000   0.000
  7.658  -0.000   0.000   5.624  -0.000   0.000  -0.000   0.000
 -0.000   7.648   0.000  -0.000   5.625   0.000  -0.000  -0.000
  0.000   0.000   7.590   0.000   0.000   5.637  -0.000  -0.000
 -0.000   0.000   0.000  -0.000  -0.000  -0.000  -2.104  -0.000
 -0.000   0.000   0.000   0.000  -0.000  -0.000  -0.000  -2.272
 -0.000  -0.000   0.000   0.000   0.000   0.000   0.000   0.000
  0.000  -0.000  -0.000  -0.000  -0.000   0.000   0.000  -0.000
 -0.000  -0.000  -0.000   0.000   0.000   0.000  -0.000  -0.000
 -0.000   0.000   0.000  -0.000  -0.000  -0.000  -2.618  -0.000
 -0.000   0.000   0.000   0.000  -0.000  -0.000  -0.000  -2.782
 -0.000  -0.000   0.000   0.000   0.000  -0.000   0.000   0.000
  0.000   0.000  -0.000  -0.000   0.000   0.000   0.000  -0.000
 -0.000  -0.000  -0.000   0.000   0.000   0.000  -0.000  -0.000
 -0.000   0.000  -0.000  -0.000  -0.000   0.000   0.000  -0.000
 -0.000   0.000  -0.000  -0.000  -0.000   0.000   0.000  -0.000
 total augmentation occupancy for first ion, spin component:           1
  1.992  -0.000   0.000  -0.026   0.000   0.000   0.000  -0.000   0.000   0.000   0.000   0.000   0.000  -0.000   0.000   0.000
 -0.000   1.992   0.000   0.000  -0.026   0.000   0.000   0.000  -0.000   0.000  -0.000   0.000   0.000   0.000   0.000   0.000
  0.000   0.000   1.992   0.000   0.000  -0.025   0.000  -0.000   0.000  -0.000   0.000   0.000   0.000  -0.000   0.000   0.000
 -0.026   0.000   0.000   0.171  -0.000   0.000   0.000  -0.000  -0.000   0.000   0.000   0.000   0.000   0.000  -0.000   0.000
  0.000  -0.026   0.000  -0.000   0.174   0.000   0.000   0.000  -0.000   0.000  -0.000   0.000   0.000   0.000   0.000   0.000
  0.000   0.000  -0.025   0.000   0.000   0.171   0.000   0.000  -0.000  -0.000   0.000   0.000   0.000   0.000   0.000   0.000
  0.000   0.000   0.000   0.000   0.000   0.000   2.727  -0.000  -0.000  -0.000   0.000  -1.498   0.000   0.000   0.000   0.000
 -0.000   0.000  -0.000  -0.000   0.000   0.000  -0.000   3.037  -0.000   0.000   0.000   0.000  -2.046   0.000   0.000   0.000
  0.000  -0.000   0.000  -0.000  -0.000  -0.000  -0.000  -0.000   3.298  -0.000   0.160   0.000   0.000  -1.892  -0.000  -0.034
  0.000   0.000  -0.000   0.000   0.000  -0.000  -0.000   0.000  -0.000   2.744   0.000  -0.000   0.000   0.000  -1.509   0.000
  0.000  -0.000   0.000   0.000  -0.000   0.000   0.000   0.000   0.160   0.000   3.150  -0.000   0.000  -0.035   0.000  -1.826
  0.000   0.000   0.000   0.000   0.000   0.000  -1.498   0.000   0.000  -0.000  -0.000   1.673   0.000   0.000   0.000  -0.000
  0.000   0.000   0.000   0.000   0.000   0.000   0.000  -2.046   0.000   0.000   0.000   0.000   2.271   0.000   0.000  -0.000
 -0.000   0.000  -0.000   0.000   0.000   0.000   0.000   0.000  -1.892   0.000  -0.035   0.000   0.000   1.789   0.000  -0.042
  0.000   0.000   0.000  -0.000   0.000   0.000   0.000   0.000  -0.000  -1.509   0.000   0.000   0.000   0.000   1.734   0.000
  0.000   0.000   0.000   0.000   0.000   0.000   0.000   0.000  -0.034   0.000  -1.826  -0.000  -0.000  -0.042   0.000   1.783
  0.000   0.000   0.000   0.000   0.000   0.000   0.000   0.000  -0.073   0.000   0.113   0.000   0.000   0.056  -0.000  -0.041
  0.000   0.000   0.000   0.000  -0.000   0.000   0.000   0.000   0.008   0.000  -0.015   0.000   0.000  -0.006   0.000   0.007
 total augmentation occupancy for first ion, spin component:           2
  0.002   0.000   0.000   0.008   0.000   0.000   0.000  -0.000   0.000   0.000   0.000   0.000   0.000   0.000   0.000   0.000
  0.000   0.002  -0.000   0.000   0.009  -0.000   0.000   0.000   0.000   0.000  -0.000   0.000   0.000  -0.000   0.000   0.000
  0.000  -0.000   0.002   0.000   0.000   0.010   0.000   0.000   0.000  -0.000  -0.000   0.000   0.000   0.000   0.000   0.000
  0.008   0.000   0.000  -0.003  -0.000   0.000   0.000  -0.000  -0.000   0.000   0.000   0.000   0.000  -0.000   0.000   0.000
  0.000   0.009   0.000  -0.000   0.007   0.000   0.000   0.000   0.000  -0.000   0.000   0.000   0.000  -0.000   0.000   0.000
  0.000  -0.000   0.010   0.000   0.000   0.007   0.000   0.000  -0.000   0.000   0.000   0.000   0.000   0.000   0.000   0.000
  0.000   0.000   0.000   0.000   0.000   0.000  -2.177   0.000  -0.000   0.000   0.000   0.928   0.000   0.000   0.000   0.000
 -0.000   0.000   0.000  -0.000   0.000   0.000   0.000  -2.174   0.000   0.000   0.000  -0.000   0.727   0.000   0.000   0.000
  0.000   0.000   0.000  -0.000   0.000  -0.000  -0.000   0.000  -2.610   0.000  -0.082   0.000   0.000   1.110  -0.000   0.125
  0.000   0.000  -0.000   0.000  -0.000   0.000   0.000   0.000   0.000  -2.136   0.000   0.000   0.000   0.000   0.918   0.000
  0.000  -0.000  -0.000   0.000   0.000   0.000   0.000   0.000  -0.082   0.000  -2.527  -0.000   0.000   0.124   0.000   1.004
  0.000   0.000   0.000   0.000   0.000   0.000   0.928  -0.000   0.000   0.000  -0.000  -0.191   0.000   0.000   0.000  -0.000
  0.000   0.000   0.000   0.000   0.000   0.000   0.000   0.727   0.000   0.000   0.000   0.000   0.037   0.000   0.000  -0.000
  0.000  -0.000   0.000  -0.000  -0.000   0.000   0.000   0.000   1.110   0.000   0.124   0.000   0.000  -0.327  -0.000  -0.141
  0.000   0.000   0.000   0.000   0.000   0.000   0.000   0.000  -0.000   0.918   0.000   0.000   0.000  -0.000  -0.159  -0.000
  0.000   0.000   0.000   0.000   0.000   0.000   0.000   0.000   0.125   0.000   1.004  -0.000  -0.000  -0.141  -0.000  -0.207
  0.000   0.000   0.000   0.000   0.000  -0.000   0.000   0.000  -0.010  -0.000  -0.038   0.000   0.000   0.003   0.000   0.060
  0.000  -0.000   0.000   0.000  -0.000   0.000   0.000   0.000  -0.004   0.000   0.010   0.000   0.000   0.001   0.000  -0.003


------------------------ aborting loop because EDIFF is reached ----------------------------------------





 total charge

# of ion       s       p       d       tot
------------------------------------------
    1        0.348   6.321   6.044  12.713
    2        0.345   6.319   6.015  12.680
    3        0.345   6.320   6.016  12.681
    4        0.351   6.327   6.007  12.685
    5        0.351   6.327   6.007  12.685
    6        0.347   6.323   6.012  12.682
    7        0.348   6.321   6.044  12.713
    8        0.345   6.319   6.015  12.680
    9        0.345   6.320   6.016  12.681
   10        0.769   0.677   8.029   9.474
   11        0.768   0.677   8.029   9.474
   12        0.753   0.697   8.025   9.474
--------------------------------------------------
tot          5.417  58.946  78.259 142.622



 magnetization (x)

# of ion       s       p       d       tot
------------------------------------------
    1       -0.006   0.009  -2.595  -2.592
    2        0.010   0.003   2.565   2.578
    3        0.010   0.003   2.562   2.575
    4       -0.016  -0.026  -2.591  -2.632
    5       -0.016  -0.026  -2.592  -2.633
    6        0.005  -0.016   2.784   2.773
    7       -0.006   0.009  -2.595  -2.592
    8        0.010   0.003   2.565   2.578
    9        0.010   0.003   2.562   2.575
   10        0.008   0.019  -0.113  -0.086
   11        0.008   0.019  -0.113  -0.086
   12       -0.038  -0.090   0.365   0.237
--------------------------------------------------
tot         -0.018  -0.090   2.804   2.696
 
    CHARGE:  cpu time      0.1454: real time      0.1461
    FORLOC:  cpu time      0.0017: real time      0.0017
    FORNL :  cpu time      0.5621: real time      0.5652
    STRESS:  cpu time      4.1513: real time      4.1847
    FORCOR:  cpu time      0.0205: real time      0.0210
    FORHAR:  cpu time      0.0027: real time      0.0596
    MIXING:  cpu time      0.0033: real time      0.0033
    OFIELD:  cpu time      0.0018: real time      0.0021

  FORCE on cell =-STRESS in cart. coord.  units (eV):
  Direction    XX          YY          ZZ          XY          YZ          ZX
  --------------------------------------------------------------------------------------
  Alpha Z  1084.01356  1084.01356  1084.01356
  Ewald   -6003.93197 -6003.93197 -6038.22035     0.00000     0.00000    -0.00000
  Hartree  1901.37100  1901.37100  1868.90610    -0.00000    -0.00000    -0.00000
  E(xc)    -943.36106  -943.36106  -943.28749    -0.00000     0.00000    -0.00000
  Local    1041.07587  1041.07587  1117.34772    -0.00000    -0.00000     0.00000
  n-local  -215.69516  -229.98106  -223.05417    14.42985     0.03955     0.00841
  augment  1441.17442  1441.17442  1435.15222    -0.00000     0.00000    -0.00000
  Kinetic  1706.71173  1691.21169  1695.70566     2.53557     0.27324     0.53840
  Fock        0.00000     0.00000     0.00000     0.00000     0.00000     0.00000
  -------------------------------------------------------------------------------------
  Total      -3.53458    -3.53458    -3.43674     0.00000     0.00000     0.00000
  in kB     -36.07026   -36.07026   -35.07177     0.00000     0.00000     0.00000
  external pressure =      -35.74 kB  Pullay stress =        0.00 kB


 VOLUME and BASIS-vectors are now :
 -----------------------------------------------------------------------------
  energy-cutoff  :      520.00
  volume of cell :      157.00
      direct lattice vectors                 reciprocal lattice vectors
     3.719835275  0.000000000  0.000000000     0.268829108  0.000000000  0.000000000
     0.000000000  3.719835275  0.000000000     0.000000000  0.268829108  0.000000000
     0.000000000  0.000000000 11.346247047     0.000000000  0.000000000  0.088134869

  length of vectors
     3.719835275  3.719835275 11.346247047     0.268829108  0.268829108  0.088134869


 FORCES acting on ions
    electron-ion (+dipol)            ewald-force                    non-local-force                 convergence-correction
 -----------------------------------------------------------------------------------------------
   -.735E-13 0.965E-12 -.677E+00   0.140E-13 0.118E-13 0.676E+00   -.112E-21 -.601E-21 -.269E-02   0.398E-15 -.179E-14 0.154E-02
   -.690E-13 0.986E-12 -.160E+02   0.387E-13 -.345E-13 0.172E+02   -.947E-19 0.955E-18 -.120E+01   0.728E-14 -.108E-14 -.124E-01
   -.690E-13 -.393E-12 0.167E+02   -.457E-14 0.435E-14 -.179E+02   -.256E-18 -.911E-18 0.120E+01   -.283E-14 -.218E-15 0.114E-01
   0.104E-11 0.796E-11 0.103E+03   -.251E-13 0.149E-13 -.101E+03   -.724E-18 -.318E-19 -.205E+01   -.197E-12 0.621E-13 -.664E-03
   0.106E-11 0.759E-11 -.106E+03   0.640E-13 0.330E-13 0.104E+03   -.448E-18 -.125E-17 0.206E+01   -.163E-12 0.848E-14 -.760E-02
   0.108E-11 -.458E-11 0.282E+01   -.229E-13 -.480E-14 -.282E+01   0.391E-21 -.957E-21 -.151E-01   -.173E-12 0.322E-13 0.825E-02
   0.110E-11 -.767E-13 -.677E+00   0.410E-14 -.612E-14 0.676E+00   0.299E-20 0.512E-21 -.269E-02   -.230E-12 0.124E-13 0.154E-02
   0.110E-11 -.264E-12 -.160E+02   -.278E-13 0.664E-14 0.172E+02   0.178E-18 -.104E-19 -.120E+01   -.227E-12 0.269E-14 -.124E-01
   0.109E-11 -.127E-12 0.167E+02   -.118E-13 -.240E-14 -.179E+02   -.382E-18 0.130E-18 0.120E+01   -.238E-12 0.959E-14 0.114E-01
   -.337E-13 0.134E-12 0.261E+02   0.495E-13 -.550E-14 -.264E+02   -.563E-18 0.473E-19 0.255E+00   0.442E-13 -.721E-14 -.105E-02
   -.374E-13 0.504E-13 -.276E+02   -.304E-13 -.215E-13 0.279E+02   -.123E-17 0.528E-18 -.252E+00   0.304E-13 -.381E-14 -.579E-02
   -.344E-13 -.290E-13 0.137E+01   0.146E-13 0.262E-13 -.138E+01   -.839E-21 -.633E-22 -.247E-02   0.342E-13 -.818E-15 0.615E-02
 -----------------------------------------------------------------------------------------------
   0.615E-11 0.122E-10 0.107E-02   0.624E-13 0.221E-13 0.437E-12   -.352E-17 -.547E-18 -.146E-02   -.111E-11 0.112E-12 0.402E-03
 
 
 POSITION                                       TOTAL-FORCE (eV/Angst)
 -----------------------------------------------------------------------------------
      0.00000      1.85992      1.89084         0.000000     -0.000000     -0.002639
      0.00000      1.85992      5.66771         0.000000     -0.000000      0.001098
      0.00000      1.85992      9.46087         0.000000     -0.000000      0.000710
      1.85992      1.85992      0.07969        -0.000000      0.000000      0.011415
      1.85992      1.85992      3.70072        -0.000000      0.000000     -0.004165
      1.85992      1.85992      7.56593        -0.000000     -0.000000     -0.007745
      1.85992      0.00000      1.89084         0.000000     -0.000000     -0.002639
      1.85992      0.00000      5.66771         0.000000     -0.000000      0.001098
      1.85992      0.00000      9.46087         0.000000     -0.000000      0.000710
      0.00000      0.00000     11.31701         0.000000     -0.000000     -0.016813
      0.00000      0.00000      3.81085         0.000000     -0.000000      0.022351
      0.00000      0.00000      7.56442         0.000000     -0.000000     -0.003381
 -----------------------------------------------------------------------------------
    total drift:                                0.000000      0.000000      0.000015


--------------------------------------------------------------------------------------------------------



  FREE ENERGIE OF THE ION-ELECTRON SYSTEM (eV)
  ---------------------------------------------------
  free  energy   TOTEN  =       -93.37420126 eV

  energy  without entropy=      -93.37420126  energy(sigma->0) =      -93.37420126
 


--------------------------------------------------------------------------------------------------------


    POTLOK:  cpu time      0.0315: real time      0.0356


--------------------------------------------------------------------------------------------------------


     LOOP+:  cpu time    167.8332: real time    169.5486
 -----------------------------------------------------------------------------
|                                                                             |
|           W    W    AA    RRRRR   N    N  II  N    N   GGGG   !!!           |
|           W    W   A  A   R    R  NN   N  II  NN   N  G    G  !!!           |
|           W    W  A    A  R    R  N N  N  II  N N  N  G       !!!           |
|           W WW W  AAAAAA  RRRRR   N  N N  II  N  N N  G  GGG   !            |
|           WW  WW  A    A  R   R   N   NN  II  N   NN  G    G                |
|           W    W  A    A  R    R  N    N  II  N    N   GGGG   !!!           |
|                                                                             |
|     Tetrahedron method does not include variations of the Fermi             |
|     occupations, so forces and stress will be inaccurate. We suggest        |
|     using a different smearing scheme ISMEAR = 1 or 2 for metals in         |
|     relaxations.                                                            |
|                                                                             |
 -----------------------------------------------------------------------------

    4ORBIT:  cpu time      0.0000: real time      0.0000



 total charge

# of ion       s       p       d       tot
------------------------------------------
    1        0.348   6.321   6.044  12.713
    2        0.345   6.319   6.015  12.680
    3        0.345   6.320   6.016  12.681
    4        0.351   6.327   6.007  12.685
    5        0.351   6.327   6.007  12.685
    6        0.347   6.323   6.012  12.682
    7        0.348   6.321   6.044  12.713
    8        0.345   6.319   6.015  12.680
    9        0.345   6.320   6.016  12.681
   10        0.769   0.677   8.029   9.474
   11        0.768   0.677   8.029   9.474
   12        0.753   0.697   8.025   9.474
--------------------------------------------------
tot          5.417  58.946  78.259 142.622



 magnetization (x)

# of ion       s       p       d       tot
------------------------------------------
    1       -0.006   0.009  -2.595  -2.592
    2        0.010   0.003   2.565   2.578
    3        0.010   0.003   2.562   2.575
    4       -0.016  -0.026  -2.591  -2.632
    5       -0.016  -0.026  -2.592  -2.633
    6        0.005  -0.016   2.784   2.773
    7       -0.006   0.009  -2.595  -2.592
    8        0.010   0.003   2.565   2.578
    9        0.010   0.003   2.562   2.575
   10        0.008   0.019  -0.113  -0.086
   11        0.008   0.019  -0.113  -0.086
   12       -0.038  -0.090   0.365   0.237
--------------------------------------------------
tot         -0.018  -0.090   2.804   2.696
 
 BZINTS: Fermi energy:    9.756729;  156.000000 electrons
         Band energy:-0.164685E+04;  BLOECHL correction:   -0.027115

 total amount of memory used by VASP MPI-rank0   177978. kBytes
=======================================================================

   base      :      30000. kBytes
   nonl-proj :     103778. kBytes
   fftplans  :        888. kBytes
   grid      :       6813. kBytes
   one-center:        373. kBytes
   wavefun   :      36126. kBytes
 
  
  
 General timing and accounting informations for this job:
 ========================================================
  
                  Total CPU time used (sec):      183.920
                            User time (sec):      176.333
                          System time (sec):        7.587
                         Elapsed time (sec):      191.595
  
                   Maximum memory used (kb):      799100.
                   Average memory used (kb):          N/A
  
                          Minor page faults:       169598
                          Major page faults:          204
                 Voluntary context switches:         8822
