       N       E                     dE             d eps       ncg     rms          rms(c)
DAV:   1    -0.111719553049E+02   -0.11172E+02   -0.45649E+03  7168   0.142E+02
DAV:   2    -0.150071587693E+02   -0.38352E+01   -0.38083E+01 11008   0.896E+00
DAV:   3    -0.150090956301E+02   -0.19369E-02   -0.19242E-02  7168   0.282E-01
DAV:   4    -0.150090965929E+02   -0.96281E-06   -0.95069E-06 14208   0.519E-03
DAV:   5    -0.150090965933E+02   -0.42115E-09   -0.58408E-12  7168   0.466E-06    0.242E+00
DAV:   6    -0.149587343780E+02    0.50362E-01   -0.79330E-03 11520   0.105E-01    0.141E+00
DAV:   7    -0.149225400922E+02    0.36194E-01   -0.22380E-02 11328   0.165E-01    0.256E-01
DAV:   8    -0.149224431421E+02    0.96950E-04   -0.32407E-05  9152   0.855E-03    0.237E-02
DAV:   9    -0.149224413669E+02    0.17752E-05   -0.45881E-06 12736   0.236E-03    0.117E-03
DAV:  10    -0.149224399404E+02    0.14264E-05   -0.14388E-08  7872   0.206E-04    0.271E-04
DAV:  11    -0.149224398364E+02    0.10402E-06   -0.65531E-10  7232   0.346E-05
   1 F= -.14922440E+02 E0= -.14922440E+02  d E =0.000000E+00
