 vasp.6.4.3 19Mar24 (build Mar 26 2024 14:05:37) complex                        
  
 executed on             LinuxIFC date 2025.01.03  04:55:51
 running   64 mpi-ranks, on    1 nodes
 distrk:  each k-point on   64 cores,    1 groups
 distr:  one band on NCORE=   1 cores,   64 groups


--------------------------------------------------------------------------------------------------------


 INCAR:
   ALGO = Normal
   EDIFF = 1e-06
   EDIFFG = -0.01
   ENCUT = 520
   GGA = Pe
   IBRION = -1
   ISIF = 4
   ISMEAR = -5
   LCHARG = False
   LREAL = False
   LWAVE = False
   NELM = 200
   NSW = 0
   PREC = Accurate
   SIGMA = 0.2

 POTCAR:    PAW_PBE Al 04Jan2001                  
 -----------------------------------------------------------------------------
|                                                                             |
|           W    W    AA    RRRRR   N    N  II  N    N   GGGG   !!!           |
|           W    W   A  A   R    R  NN   N  II  NN   N  G    G  !!!           |
|           W    W  A    A  R    R  N N  N  II  N N  N  G       !!!           |
|           W WW W  AAAAAA  RRRRR   N  N N  II  N  N N  G  GGG   !            |
|           WW  WW  A    A  R   R   N   NN  II  N   NN  G    G                |
|           W    W  A    A  R    R  N    N  II  N    N   GGGG   !!!           |
|                                                                             |
|     For optimal performance we recommend to set                             |
|       NCORE = 2 up to number-of-cores-per-socket                            |
|     NCORE specifies how many cores store one orbital (NPAR=cpu/NCORE).      |
|     This setting can greatly improve the performance of VASP for DFT.       |
|     The default, NCORE=1 might be grossly inefficient on modern             |
|     multi-core architectures or massively parallel machines. Do your        |
|     own testing! More info at https://www.vasp.at/wiki/index.php/NCORE      |
|     Unfortunately you need to use the default for GW and RPA                |
|     calculations (for HF NCORE is supported but not extensively tested      |
|     yet).                                                                   |
|                                                                             |
 -----------------------------------------------------------------------------

 POTCAR:    PAW_PBE Al 04Jan2001                  
   SHA256 =  17880443556af62b473fe41b62a467bd001ad55d2cabe504a3f22e34d4e9db96 Al/POTCAR             
   COPYR  = (c) Copyright 04Jan2001 Georg Kresse                                                    
   COPYR  = This file is part of the software VASP. Any use, copying, and all other rights are regul
   COPYR  = If you do not have a valid VASP license, you may not use, copy or distribute this file. 
   VRHFIN =Al: s2p1                                                                                 
   LEXCH  = PE                                                                                      
   EATOM  =    53.5387 eV,    3.9350 Ry                                                             
                                                                                                    
   TITEL  = PAW_PBE Al 04Jan2001                                                                    
   LULTRA =        F    use ultrasoft PP ?                                                          
   IUNSCR =        1    unscreen: 0-lin 1-nonlin 2-no                                               
   RPACOR =    1.500    partial core radius                                                         
   POMASS =   26.981; ZVAL   =    3.000    mass and valenz                                          
   RCORE  =    1.900    outmost cutoff radius                                                       
   RWIGS  =    2.650; RWIGS  =    1.402    wigner-seitz radius (au A)                               
   ENMAX  =  240.300; ENMIN  =  180.225 eV                                                          
   ICORE  =        2    local potential                                                             
   LCOR   =        T    correct aug charges                                                         
   LPAW   =        T    paw PP                                                                      
   EAUG   =  291.052                                                                                
   DEXC   =    0.000                                                                                
   RMAX   =    1.939    core radius for proj-oper                                                   
   RAUG   =    1.300    factor for augmentation sphere                                              
   RDEP   =    1.966    radius for radial grids                                                     
   RDEPT  =    1.856    core radius for aug-charge                                                  
                                                                                                    
   Atomic configuration                                                                             
    6 entries                                                                                       
     n  l   j            E        occ.                                                              
     1  0  0.50     -1511.1048   2.0000                                                             
     2  0  0.50      -108.1629   2.0000                                                             
     2  1  1.50       -69.6402   6.0000                                                             
     3  0  0.50        -7.7528   2.0000                                                             
     3  1  1.50        -2.7121   1.0000                                                             
     3  2  2.50        -2.7212   0.0000                                                             
   Description                                                                                      
     l       E           TYP  RCUT    TYP  RCUT                                                     
     0     -7.7528455     23  1.900                                                                 
     0     -3.3096929     23  1.900                                                                 
     1     -2.7120682     23  1.900                                                                 
     1     13.6058260     23  1.900                                                                 
     2     -2.7211652      7  1.900                                                                 
  local pseudopotential read in
  partial core-charges read in
  partial kinetic energy density read in
  atomic valenz-charges read in
  non local Contribution for L=           0  read in
    real space projection operators read in
  non local Contribution for L=           0  read in
    real space projection operators read in
  non local Contribution for L=           1  read in
    real space projection operators read in
  non local Contribution for L=           1  read in
    real space projection operators read in
    PAW grid and wavefunctions read in
 
   number of l-projection  operators is LMAX  =           4
   number of lm-projection operators is LMMAX =           8
 
  PAW_PBE Al 04Jan2001                  :
 energy of atom  1       EATOM=  -53.5387
 kinetic energy error for atom=    0.0002 (will be added to EATOM!!)
 
 
 POSCAR: Al4
  positions in direct lattice
  velocities in cartesian coordinates


 exchange-correlation table for PE
   RHO(1)=    0.500       N(1)  =     2000
   RHO(2)=  100.500       N(2)  =     4000
 


--------------------------------------------------------------------------------------------------------


 ion  position               nearest neighbor table
   1  0.000  0.000  0.000-   4 2.91   4 2.91   2 2.91   3 2.91   2 2.91   2 2.91   2 2.91   3 2.91
                             3 2.91   3 2.91   4 2.91   4 2.91
   2  0.000  0.500  0.500-   3 2.91   3 2.91   1 2.91   4 2.91   1 2.91   1 2.91   1 2.91   4 2.91
                             4 2.91   4 2.91   3 2.91   3 2.91
   3  0.500  0.000  0.500-   2 2.91   2 2.91   1 2.91   4 2.91   1 2.91   4 2.91   4 2.91   1 2.91
                             4 2.91   1 2.91   2 2.91   2 2.91
   4  0.500  0.500  0.000-   1 2.91   1 2.91   2 2.91   3 2.91   2 2.91   3 2.91   3 2.91   3 2.91
                             2 2.91   2 2.91   1 2.91   1 2.91
 
  LATTYP: Found a simple cubic cell.
 ALAT       =     4.1212852998
  
  Lattice vectors:
  
 A1 = (   4.1212852998,   0.0000000000,   0.0000000000)
 A2 = (   0.0000000000,   4.1212852998,   0.0000000000)
 A3 = (   0.0000000000,   0.0000000000,   4.1212852998)


Analysis of symmetry for initial positions (statically):
=====================================================================
 Subroutine PRICEL returns following result:
 
  LATTYP: Found a face centered cubic cell.
 ALAT       =     4.1212852998
  
  Lattice vectors:
  
 A1 = (   2.0606426499,  -2.0606426499,   0.0000000000)
 A2 = (   2.0606426499,   0.0000000000,   2.0606426499)
 A3 = (  -0.0000000000,  -2.0606426499,   2.0606426499)
 
   4 primitive cells build up your supercell.
 

 Routine SETGRP: Setting up the symmetry group for a 
 simple cubic supercell.


 Subroutine GETGRP returns: Found 48 space group operations
 (whereof 48 operations were pure point group operations)
 out of a pool of 48 trial point group operations.


The static configuration has the point symmetry O_h .


Analysis of symmetry for dynamics (positions and initial velocities):
=====================================================================
 Subroutine PRICEL returns following result:
 
  LATTYP: Found a face centered cubic cell.
 ALAT       =     4.1212852998
  
  Lattice vectors:
  
 A1 = (   2.0606426499,  -2.0606426499,   0.0000000000)
 A2 = (   2.0606426499,   0.0000000000,   2.0606426499)
 A3 = (  -0.0000000000,  -2.0606426499,   2.0606426499)
 
   4 primitive cells build up your supercell.
 

 Routine SETGRP: Setting up the symmetry group for a 
 simple cubic supercell.


 Subroutine GETGRP returns: Found 48 space group operations
 (whereof 48 operations were pure point group operations)
 out of a pool of 48 trial point group operations.


The dynamic configuration has the point symmetry O_h .


 Subroutine INISYM returns: Found 48 space group operations
 (whereof 48 operations are pure point group operations),
 and found     4 'primitive' translations


----------------------------------------------------------------------------------------

                                     Primitive cell                                     

  volume of cell :      17.5000

  direct lattice vectors                    reciprocal lattice vectors
     2.060642650 -2.060642650  0.000000000     0.242642750 -0.242642750 -0.242642750
     2.060642650  0.000000000  2.060642650     0.242642750  0.242642750  0.242642750
    -0.000000000 -2.060642650  2.060642650    -0.242642750 -0.242642750  0.242642750

  length of vectors
     2.914188783  2.914188783  2.914188783     0.420269572  0.420269572  0.420269572

  position of ions in fractional coordinates (direct lattice)
     0.000000000  0.000000000  0.000000000

  ion indices of the primitive-cell ions
   primitive index   ion index
                 1           1

----------------------------------------------------------------------------------------

 
 
 KPOINTS: pymatgen with grid density = 4001 / numb

Automatic generation of k-mesh.
 Grid dimensions read from file:
 generate k-points for:   10   10   10

 Generating k-lattice:

  Cartesian coordinates                     Fractional coordinates (reciprocal lattice)
     0.024264275 -0.000000000  0.000000000     0.100000000  0.000000000  0.000000000
     0.000000000  0.024264275  0.000000000     0.000000000  0.100000000  0.000000000
    -0.000000000 -0.000000000  0.024264275    -0.000000000 -0.000000000  0.100000000

  Length of vectors
     0.024264275  0.024264275  0.024264275

  Shift w.r.t. Gamma in fractional coordinates (k-lattice)
     0.000000000  0.000000000  0.000000000

 TETIRR: Found    492 inequivalent tetrahedra from     6000
 
 Subroutine IBZKPT returns following result:
 ===========================================
 
 Found     56 irreducible k-points:
 
 Following reciprocal coordinates:
            Coordinates               Weight
  0.000000  0.000000  0.000000      1.000000
  0.100000  0.000000  0.000000      6.000000
  0.200000  0.000000  0.000000      6.000000
  0.300000  0.000000  0.000000      6.000000
  0.400000  0.000000  0.000000      6.000000
  0.500000  0.000000  0.000000      3.000000
  0.100000  0.100000  0.000000     12.000000
  0.200000  0.100000  0.000000     24.000000
  0.300000  0.100000  0.000000     24.000000
  0.400000  0.100000  0.000000     24.000000
  0.500000  0.100000  0.000000     12.000000
  0.200000  0.200000  0.000000     12.000000
  0.300000  0.200000  0.000000     24.000000
  0.400000  0.200000  0.000000     24.000000
  0.500000  0.200000  0.000000     12.000000
  0.300000  0.300000  0.000000     12.000000
  0.400000  0.300000  0.000000     24.000000
  0.500000  0.300000  0.000000     12.000000
  0.400000  0.400000  0.000000     12.000000
  0.500000  0.400000  0.000000     12.000000
  0.500000  0.500000  0.000000      3.000000
  0.100000  0.100000  0.100000      8.000000
  0.200000  0.100000  0.100000     24.000000
  0.300000  0.100000  0.100000     24.000000
  0.400000  0.100000  0.100000     24.000000
  0.500000  0.100000  0.100000     12.000000
  0.200000  0.200000  0.100000     24.000000
  0.300000  0.200000  0.100000     48.000000
  0.400000  0.200000  0.100000     48.000000
  0.500000  0.200000  0.100000     24.000000
  0.300000  0.300000  0.100000     24.000000
  0.400000  0.300000  0.100000     48.000000
  0.500000  0.300000  0.100000     24.000000
  0.400000  0.400000  0.100000     24.000000
  0.500000  0.400000  0.100000     24.000000
  0.500000  0.500000  0.100000      6.000000
  0.200000  0.200000  0.200000      8.000000
  0.300000  0.200000  0.200000     24.000000
  0.400000  0.200000  0.200000     24.000000
  0.500000  0.200000  0.200000     12.000000
  0.300000  0.300000  0.200000     24.000000
  0.400000  0.300000  0.200000     48.000000
  0.500000  0.300000  0.200000     24.000000
  0.400000  0.400000  0.200000     24.000000
  0.500000  0.400000  0.200000     24.000000
  0.500000  0.500000  0.200000      6.000000
  0.300000  0.300000  0.300000      8.000000
  0.400000  0.300000  0.300000     24.000000
  0.500000  0.300000  0.300000     12.000000
  0.400000  0.400000  0.300000     24.000000
  0.500000  0.400000  0.300000     24.000000
  0.500000  0.500000  0.300000      6.000000
  0.400000  0.400000  0.400000      8.000000
  0.500000  0.400000  0.400000     12.000000
  0.500000  0.500000  0.400000      6.000000
  0.500000  0.500000  0.500000      1.000000
 
 Following cartesian coordinates:
            Coordinates               Weight
  0.000000  0.000000  0.000000      1.000000
  0.024264  0.000000  0.000000      6.000000
  0.048529  0.000000  0.000000      6.000000
  0.072793  0.000000  0.000000      6.000000
  0.097057  0.000000  0.000000      6.000000
  0.121321  0.000000  0.000000      3.000000
  0.024264  0.024264  0.000000     12.000000
  0.048529  0.024264  0.000000     24.000000
  0.072793  0.024264  0.000000     24.000000
  0.097057  0.024264  0.000000     24.000000
  0.121321  0.024264  0.000000     12.000000
  0.048529  0.048529  0.000000     12.000000
  0.072793  0.048529  0.000000     24.000000
  0.097057  0.048529  0.000000     24.000000
  0.121321  0.048529  0.000000     12.000000
  0.072793  0.072793  0.000000     12.000000
  0.097057  0.072793  0.000000     24.000000
  0.121321  0.072793  0.000000     12.000000
  0.097057  0.097057  0.000000     12.000000
  0.121321  0.097057  0.000000     12.000000
  0.121321  0.121321  0.000000      3.000000
  0.024264  0.024264  0.024264      8.000000
  0.048529  0.024264  0.024264     24.000000
  0.072793  0.024264  0.024264     24.000000
  0.097057  0.024264  0.024264     24.000000
  0.121321  0.024264  0.024264     12.000000
  0.048529  0.048529  0.024264     24.000000
  0.072793  0.048529  0.024264     48.000000
  0.097057  0.048529  0.024264     48.000000
  0.121321  0.048529  0.024264     24.000000
  0.072793  0.072793  0.024264     24.000000
  0.097057  0.072793  0.024264     48.000000
  0.121321  0.072793  0.024264     24.000000
  0.097057  0.097057  0.024264     24.000000
  0.121321  0.097057  0.024264     24.000000
  0.121321  0.121321  0.024264      6.000000
  0.048529  0.048529  0.048529      8.000000
  0.072793  0.048529  0.048529     24.000000
  0.097057  0.048529  0.048529     24.000000
  0.121321  0.048529  0.048529     12.000000
  0.072793  0.072793  0.048529     24.000000
  0.097057  0.072793  0.048529     48.000000
  0.121321  0.072793  0.048529     24.000000
  0.097057  0.097057  0.048529     24.000000
  0.121321  0.097057  0.048529     24.000000
  0.121321  0.121321  0.048529      6.000000
  0.072793  0.072793  0.072793      8.000000
  0.097057  0.072793  0.072793     24.000000
  0.121321  0.072793  0.072793     12.000000
  0.097057  0.097057  0.072793     24.000000
  0.121321  0.097057  0.072793     24.000000
  0.121321  0.121321  0.072793      6.000000
  0.097057  0.097057  0.097057      8.000000
  0.121321  0.097057  0.097057     12.000000
  0.121321  0.121321  0.097057      6.000000
  0.121321  0.121321  0.121321      1.000000
 


--------------------------------------------------------------------------------------------------------




 Dimension of arrays:
   k-points           NKPTS =     56   k-points in BZ     NKDIM =     56   number of bands    NBANDS=     64
   number of dos      NEDOS =    301   number of ions     NIONS =      4
   non local maximal  LDIM  =      4   non local SUM 2l+1 LMDIM =      8
   total plane-waves  NPLWV =  32768
   max r-space proj   IRMAX =      1   max aug-charges    IRDMAX=  18416
   dimension x,y,z NGX =    32 NGY =   32 NGZ =   32
   dimension x,y,z NGXF=    64 NGYF=   64 NGZF=   64
   support grid    NGXF=    64 NGYF=   64 NGZF=   64
   ions per type =               4
   NGX,Y,Z   is equivalent  to a cutoff of  12.91, 12.91, 12.91 a.u.
   NGXF,Y,Z  is equivalent  to a cutoff of  25.82, 25.82, 25.82 a.u.

 SYSTEM =  unknown system                          
 POSCAR =  Al4                                     

 Startparameter for this run:
   NWRITE =      2    write-flag & timer
   PREC   = accura    normal or accurate (medium, high low for compatibility)
   ISTART =      0    job   : 0-new  1-cont  2-samecut
   ICHARG =      2    charge: 1-file 2-atom 10-const
   ISPIN  =      1    spin polarized calculation?
   LNONCOLLINEAR =      F non collinear calculations
   LSORBIT =      F    spin-orbit coupling
   INIWAV =      1    electr: 0-lowe 1-rand  2-diag
   LASPH  =      F    aspherical Exc in radial PAW
 Electronic Relaxation 1
   ENCUT  =  520.0 eV  38.22 Ry    6.18 a.u.   7.66  7.66  7.66*2*pi/ulx,y,z
   ENINI  =  520.0     initial cutoff
   ENAUG  =  291.1 eV  augmentation charge cutoff
   NELM   =    200;   NELMIN=  2; NELMDL=  0     # of ELM steps 
   EDIFF  = 0.1E-05   stopping-criterion for ELM
   LREAL  =      F    real-space projection
   NLSPLINE    = F    spline interpolate recip. space projectors
   LCOMPAT=      F    compatible to vasp.4.4
   GGA_COMPAT  = T    GGA compatible to vasp.4.4-vasp.4.6
   LMAXPAW     = -100 max onsite density
   LMAXMIX     =    2 max onsite mixed and CHGCAR
   VOSKOWN=      0    Vosko Wilk Nusair interpolation
   ROPT   =    0.00000
 Ionic relaxation
   EDIFFG = -.1E-01   stopping-criterion for IOM
   NSW    =      0    number of steps for IOM
   NBLOCK =      1;   KBLOCK =      1    inner block; outer block 
   IBRION =     -1    ionic relax: 0-MD 1-quasi-New 2-CG
   NFREE  =      0    steps in history (QN), initial steepest desc. (CG)
   ISIF   =      4    stress and relaxation
   IWAVPR =     10    prediction:  0-non 1-charg 2-wave 3-comb
   ISYM   =      2    0-nonsym 1-usesym 2-fastsym
   LCORR  =      T    Harris-Foulkes like correction to forces

   POTIM  = 0.5000    time-step for ionic-motion
   TEIN   =    0.0    initial temperature
   TEBEG  =    0.0;   TEEND  =   0.0 temperature during run
   SMASS  =  -3.00    Nose mass-parameter (am)
   estimated Nose-frequenzy (Omega)   =  0.10E-29 period in steps = 0.13E+47 mass=  -0.388E-27a.u.
   SCALEE = 1.0000    scale energy and forces
   NPACO  =    256;   APACO  = 10.0  distance and # of slots for P.C.
   PSTRESS=    0.0 pullay stress

  Mass of Ions in am
   POMASS =  26.98
  Ionic Valenz
   ZVAL   =   3.00
  Atomic Wigner-Seitz radii
   RWIGS  =  -1.00
  virtual crystal weights 
   VCA    =   1.00
   NELECT =      12.0000    total number of electrons
   NUPDOWN=      -1.0000    fix difference up-down

 DOS related values:
   EMIN   =  10.00;   EMAX   =-10.00  energy-range for DOS
   EFERMI =   0.00;   METHOD = LEGACY      
   ISMEAR =    -5;   SIGMA  =   0.20  broadening in eV -4-tet -1-fermi 0-gaus

 Electronic relaxation 2 (details)
   IALGO  =     38    algorithm
   LDIAG  =      T    sub-space diagonalisation (order eigenvalues)
   LSUBROT=      F    optimize rotation matrix (better conditioning)
   TURBO    =      0    0=normal 1=particle mesh
   IRESTART =      0    0=no restart 2=restart with 2 vectors
   NREBOOT  =      0    no. of reboots
   NMIN     =      0    reboot dimension
   EREF     =   0.00    reference energy to select bands
   IMIX   =      4    mixing-type and parameters
     AMIX     =   0.40;   BMIX     =  1.00
     AMIX_MAG =   1.60;   BMIX_MAG =  1.00
     AMIN     =   0.10
     WC   =   100.;   INIMIX=   1;  MIXPRE=   1;  MAXMIX= -45

 Intra band minimization:
   WEIMIN = 0.0000     energy-eigenvalue tresh-hold
   EBREAK =  0.39E-08  absolut break condition
   DEPER  =   0.30     relativ break condition  

   TIME   =   0.40     timestep for ELM

  volume/ion in A,a.u.               =      17.50       118.10
  Fermi-wavevector in a.u.,A,eV,Ry     =   0.909430  1.718573 11.252872  0.827063
  Thomas-Fermi vector in A             =   2.033473
 
 Write flags
   LWAVE        =      F    write WAVECAR
   LDOWNSAMPLE  =      F    k-point downsampling of WAVECAR
   LCHARG       =      F    write CHGCAR
   LVTOT        =      F    write LOCPOT, total local potential
   LVHAR        =      F    write LOCPOT, Hartree potential only
   WRT_POTENTIAL= false  ! write potential to hdf5 file
   LELF         =      F    write electronic localiz. function (ELF)
   LORBIT       =      0    0 simple, 1 ext, 2 COOP (PROOUT), +10 PAW based schemes


 Dipole corrections
   LMONO      =      F    monopole corrections only (constant potential shift)
   LDIPOL     =      F    correct potential (dipole corrections)
   IDIPOL     =      0    1-x, 2-y, 3-z, 4-all directions 
   EPSILON    =  1.0000000 bulk dielectric constant
   LVACPOTAV  =      F  vacuum potentials using an averaging scheme for the charge density
   VACPOTFLAT =  0.1000000 required flatness to determine vacuum potential
 Exchange correlation treatment:
   GGA     = PE    functional components
   XC_C    = 1    coefficients multiplying the functional components
   LIBXC   =     F    Libxc                    
   VOSKOWN =     0    Vosko Wilk Nusair interpolation
   LHFCALC =     F    Hartree Fock is set to
   LHFONE  =     F    Hartree Fock one center treatment
   AEXX    =    0.0000 exact exchange contribution

 Parameters of functionals:
   PE:
     No parameter
 
 Van der Waals corrections
   IVDW    =     0    specifies the selected vdW correction

 Linear response parameters
   LEPSILON=     F    determine dielectric tensor
   LRPA    =     F    only Hartree local field effects (RPA)
   LNABLA  =     F    use nabla operator in PAW spheres
   LVEL    =     F    velocity operator in full k-point grid
   CSHIFT  =0.1000    complex shift for real part using Kramers Kronig
   OMEGAMAX=  -1.0    maximum frequency
   DEG_THRESHOLD= 0.2000000E-02 threshold for treating states as degnerate
   RTIME   =   -0.100 relaxation time in fs
  (WPLASMAI=    0.000 imaginary part of plasma frequency in eV, 0.658/RTIME)
   DFIELD  = 0.0000000 0.0000000 0.0000000 field for delta impulse in time
 
  Optional k-point grid parameters
   LKPOINTS_OPT  =     F    use optional k-point grid
   KPOINTS_OPT_MODE=     1    mode for optional k-point grid
 
 Orbital magnetization related:
   ORBITALMAG=     F  switch on orbital magnetization
   LCHIMAG   =     F  perturbation theory with respect to B field
   DQ        =  0.001000  dq finite difference perturbation B field
   LLRAUG    =     F  two centre corrections for induced B field
   LBONE     =     F  B-component reconstruction in AE one-centre
   LVGVCALC  =     T  calculate vGv susceptibility
   LVGVAPPL  =     F  apply vGv susceptibility instead of pGv for G=0

 Random number generation:
   RANDOM_GENERATOR = DEFAULT
   PCG_SEED         = not used


--------------------------------------------------------------------------------------------------------


 Static calculation
 charge density and potential will be updated during run
 non-spin polarized calculation
 Variant of blocked Davidson
 Davidson routine will perform the subspace rotation
 perform sub-space diagonalisation
    after iterative eigenvector-optimisation
 modified Broyden-mixing scheme, WC =      100.0
 initial mixing is a Kerker type mixing with AMIX =  0.4000 and BMIX =      1.0000
 Hartree-type preconditioning will be used
 using additional bands           58
 reciprocal scheme for non local part
 use partial core corrections
 calculate Harris-corrections to forces 
   (improved forces if not selfconsistent)
 use gradient corrections 
 use of overlap-Matrix (Vanderbilt PP)
 Fermi weights with tetrahedron method with Bloechl corrections


--------------------------------------------------------------------------------------------------------


  energy-cutoff  :      520.00
  volume of cell :       70.00
      direct lattice vectors                 reciprocal lattice vectors
     4.121285300  0.000000000  0.000000000     0.242642750 -0.000000000  0.000000000
     0.000000000  4.121285300  0.000000000     0.000000000  0.242642750  0.000000000
     0.000000000  0.000000000  4.121285300    -0.000000000 -0.000000000  0.242642750

  length of vectors
     4.121285300  4.121285300  4.121285300     0.242642750  0.242642750  0.242642750


 
 k-points in units of 2pi/SCALE and weight: pymatgen with grid density = 4001 / numb
   0.00000000  0.00000000  0.00000000       0.001
   0.02426428  0.00000000  0.00000000       0.006
   0.04852855  0.00000000  0.00000000       0.006
   0.07279283  0.00000000  0.00000000       0.006
   0.09705710  0.00000000  0.00000000       0.006
   0.12132138  0.00000000  0.00000000       0.003
   0.02426428  0.02426428  0.00000000       0.012
   0.04852855  0.02426428  0.00000000       0.024
   0.07279283  0.02426428  0.00000000       0.024
   0.09705710  0.02426428  0.00000000       0.024
   0.12132138  0.02426428  0.00000000       0.012
   0.04852855  0.04852855  0.00000000       0.012
   0.07279283  0.04852855  0.00000000       0.024
   0.09705710  0.04852855  0.00000000       0.024
   0.12132138  0.04852855  0.00000000       0.012
   0.07279283  0.07279283  0.00000000       0.012
   0.09705710  0.07279283  0.00000000       0.024
   0.12132138  0.07279283  0.00000000       0.012
   0.09705710  0.09705710  0.00000000       0.012
   0.12132138  0.09705710  0.00000000       0.012
   0.12132138  0.12132138  0.00000000       0.003
   0.02426428  0.02426428  0.02426428       0.008
   0.04852855  0.02426428  0.02426428       0.024
   0.07279283  0.02426428  0.02426428       0.024
   0.09705710  0.02426428  0.02426428       0.024
   0.12132138  0.02426428  0.02426428       0.012
   0.04852855  0.04852855  0.02426428       0.024
   0.07279283  0.04852855  0.02426428       0.048
   0.09705710  0.04852855  0.02426428       0.048
   0.12132138  0.04852855  0.02426428       0.024
   0.07279283  0.07279283  0.02426428       0.024
   0.09705710  0.07279283  0.02426428       0.048
   0.12132138  0.07279283  0.02426428       0.024
   0.09705710  0.09705710  0.02426428       0.024
   0.12132138  0.09705710  0.02426428       0.024
   0.12132138  0.12132138  0.02426428       0.006
   0.04852855  0.04852855  0.04852855       0.008
   0.07279283  0.04852855  0.04852855       0.024
   0.09705710  0.04852855  0.04852855       0.024
   0.12132138  0.04852855  0.04852855       0.012
   0.07279283  0.07279283  0.04852855       0.024
   0.09705710  0.07279283  0.04852855       0.048
   0.12132138  0.07279283  0.04852855       0.024
   0.09705710  0.09705710  0.04852855       0.024
   0.12132138  0.09705710  0.04852855       0.024
   0.12132138  0.12132138  0.04852855       0.006
   0.07279283  0.07279283  0.07279283       0.008
   0.09705710  0.07279283  0.07279283       0.024
   0.12132138  0.07279283  0.07279283       0.012
   0.09705710  0.09705710  0.07279283       0.024
   0.12132138  0.09705710  0.07279283       0.024
   0.12132138  0.12132138  0.07279283       0.006
   0.09705710  0.09705710  0.09705710       0.008
   0.12132138  0.09705710  0.09705710       0.012
   0.12132138  0.12132138  0.09705710       0.006
   0.12132138  0.12132138  0.12132138       0.001
 
 k-points in reciprocal lattice and weights: pymatgen with grid density = 4001 / numb
   0.00000000  0.00000000  0.00000000       0.001
   0.10000000  0.00000000  0.00000000       0.006
   0.20000000  0.00000000  0.00000000       0.006
   0.30000000  0.00000000  0.00000000       0.006
   0.40000000  0.00000000  0.00000000       0.006
   0.50000000  0.00000000  0.00000000       0.003
   0.10000000  0.10000000  0.00000000       0.012
   0.20000000  0.10000000  0.00000000       0.024
   0.30000000  0.10000000  0.00000000       0.024
   0.40000000  0.10000000  0.00000000       0.024
   0.50000000  0.10000000  0.00000000       0.012
   0.20000000  0.20000000  0.00000000       0.012
   0.30000000  0.20000000  0.00000000       0.024
   0.40000000  0.20000000  0.00000000       0.024
   0.50000000  0.20000000  0.00000000       0.012
   0.30000000  0.30000000  0.00000000       0.012
   0.40000000  0.30000000  0.00000000       0.024
   0.50000000  0.30000000  0.00000000       0.012
   0.40000000  0.40000000  0.00000000       0.012
   0.50000000  0.40000000  0.00000000       0.012
   0.50000000  0.50000000  0.00000000       0.003
   0.10000000  0.10000000  0.10000000       0.008
   0.20000000  0.10000000  0.10000000       0.024
   0.30000000  0.10000000  0.10000000       0.024
   0.40000000  0.10000000  0.10000000       0.024
   0.50000000  0.10000000  0.10000000       0.012
   0.20000000  0.20000000  0.10000000       0.024
   0.30000000  0.20000000  0.10000000       0.048
   0.40000000  0.20000000  0.10000000       0.048
   0.50000000  0.20000000  0.10000000       0.024
   0.30000000  0.30000000  0.10000000       0.024
   0.40000000  0.30000000  0.10000000       0.048
   0.50000000  0.30000000  0.10000000       0.024
   0.40000000  0.40000000  0.10000000       0.024
   0.50000000  0.40000000  0.10000000       0.024
   0.50000000  0.50000000  0.10000000       0.006
   0.20000000  0.20000000  0.20000000       0.008
   0.30000000  0.20000000  0.20000000       0.024
   0.40000000  0.20000000  0.20000000       0.024
   0.50000000  0.20000000  0.20000000       0.012
   0.30000000  0.30000000  0.20000000       0.024
   0.40000000  0.30000000  0.20000000       0.048
   0.50000000  0.30000000  0.20000000       0.024
   0.40000000  0.40000000  0.20000000       0.024
   0.50000000  0.40000000  0.20000000       0.024
   0.50000000  0.50000000  0.20000000       0.006
   0.30000000  0.30000000  0.30000000       0.008
   0.40000000  0.30000000  0.30000000       0.024
   0.50000000  0.30000000  0.30000000       0.012
   0.40000000  0.40000000  0.30000000       0.024
   0.50000000  0.40000000  0.30000000       0.024
   0.50000000  0.50000000  0.30000000       0.006
   0.40000000  0.40000000  0.40000000       0.008
   0.50000000  0.40000000  0.40000000       0.012
   0.50000000  0.50000000  0.40000000       0.006
   0.50000000  0.50000000  0.50000000       0.001
 
 position of ions in fractional coordinates (direct lattice) 
   0.00000000  0.00000000  0.00000000
   0.00000000  0.50000000  0.50000000
   0.50000000  0.00000000  0.50000000
   0.50000000  0.50000000  0.00000000
 
 position of ions in cartesian coordinates  (Angst):
   0.00000000  0.00000000  0.00000000
   0.00000000  2.06064265  2.06064265
   2.06064265  0.00000000  2.06064265
   2.06064265  2.06064265  0.00000000
 


--------------------------------------------------------------------------------------------------------


 k-point     1 :   0.0000 0.0000 0.0000  plane waves:    1863
 k-point     2 :   0.1000 0.0000 0.0000  plane waves:    1887
 k-point     3 :   0.2000 0.0000 0.0000  plane waves:    1895
 k-point     4 :   0.3000 0.0000 0.0000  plane waves:    1907
 k-point     5 :   0.4000 0.0000 0.0000  plane waves:    1884
 k-point     6 :   0.5000 0.0000 0.0000  plane waves:    1888
 k-point     7 :   0.1000 0.1000 0.0000  plane waves:    1881
 k-point     8 :   0.2000 0.1000 0.0000  plane waves:    1882
 k-point     9 :   0.3000 0.1000 0.0000  plane waves:    1901
 k-point    10 :   0.4000 0.1000 0.0000  plane waves:    1884
 k-point    11 :   0.5000 0.1000 0.0000  plane waves:    1882
 k-point    12 :   0.2000 0.2000 0.0000  plane waves:    1893
 k-point    13 :   0.3000 0.2000 0.0000  plane waves:    1879
 k-point    14 :   0.4000 0.2000 0.0000  plane waves:    1877
 k-point    15 :   0.5000 0.2000 0.0000  plane waves:    1888
 k-point    16 :   0.3000 0.3000 0.0000  plane waves:    1887
 k-point    17 :   0.4000 0.3000 0.0000  plane waves:    1887
 k-point    18 :   0.5000 0.3000 0.0000  plane waves:    1888
 k-point    19 :   0.4000 0.4000 0.0000  plane waves:    1881
 k-point    20 :   0.5000 0.4000 0.0000  plane waves:    1896
 k-point    21 :   0.5000 0.5000 0.0000  plane waves:    1924
 k-point    22 :   0.1000 0.1000 0.1000  plane waves:    1887
 k-point    23 :   0.2000 0.1000 0.1000  plane waves:    1882
 k-point    24 :   0.3000 0.1000 0.1000  plane waves:    1886
 k-point    25 :   0.4000 0.1000 0.1000  plane waves:    1886
 k-point    26 :   0.5000 0.1000 0.1000  plane waves:    1900
 k-point    27 :   0.2000 0.2000 0.1000  plane waves:    1896
 k-point    28 :   0.3000 0.2000 0.1000  plane waves:    1888
 k-point    29 :   0.4000 0.2000 0.1000  plane waves:    1888
 k-point    30 :   0.5000 0.2000 0.1000  plane waves:    1896
 k-point    31 :   0.3000 0.3000 0.1000  plane waves:    1889
 k-point    32 :   0.4000 0.3000 0.1000  plane waves:    1882
 k-point    33 :   0.5000 0.3000 0.1000  plane waves:    1880
 k-point    34 :   0.4000 0.4000 0.1000  plane waves:    1877
 k-point    35 :   0.5000 0.4000 0.1000  plane waves:    1886
 k-point    36 :   0.5000 0.5000 0.1000  plane waves:    1884
 k-point    37 :   0.2000 0.2000 0.2000  plane waves:    1887
 k-point    38 :   0.3000 0.2000 0.2000  plane waves:    1884
 k-point    39 :   0.4000 0.2000 0.2000  plane waves:    1891
 k-point    40 :   0.5000 0.2000 0.2000  plane waves:    1880
 k-point    41 :   0.3000 0.3000 0.2000  plane waves:    1882
 k-point    42 :   0.4000 0.3000 0.2000  plane waves:    1884
 k-point    43 :   0.5000 0.3000 0.2000  plane waves:    1882
 k-point    44 :   0.4000 0.4000 0.2000  plane waves:    1878
 k-point    45 :   0.5000 0.4000 0.2000  plane waves:    1878
 k-point    46 :   0.5000 0.5000 0.2000  plane waves:    1864
 k-point    47 :   0.3000 0.3000 0.3000  plane waves:    1893
 k-point    48 :   0.4000 0.3000 0.3000  plane waves:    1872
 k-point    49 :   0.5000 0.3000 0.3000  plane waves:    1874
 k-point    50 :   0.4000 0.4000 0.3000  plane waves:    1878
 k-point    51 :   0.5000 0.4000 0.3000  plane waves:    1882
 k-point    52 :   0.5000 0.5000 0.3000  plane waves:    1880
 k-point    53 :   0.4000 0.4000 0.4000  plane waves:    1884
 k-point    54 :   0.5000 0.4000 0.4000  plane waves:    1874
 k-point    55 :   0.5000 0.5000 0.4000  plane waves:    1880
 k-point    56 :   0.5000 0.5000 0.5000  plane waves:    1856

 maximum and minimum number of plane-waves per node :      1924     1856

 maximum number of plane-waves:      1924
 maximum index in each direction: 
   IXMAX=    7   IYMAX=    7   IZMAX=    7
   IXMIN=   -8   IYMIN=   -8   IZMIN=   -8


 serial   3D FFT for wavefunctions
 parallel 3D FFT for charge:
    minimum data exchange during FFTs selected (reduces bandwidth)


 total amount of memory used by VASP MPI-rank0    40910. kBytes
=======================================================================

   base      :      30000. kBytes
   nonl-proj :       7237. kBytes
   fftplans  :        299. kBytes
   grid      :       1527. kBytes
   one-center:         12. kBytes
   wavefun   :       1835. kBytes
 
     INWAV:  cpu time      0.0000: real time      0.0000
 Broyden mixing: mesh for mixing (old mesh)
   NGX = 15   NGY = 15   NGZ = 15
  (NGX  = 64   NGY  = 64   NGZ  = 64)
  gives a total of   3375 points

 initial charge density was supplied:
 charge density of overlapping atoms calculated
 number of electron      12.0000000 magnetization 
 keeping initial charge density in first step


--------------------------------------------------------------------------------------------------------


 Maximum index for augmentation-charges          829 (set IRDMAX)


--------------------------------------------------------------------------------------------------------


 First call to EWALD:  gamma=   0.430
 Maximum number of real-space cells 3x 3x 3
 Maximum number of reciprocal cells 3x 3x 3

    FEWALD:  cpu time      0.0029: real time      0.0030


--------------------------------------- Ionic step        1  -------------------------------------------




--------------------------------------- Iteration      1(   1)  ---------------------------------------


    POTLOK:  cpu time      0.0111: real time      0.0120
    SETDIJ:  cpu time      0.0038: real time      0.0042
     EDDAV:  cpu time      2.6793: real time      2.6964
 BZINTS: Fermi energy:    7.989631;   12.000000 electrons
         Band energy: 0.418615E+02;  BLOECHL correction:   -0.222814
       DOS:  cpu time      0.0131: real time      0.0138
    --------------------------------------------
      LOOP:  cpu time      2.7074: real time      2.7264

 eigenvalue-minimisations  :  7168
 total energy-change (2. order) :-0.1117196E+02  (-0.4564944E+03)
 number of electron      12.0000000 magnetization 
 augmentation part       12.0000000 magnetization 

 Free energy of the ion-electron system (eV)
  ---------------------------------------------------
  alpha Z        PSCENC =        -0.76772798
  Ewald energy   TEWEN  =      -288.35147561
  -Hartree energ DENC   =        -0.50840166
  -exchange      EXHF   =         0.00000000
  -V(xc)+E(xc)   XCENC  =      -105.37783948
  PAW double counting   =       264.80062850     -136.98248303
  entropy T*S    EENTRO =         0.00000000
  eigenvalues    EBANDS =        41.86151570
  atomic energy  EATOM  =       214.15382826
  Solvation  Ediel_sol  =         0.00000000
  ---------------------------------------------------
  free energy    TOTEN  =       -11.17195530 eV

  energy without entropy =      -11.17195530  energy(sigma->0) =      -11.17195530


--------------------------------------------------------------------------------------------------------




--------------------------------------- Iteration      1(   2)  ---------------------------------------


     EDDAV:  cpu time      6.0061: real time      6.0442
 BZINTS: Fermi energy:    7.403618;   12.000000 electrons
         Band energy: 0.380263E+02;  BLOECHL correction:   -0.236878
       DOS:  cpu time      0.0109: real time      0.0109
    --------------------------------------------
      LOOP:  cpu time      6.0169: real time      6.0550

 eigenvalue-minimisations  : 11008
 total energy-change (2. order) :-0.3835203E+01  (-0.3808348E+01)
 number of electron      12.0000000 magnetization 
 augmentation part       12.0000000 magnetization 

 Free energy of the ion-electron system (eV)
  ---------------------------------------------------
  alpha Z        PSCENC =        -0.76772798
  Ewald energy   TEWEN  =      -288.35147561
  -Hartree energ DENC   =        -0.50840166
  -exchange      EXHF   =         0.00000000
  -V(xc)+E(xc)   XCENC  =      -105.37783948
  PAW double counting   =       264.80062850     -136.98248303
  entropy T*S    EENTRO =         0.00000000
  eigenvalues    EBANDS =        38.02631223
  atomic energy  EATOM  =       214.15382826
  Solvation  Ediel_sol  =         0.00000000
  ---------------------------------------------------
  free energy    TOTEN  =       -15.00715877 eV

  energy without entropy =      -15.00715877  energy(sigma->0) =      -15.00715877


--------------------------------------------------------------------------------------------------------




--------------------------------------- Iteration      1(   3)  ---------------------------------------


     EDDAV:  cpu time      2.7252: real time      2.7438
 BZINTS: Fermi energy:    7.403277;   12.000000 electrons
         Band energy: 0.380244E+02;  BLOECHL correction:   -0.236885
       DOS:  cpu time      0.0114: real time      0.0115
    --------------------------------------------
      LOOP:  cpu time      2.7366: real time      2.7553

 eigenvalue-minimisations  :  7168
 total energy-change (2. order) :-0.1936861E-02  (-0.1924176E-02)
 number of electron      12.0000000 magnetization 
 augmentation part       12.0000000 magnetization 

 Free energy of the ion-electron system (eV)
  ---------------------------------------------------
  alpha Z        PSCENC =        -0.76772798
  Ewald energy   TEWEN  =      -288.35147561
  -Hartree energ DENC   =        -0.50840166
  -exchange      EXHF   =         0.00000000
  -V(xc)+E(xc)   XCENC  =      -105.37783948
  PAW double counting   =       264.80062850     -136.98248303
  entropy T*S    EENTRO =         0.00000000
  eigenvalues    EBANDS =        38.02437537
  atomic energy  EATOM  =       214.15382826
  Solvation  Ediel_sol  =         0.00000000
  ---------------------------------------------------
  free energy    TOTEN  =       -15.00909563 eV

  energy without entropy =      -15.00909563  energy(sigma->0) =      -15.00909563


--------------------------------------------------------------------------------------------------------




--------------------------------------- Iteration      1(   4)  ---------------------------------------


     EDDAV:  cpu time     10.6789: real time     10.7362
 BZINTS: Fermi energy:    7.403277;   12.000000 electrons
         Band energy: 0.380244E+02;  BLOECHL correction:   -0.236885
       DOS:  cpu time      0.0117: real time      0.0118
    --------------------------------------------
      LOOP:  cpu time     10.6906: real time     10.7480

 eigenvalue-minimisations  : 14208
 total energy-change (2. order) :-0.9628116E-06  (-0.9506879E-06)
 number of electron      12.0000000 magnetization 
 augmentation part       12.0000000 magnetization 

 Free energy of the ion-electron system (eV)
  ---------------------------------------------------
  alpha Z        PSCENC =        -0.76772798
  Ewald energy   TEWEN  =      -288.35147561
  -Hartree energ DENC   =        -0.50840166
  -exchange      EXHF   =         0.00000000
  -V(xc)+E(xc)   XCENC  =      -105.37783948
  PAW double counting   =       264.80062850     -136.98248303
  entropy T*S    EENTRO =         0.00000000
  eigenvalues    EBANDS =        38.02437441
  atomic energy  EATOM  =       214.15382826
  Solvation  Ediel_sol  =         0.00000000
  ---------------------------------------------------
  free energy    TOTEN  =       -15.00909659 eV

  energy without entropy =      -15.00909659  energy(sigma->0) =      -15.00909659


--------------------------------------------------------------------------------------------------------




--------------------------------------- Iteration      1(   5)  ---------------------------------------


     EDDAV:  cpu time      2.9535: real time      2.9728
 BZINTS: Fermi energy:    7.403277;   12.000000 electrons
         Band energy: 0.380244E+02;  BLOECHL correction:   -0.236885
       DOS:  cpu time      0.0109: real time      0.0113
    CHARGE:  cpu time      0.0274: real time      0.0280
    MIXING:  cpu time      0.0027: real time      0.0028
    --------------------------------------------
      LOOP:  cpu time      2.9945: real time      3.0149

 eigenvalue-minimisations  :  7168
 total energy-change (2. order) :-0.4211529E-09  (-0.5840760E-12)
 number of electron      12.0000000 magnetization 
 augmentation part       -0.1535330 magnetization 

 Broyden mixing:
  rms(total) = 0.24177E+00    rms(broyden)= 0.24177E+00
  rms(prec ) = 0.45395E+00
  weight for this iteration     100.00

 Free energy of the ion-electron system (eV)
  ---------------------------------------------------
  alpha Z        PSCENC =        -0.76772798
  Ewald energy   TEWEN  =      -288.35147561
  -Hartree energ DENC   =        -0.50840166
  -exchange      EXHF   =         0.00000000
  -V(xc)+E(xc)   XCENC  =      -105.37783948
  PAW double counting   =       264.80062850     -136.98248303
  entropy T*S    EENTRO =         0.00000000
  eigenvalues    EBANDS =        38.02437441
  atomic energy  EATOM  =       214.15382826
  Solvation  Ediel_sol  =         0.00000000
  ---------------------------------------------------
  free energy    TOTEN  =       -15.00909659 eV

  energy without entropy =      -15.00909659  energy(sigma->0) =      -15.00909659


--------------------------------------------------------------------------------------------------------




--------------------------------------- Iteration      1(   6)  ---------------------------------------


    POTLOK:  cpu time      0.0130: real time      0.0133
    SETDIJ:  cpu time      0.0012: real time      0.0012
     EDDAV:  cpu time      6.8436: real time      6.8814
 BZINTS: Fermi energy:    7.386553;   12.000000 electrons
         Band energy: 0.378382E+02;  BLOECHL correction:   -0.237147
       DOS:  cpu time      0.0108: real time      0.0109
    CHARGE:  cpu time      0.0250: real time      0.0251
    MIXING:  cpu time      0.0013: real time      0.0014
    --------------------------------------------
      LOOP:  cpu time      6.8950: real time      6.9333

 eigenvalue-minimisations  : 11520
 total energy-change (2. order) : 0.5036222E-01  (-0.7933013E-03)
 number of electron      12.0000000 magnetization 
 augmentation part       -0.1558899 magnetization 

 Broyden mixing:
  rms(total) = 0.14077E+00    rms(broyden)= 0.14077E+00
  rms(prec ) = 0.27827E+00
  weight for this iteration     100.00

 eigenvalues of (default mixing * dielectric matrix)
  average eigenvalue GAMMA=   2.3297
  2.3297

 Free energy of the ion-electron system (eV)
  ---------------------------------------------------
  alpha Z        PSCENC =        -0.76772798
  Ewald energy   TEWEN  =      -288.35147561
  -Hartree energ DENC   =        -0.39549831
  -exchange      EXHF   =         0.00000000
  -V(xc)+E(xc)   XCENC  =      -105.25614474
  PAW double counting   =       362.32065167     -234.50058359
  entropy T*S    EENTRO =         0.00000000
  eigenvalues    EBANDS =        37.83821593
  atomic energy  EATOM  =       214.15382826
  Solvation  Ediel_sol  =         0.00000000
  ---------------------------------------------------
  free energy    TOTEN  =       -14.95873438 eV

  energy without entropy =      -14.95873438  energy(sigma->0) =      -14.95873438


--------------------------------------------------------------------------------------------------------




--------------------------------------- Iteration      1(   7)  ---------------------------------------


    POTLOK:  cpu time      0.0137: real time      0.0141
    SETDIJ:  cpu time      0.0012: real time      0.0012
     EDDAV:  cpu time      6.5673: real time      6.6043
 BZINTS: Fermi energy:    7.365797;   12.000000 electrons
         Band energy: 0.376194E+02;  BLOECHL correction:   -0.237646
       DOS:  cpu time      0.0113: real time      0.0114
    CHARGE:  cpu time      0.0252: real time      0.0253
    MIXING:  cpu time      0.0011: real time      0.0011
    --------------------------------------------
      LOOP:  cpu time      6.6197: real time      6.6573

 eigenvalue-minimisations  : 11328
 total energy-change (2. order) : 0.3619429E-01  (-0.2238002E-02)
 number of electron      12.0000000 magnetization 
 augmentation part       -0.1602507 magnetization 

 Broyden mixing:
  rms(total) = 0.25618E-01    rms(broyden)= 0.25618E-01
  rms(prec ) = 0.27677E-01
  weight for this iteration     100.00

 eigenvalues of (default mixing * dielectric matrix)
  average eigenvalue GAMMA=   2.7663
  2.7663  2.7663

 Free energy of the ion-electron system (eV)
  ---------------------------------------------------
  alpha Z        PSCENC =        -0.76772798
  Ewald energy   TEWEN  =      -288.35147561
  -Hartree energ DENC   =        -0.38061923
  -exchange      EXHF   =         0.00000000
  -V(xc)+E(xc)   XCENC  =      -105.01212556
  PAW double counting   =       548.23880979     -420.42264251
  entropy T*S    EENTRO =         0.00000000
  eigenvalues    EBANDS =        37.61941275
  atomic energy  EATOM  =       214.15382826
  Solvation  Ediel_sol  =         0.00000000
  ---------------------------------------------------
  free energy    TOTEN  =       -14.92254009 eV

  energy without entropy =      -14.92254009  energy(sigma->0) =      -14.92254009


--------------------------------------------------------------------------------------------------------




--------------------------------------- Iteration      1(   8)  ---------------------------------------


    POTLOK:  cpu time      0.0136: real time      0.0140
    SETDIJ:  cpu time      0.0013: real time      0.0013
     EDDAV:  cpu time      4.8822: real time      4.9108
 BZINTS: Fermi energy:    7.366427;   12.000000 electrons
         Band energy: 0.376287E+02;  BLOECHL correction:   -0.237663
       DOS:  cpu time      0.0118: real time      0.0118
    CHARGE:  cpu time      0.0247: real time      0.0248
    MIXING:  cpu time      0.0004: real time      0.0004
    --------------------------------------------
      LOOP:  cpu time      4.9339: real time      4.9630

 eigenvalue-minimisations  :  9152
 total energy-change (2. order) : 0.9695016E-04  (-0.3240722E-05)
 number of electron      12.0000000 magnetization 
 augmentation part       -0.1605144 magnetization 

 Broyden mixing:
  rms(total) = 0.23718E-02    rms(broyden)= 0.23718E-02
  rms(prec ) = 0.38680E-02
  weight for this iteration     100.00

 eigenvalues of (default mixing * dielectric matrix)
  average eigenvalue GAMMA=   2.1180
  1.0690  2.5306  2.7543

 Free energy of the ion-electron system (eV)
  ---------------------------------------------------
  alpha Z        PSCENC =        -0.76772798
  Ewald energy   TEWEN  =      -288.35147561
  -Hartree energ DENC   =        -0.39292408
  -exchange      EXHF   =         0.00000000
  -V(xc)+E(xc)   XCENC  =      -104.99554544
  PAW double counting   =       505.04964522     -377.24692593
  entropy T*S    EENTRO =         0.00000000
  eigenvalues    EBANDS =        37.62868243
  atomic energy  EATOM  =       214.15382826
  Solvation  Ediel_sol  =         0.00000000
  ---------------------------------------------------
  free energy    TOTEN  =       -14.92244314 eV

  energy without entropy =      -14.92244314  energy(sigma->0) =      -14.92244314


--------------------------------------------------------------------------------------------------------




--------------------------------------- Iteration      1(   9)  ---------------------------------------


    POTLOK:  cpu time      0.0140: real time      0.0143
    SETDIJ:  cpu time      0.0012: real time      0.0013
     EDDAV:  cpu time      8.9930: real time      9.0407
 BZINTS: Fermi energy:    7.366145;   12.000000 electrons
         Band energy: 0.376257E+02;  BLOECHL correction:   -0.237671
       DOS:  cpu time      0.0121: real time      0.0122
    CHARGE:  cpu time      0.0242: real time      0.0246
    MIXING:  cpu time      0.0003: real time      0.0003
    --------------------------------------------
      LOOP:  cpu time      9.0448: real time      9.0934

 eigenvalue-minimisations  : 12736
 total energy-change (2. order) : 0.1775203E-05  (-0.4588055E-06)
 number of electron      12.0000000 magnetization 
 augmentation part       -0.1605733 magnetization 

 Broyden mixing:
  rms(total) = 0.11660E-03    rms(broyden)= 0.11659E-03
  rms(prec ) = 0.16329E-03
  weight for this iteration     100.00

 eigenvalues of (default mixing * dielectric matrix)
  average eigenvalue GAMMA=   2.1899
  0.9978  2.6433  2.6433  2.4751

 Free energy of the ion-electron system (eV)
  ---------------------------------------------------
  alpha Z        PSCENC =        -0.76772798
  Ewald energy   TEWEN  =      -288.35147561
  -Hartree energ DENC   =        -0.39396636
  -exchange      EXHF   =         0.00000000
  -V(xc)+E(xc)   XCENC  =      -104.99206379
  PAW double counting   =       508.36889784     -380.56566509
  entropy T*S    EENTRO =         0.00000000
  eigenvalues    EBANDS =        37.62573138
  atomic energy  EATOM  =       214.15382826
  Solvation  Ediel_sol  =         0.00000000
  ---------------------------------------------------
  free energy    TOTEN  =       -14.92244137 eV

  energy without entropy =      -14.92244137  energy(sigma->0) =      -14.92244137


--------------------------------------------------------------------------------------------------------




--------------------------------------- Iteration      1(  10)  ---------------------------------------


    POTLOK:  cpu time      0.0131: real time      0.0135
    SETDIJ:  cpu time      0.0012: real time      0.0012
     EDDAV:  cpu time      3.9219: real time      3.9442
 BZINTS: Fermi energy:    7.366109;   12.000000 electrons
         Band energy: 0.376253E+02;  BLOECHL correction:   -0.237671
       DOS:  cpu time      0.0114: real time      0.0115
    CHARGE:  cpu time      0.0257: real time      0.0258
    MIXING:  cpu time      0.0003: real time      0.0003
    --------------------------------------------
      LOOP:  cpu time      3.9737: real time      3.9966

 eigenvalue-minimisations  :  7872
 total energy-change (2. order) : 0.1426436E-05  (-0.1438833E-08)
 number of electron      12.0000000 magnetization 
 augmentation part       -0.1605701 magnetization 

 Broyden mixing:
  rms(total) = 0.27077E-04    rms(broyden)= 0.27075E-04
  rms(prec ) = 0.39924E-04
  weight for this iteration     100.00

 eigenvalues of (default mixing * dielectric matrix)
  average eigenvalue GAMMA=   1.9854
  0.9675  1.0686  2.5065  2.6922  2.6922

 Free energy of the ion-electron system (eV)
  ---------------------------------------------------
  alpha Z        PSCENC =        -0.76772798
  Ewald energy   TEWEN  =      -288.35147561
  -Hartree energ DENC   =        -0.39393389
  -exchange      EXHF   =         0.00000000
  -V(xc)+E(xc)   XCENC  =      -104.99216943
  PAW double counting   =       508.31395381     -380.51020892
  entropy T*S    EENTRO =         0.00000000
  eigenvalues    EBANDS =        37.62529382
  atomic energy  EATOM  =       214.15382826
  Solvation  Ediel_sol  =         0.00000000
  ---------------------------------------------------
  free energy    TOTEN  =       -14.92243994 eV

  energy without entropy =      -14.92243994  energy(sigma->0) =      -14.92243994


--------------------------------------------------------------------------------------------------------




--------------------------------------- Iteration      1(  11)  ---------------------------------------


    POTLOK:  cpu time      0.0106: real time      0.0138
    SETDIJ:  cpu time      0.0012: real time      0.0012
     EDDAV:  cpu time      4.3180: real time      4.3416
 BZINTS: Fermi energy:    7.366104;   12.000000 electrons
         Band energy: 0.376252E+02;  BLOECHL correction:   -0.237671
       DOS:  cpu time      0.0100: real time      0.0100
    --------------------------------------------
      LOOP:  cpu time      4.3398: real time      4.3667

 eigenvalue-minimisations  :  7232
 total energy-change (2. order) : 0.1040224E-06  (-0.6553090E-10)
 number of electron      12.0000000 magnetization 
 augmentation part       -0.1605701 magnetization 

 Free energy of the ion-electron system (eV)
  ---------------------------------------------------
  alpha Z        PSCENC =        -0.76772798
  Ewald energy   TEWEN  =      -288.35147561
  -Hartree energ DENC   =        -0.39394890
  -exchange      EXHF   =         0.00000000
  -V(xc)+E(xc)   XCENC  =      -104.99214372
  PAW double counting   =       508.34094238     -380.53714426
  entropy T*S    EENTRO =         0.00000000
  eigenvalues    EBANDS =        37.62523001
  atomic energy  EATOM  =       214.15382826
  Solvation  Ediel_sol  =         0.00000000
  ---------------------------------------------------
  free energy    TOTEN  =       -14.92243984 eV

  energy without entropy =      -14.92243984  energy(sigma->0) =      -14.92243984


--------------------------------------------------------------------------------------------------------




 average (electrostatic) potential at core
  the test charge radii are     1.0406
  (the norm of the test charge is              1.0000)
       1 -73.3116       2 -73.3116       3 -73.3116       4 -73.3116
 
 
 
 E-fermi :   7.3661     XC(G=0):  -9.9859     alpha+bet :-14.0263

 val. band max:        7.6233950691   @ k =   0.5000   0.5000   0.1000
 cond. band min:       7.1377149795   @ k =   0.1000   0.1000   0.0000
 fundamental gap:     -0.4856800895
 Fermi energy:         7.3661037674

 k-point     1 :       0.0000    0.0000    0.0000
  band No.  band energies     occupation 
      1      -3.3347      2.00000
      2       4.6178      2.00000
      3       4.6178      2.00000
      4       4.6178      2.00000
      5       5.8023      2.00000
      6       5.8023      2.00000
      7       5.8023      2.00000
      8      12.6421      0.00000
      9      12.6421      0.00000
     10      12.6421      0.00000
     11      12.7265      0.00000
     12      12.7265      0.00000
     13      12.7265      0.00000
     14      12.7265      0.00000
     15      12.7265      0.00000
     16      12.7265      0.00000
     17      15.9381      0.00000
     18      15.9381      0.00000
     19      15.9381      0.00000
     20      19.6975      0.00000
     21      19.6975      0.00000
     22      19.6975      0.00000
     23      20.7555      0.00000
     24      20.7555      0.00000
     25      20.7555      0.00000
     26      23.4455      0.00000
     27      26.2046      0.00000
     28      26.2046      0.00000
     29      28.8279      0.00000
     30      31.1806      0.00000
     31      31.1806      0.00000
     32      31.1806      0.00000
     33      31.9270      0.00000
     34      31.9270      0.00000
     35      31.9270      0.00000
     36      33.3781      0.00000
     37      33.3781      0.00000
     38      33.3781      0.00000
     39      33.3781      0.00000
     40      33.3781      0.00000
     41      33.3781      0.00000
     42      38.9185      0.00000
     43      38.9185      0.00000
     44      38.9185      0.00000
     45      39.0129      0.00000
     46      39.4343      0.00000
     47      39.4343      0.00000
     48      39.4343      0.00000
     49      39.4343      0.00000
     50      39.4343      0.00000
     51      39.4343      0.00000
     52      39.9076      0.00000
     53      39.9076      0.00000
     54      39.9076      0.00000
     55      40.9311      0.00000
     56      40.9311      0.00000
     57      40.9311      0.00000
     58      46.5085      0.00000
     59      46.5085      0.00000
     60      46.5085      0.00000
     61      46.5085      0.00000
     62      46.5085      0.00000
     63      46.5085      0.00000
     64      47.0538      0.00000

 k-point     2 :       0.1000    0.0000    0.0000
  band No.  band energies     occupation 
      1      -3.2475      2.00000
      2       3.5172      2.00000
      3       4.6981      2.00000
      4       4.6981      2.00000
      5       5.8876      2.00317
      6       5.8876      2.07328
      7       7.0551      1.47356
      8      11.1478      0.00000
      9      11.1478      0.00000
     10      12.1292      0.00000
     11      12.1292      0.00000
     12      12.7280      0.00000
     13      12.8013      0.00000
     14      12.8013      0.00000
     15      14.3818      0.00000
     16      14.3818      0.00000
     17      16.0174      0.00000
     18      16.6659      0.00000
     19      16.6659      0.00000
     20      18.7262      0.00000
     21      18.7262      0.00000
     22      19.0903      0.00000
     23      20.5417      0.00000
     24      21.8526      0.00000
     25      21.8526      0.00000
     26      24.2265      0.00000
     27      25.1034      0.00000
     28      26.2850      0.00000
     29      28.8374      0.00000
     30      31.2835      0.00000
     31      31.2835      0.00000
     32      31.4393      0.00000
     33      31.4393      0.00000
     34      31.6015      0.00000
     35      32.3028      0.00000
     36      32.3028      0.00000
     37      32.4159      0.00000
     38      33.0623      0.00000
     39      33.0623      0.00000
     40      33.3966      0.00000
     41      33.3966      0.00000
     42      38.8807      0.00000
     43      38.8807      0.00000
     44      38.9638      0.00000
     45      39.3175      0.00000
     46      39.3175      0.00000
     47      39.4143      0.00000
     48      39.4148      0.00000
     49      39.4841      0.00000
     50      39.4841      0.00000
     51      39.6329      0.00000
     52      39.6329      0.00000
     53      40.3451      0.00000
     54      40.3451      0.00000
     55      41.4074      0.00000
     56      41.6335      0.00000
     57      41.6335      0.00000
     58      44.2384      0.00000
     59      44.2384      0.00000
     60      44.3533      0.00000
     61      45.7818      0.00000
     62      45.7818      0.00000
     63      45.7916      0.00000
     64      45.7916      0.00000

 k-point     3 :       0.2000    0.0000    0.0000
  band No.  band energies     occupation 
      1      -2.9864      2.00000
      2       2.1324      2.00000
      3       4.9390      2.00000
      4       4.9390      2.00000
      5       6.1425      2.03029
      6       6.1425      2.52547
      7       8.8964     -0.15009
      8       9.7742      0.00000
      9       9.7742      0.00000
     10      11.0181      0.00000
     11      11.0181      0.00000
     12      12.9855      0.00000
     13      13.0258      0.00000
     14      13.0258      0.00000
     15      16.2373      0.00000
     16      16.2373      0.00000
     17      16.2535      0.00000
     18      17.5009      0.00000
     19      17.5009      0.00000
     20      17.9390      0.00000
     21      18.1654      0.00000
     22      18.1654      0.00000
     23      19.9851      0.00000
     24      22.8295      0.00000
     25      23.4461      0.00000
     26      23.4461      0.00000
     27      25.8994      0.00000
     28      26.5257      0.00000
     29      29.4453      0.00000
     30      30.0924      0.00000
     31      30.0924      0.00000
     32      30.1242      0.00000
     33      30.1242      0.00000
     34      30.8263      0.00000
     35      31.6004      0.00000
     36      31.6004      0.00000
     37      32.2634      0.00000
     38      32.2634      0.00000
     39      33.4459      0.00000
     40      33.4459      0.00000
     41      34.3446      0.00000
     42      37.4892      0.00000
     43      38.3738      0.00000
     44      38.3738      0.00000
     45      39.3942      0.00000
     46      39.3942      0.00000
     47      39.6326      0.00000
     48      39.6326      0.00000
     49      39.7098      0.00000
     50      39.7098      0.00000
     51      40.6953      0.00000
     52      40.7019      0.00000
     53      41.2023      0.00000
     54      41.2023      0.00000
     55      41.2170      0.00000
     56      41.4632      0.00000
     57      42.2783      0.00000
     58      42.2783      0.00000
     59      42.8404      0.00000
     60      42.8404      0.00000
     61      44.4881      0.00000
     62      44.4881      0.00000
     63      44.7652      0.00000
     64      44.7652      0.00000

 k-point     4 :       0.3000    0.0000    0.0000
  band No.  band energies     occupation 
      1      -2.5522      2.00000
      2       0.8744      2.00000
      3       5.3407      2.00000
      4       5.3407      2.00000
      5       6.5632      2.03845
      6       6.5632      2.54188
      7       8.5630      0.00000
      8       8.5630      0.00000
      9       9.8895      0.00000
     10       9.8895      0.00000
     11      10.9133      0.00000
     12      13.4001      0.00000
     13      13.4001      0.00000
     14      13.4137      0.00000
     15      16.3908      0.00000
     16      16.3908      0.00000
     17      16.6398      0.00000
     18      16.7642      0.00000
     19      18.2481      0.00000
     20      18.2481      0.00000
     21      19.2298      0.00000
     22      19.9257      0.00000
     23      19.9257      0.00000
     24      20.3501      0.00000
     25      25.1356      0.00000
     26      25.1356      0.00000
     27      26.9242      0.00000
     28      27.6117      0.00000
     29      27.6117      0.00000
     30      27.9433      0.00000
     31      28.3287      0.00000
     32      28.3287      0.00000
     33      29.9001      0.00000
     34      30.4512      0.00000
     35      31.1884      0.00000
     36      31.1884      0.00000
     37      32.1582      0.00000
     38      32.1582      0.00000
     39      33.5087      0.00000
     40      33.5087      0.00000
     41      35.9542      0.00000
     42      35.9954      0.00000
     43      37.7203      0.00000
     44      37.7203      0.00000
     45      38.2150      0.00000
     46      38.2150      0.00000
     47      38.2157      0.00000
     48      39.8759      0.00000
     49      39.8759      0.00000
     50      40.1243      0.00000
     51      40.1243      0.00000
     52      40.8350      0.00000
     53      41.4077      0.00000
     54      41.4077      0.00000
     55      42.3223      0.00000
     56      42.3223      0.00000
     57      42.4804      0.00000
     58      42.8922      0.00000
     59      43.3282      0.00000
     60      43.3282      0.00000
     61      43.5547      0.00000
     62      43.5547      0.00000
     63      43.9582      0.00000
     64      43.9582      0.00000

 k-point     5 :       0.4000    0.0000    0.0000
  band No.  band energies     occupation 
      1      -1.9463      2.00000
      2      -0.2294      2.00000
      3       5.9036      2.00000
      4       5.9036      2.00000
      5       7.1367      1.98440
      6       7.1367      2.00480
      7       7.5144      0.00000
      8       7.5144      0.00000
      9       8.8711      0.00000
     10       8.8711      0.00000
     11      13.0744      0.00000
     12      13.9243      0.00000
     13      13.9243      0.00000
     14      14.0110      0.00000
     15      15.4211      0.00000
     16      15.4211      0.00000
     17      15.6966      0.00000
     18      17.1653      0.00000
     19      17.7270      0.00000
     20      18.5890      0.00000
     21      20.4075      0.00000
     22      20.4075      0.00000
     23      21.7643      0.00000
     24      21.7643      0.00000
     25      25.1192      0.00000
     26      25.1192      0.00000
     27      26.3974      0.00000
     28      26.3974      0.00000
     29      26.8365      0.00000
     30      26.8365      0.00000
     31      27.4752      0.00000
     32      28.9895      0.00000
     33      29.9174      0.00000
     34      29.9174      0.00000
     35      30.2264      0.00000
     36      31.6673      0.00000
     37      33.0074      0.00000
     38      33.0074      0.00000
     39      33.5614      0.00000
     40      33.5614      0.00000
     41      34.4499      0.00000
     42      35.3761      0.00000
     43      35.8169      0.00000
     44      35.8169      0.00000
     45      37.3726      0.00000
     46      38.2313      0.00000
     47      38.2313      0.00000
     48      39.8160      0.00000
     49      40.2029      0.00000
     50      40.2029      0.00000
     51      40.6057      0.00000
     52      40.6057      0.00000
     53      41.1860      0.00000
     54      41.1860      0.00000
     55      42.1288      0.00000
     56      42.1288      0.00000
     57      42.3241      0.00000
     58      42.3241      0.00000
     59      43.4485      0.00000
     60      43.4485      0.00000
     61      44.5826      0.00000
     62      45.1205      0.00000
     63      45.1205      0.00000
     64      45.7628      0.00000

 k-point     6 :       0.5000    0.0000    0.0000
  band No.  band energies     occupation 
      1      -1.1711      2.00000
      2      -1.1711      2.00000
      3       6.6280      2.00000
      4       6.6280      2.00000
      5       6.6280      2.00000
      6       6.6280      2.00000
      7       7.6702      0.00000
      8       7.6702      0.00000
      9       8.1869      0.00000
     10       8.1869      0.00000
     11      14.5982      0.00000
     12      14.5982      0.00000
     13      14.5982      0.00000
     14      14.5982      0.00000
     15      14.7741      0.00000
     16      14.7741      0.00000
     17      15.3623      0.00000
     18      15.3623      0.00000
     19      17.8140      0.00000
     20      17.8140      0.00000
     21      22.7047      0.00000
     22      22.7047      0.00000
     23      22.7047      0.00000
     24      22.7047      0.00000
     25      23.0231      0.00000
     26      23.0231      0.00000
     27      25.0969      0.00000
     28      25.0969      0.00000
     29      28.1695      0.00000
     30      28.1695      0.00000
     31      28.4572      0.00000
     32      28.4572      0.00000
     33      28.4572      0.00000
     34      28.4572      0.00000
     35      32.7095      0.00000
     36      32.7095      0.00000
     37      33.0126      0.00000
     38      33.0126      0.00000
     39      33.5819      0.00000
     40      33.5819      0.00000
     41      34.2148      0.00000
     42      34.2148      0.00000
     43      34.2148      0.00000
     44      34.2148      0.00000
     45      38.2593      0.00000
     46      38.2593      0.00000
     47      38.6324      0.00000
     48      38.6324      0.00000
     49      40.5727      0.00000
     50      40.5727      0.00000
     51      40.5727      0.00000
     52      40.5727      0.00000
     53      41.5006      0.00000
     54      41.5006      0.00000
     55      41.5006      0.00000
     56      41.5006      0.00000
     57      42.0261      0.00000
     58      42.0261      0.00000
     59      43.2743      0.00000
     60      43.2743      0.00000
     61      46.9311      0.00000
     62      46.9311      0.00000
     63      47.0002      0.00000
     64      47.0002      0.00000

 k-point     7 :       0.1000    0.1000    0.0000
  band No.  band energies     occupation 
      1      -3.1605      2.00000
      2       3.6000      2.00000
      3       3.6000      2.00000
      4       4.7783      2.00000
      5       5.9726      2.05316
      6       7.1377      2.11035
      7       7.1377      0.97124
      8      10.0802      0.00000
      9      11.2284      0.00000
     10      11.2284      0.00000
     11      12.2061      0.00000
     12      12.2061      0.00000
     13      12.8769      0.00000
     14      14.1529      0.00000
     15      14.4617      0.00000
     16      14.4617      0.00000
     17      16.7431      0.00000
     18      16.7431      0.00000
     19      17.5053      0.00000
     20      17.5305      0.00000
     21      18.0288      0.00000
     22      19.8667      0.00000
     23      20.8566      0.00000
     24      21.7227      0.00000
     25      22.1360      0.00000
     26      24.8592      0.00000
     27      25.0702      0.00000
     28      25.6401      0.00000
     29      28.6346      0.00000
     30      30.8117      0.00000
     31      30.8117      0.00000
     32      31.0628      0.00000
     33      31.3916      0.00000
     34      32.2093      0.00000
     35      32.2889      0.00000
     36      32.4784      0.00000
     37      32.5250      0.00000
     38      32.5250      0.00000
     39      32.8797      0.00000
     40      33.0716      0.00000
     41      33.0716      0.00000
     42      37.7800      0.00000
     43      38.2373      0.00000
     44      38.2373      0.00000
     45      39.5539      0.00000
     46      39.5539      0.00000
     47      39.6523      0.00000
     48      39.6523      0.00000
     49      39.7747      0.00000
     50      39.9452      0.00000
     51      40.1780      0.00000
     52      40.1780      0.00000
     53      40.3983      0.00000
     54      40.5524      0.00000
     55      41.6644      0.00000
     56      42.1303      0.00000
     57      42.1303      0.00000
     58      43.0124      0.00000
     59      43.0124      0.00000
     60      44.7127      0.00000
     61      44.7127      0.00000
     62      45.1216      0.00000
     63      45.6243      0.00000
     64      45.7843      0.00000

 k-point     8 :       0.2000    0.1000    0.0000
  band No.  band energies     occupation 
      1      -2.8995      2.00000
      2       2.2163      2.00000
      3       3.8481      2.00000
      4       5.0193      2.00000
      5       6.2262      2.09917
      6       7.3844      0.84751
      7       8.7534     -0.07706
      8       8.9768      0.00000
      9       9.8549      0.00000
     10      11.0981      0.00000
     11      11.4702      0.00000
     12      12.1364      0.00000
     13      12.4367      0.00000
     14      14.7015      0.00000
     15      15.5069      0.00000
     16      16.2339      0.00000
     17      16.3168      0.00000
     18      16.9048      0.00000
     19      16.9726      0.00000
     20      18.2390      0.00000
     21      19.0865      0.00000
     22      19.2687      0.00000
     23      20.5253      0.00000
     24      22.8443      0.00000
     25      22.8995      0.00000
     26      23.3639      0.00000
     27      25.6938      0.00000
     28      26.7130      0.00000
     29      28.9124      0.00000
     30      29.0042      0.00000
     31      29.7880      0.00000
     32      29.9466      0.00000
     33      30.1378      0.00000
     34      31.1740      0.00000
     35      31.7286      0.00000
     36      32.2432      0.00000
     37      32.3398      0.00000
     38      32.4733      0.00000
     39      32.9301      0.00000
     40      33.0906      0.00000
     41      34.7317      0.00000
     42      36.8220      0.00000
     43      36.9270      0.00000
     44      37.5470      0.00000
     45      38.9851      0.00000
     46      39.6753      0.00000
     47      39.6827      0.00000
     48      39.6945      0.00000
     49      40.1836      0.00000
     50      40.5810      0.00000
     51      40.6853      0.00000
     52      40.9518      0.00000
     53      40.9755      0.00000
     54      40.9930      0.00000
     55      41.3357      0.00000
     56      41.9713      0.00000
     57      41.9799      0.00000
     58      42.0132      0.00000
     59      43.3475      0.00000
     60      43.4211      0.00000
     61      43.7457      0.00000
     62      44.9569      0.00000
     63      45.0016      0.00000
     64      46.1155      0.00000

 k-point     9 :       0.3000    0.1000    0.0000
  band No.  band energies     occupation 
      1      -2.4655      2.00000
      2       0.9591      2.00000
      3       4.2608      2.00000
      4       5.4211      2.00000
      5       6.6375      2.04491
      6       7.5588      0.49462
      7       7.7901      0.00000
      8       8.6436      0.00000
      9       9.9746      0.00000
     10      10.9899      0.00000
     11      11.0393      0.00000
     12      11.8727      0.00000
     13      12.8211      0.00000
     14      15.0609      0.00000
     15      15.1006      0.00000
     16      15.8234      0.00000
     17      17.3490      0.00000
     18      17.4280      0.00000
     19      18.2246      0.00000
     20      18.3267      0.00000
     21      19.7237      0.00000
     22      19.9940      0.00000
     23      20.5578      0.00000
     24      20.8893      0.00000
     25      24.5514      0.00000
     26      24.8435      0.00000
     27      26.2583      0.00000
     28      26.6111      0.00000
     29      27.6743      0.00000
     30      28.2835      0.00000
     31      28.6182      0.00000
     32      28.7503      0.00000
     33      29.3349      0.00000
     34      29.7473      0.00000
     35      31.1097      0.00000
     36      31.5801      0.00000
     37      32.3395      0.00000
     38      32.6273      0.00000
     39      33.0956      0.00000
     40      33.7374      0.00000
     41      35.0192      0.00000
     42      36.4062      0.00000
     43      36.6272      0.00000
     44      36.8404      0.00000
     45      37.2574      0.00000
     46      39.2479      0.00000
     47      39.3682      0.00000
     48      39.5268      0.00000
     49      39.7112      0.00000
     50      40.0371      0.00000
     51      40.6316      0.00000
     52      40.9251      0.00000
     53      41.1980      0.00000
     54      41.2109      0.00000
     55      41.2496      0.00000
     56      41.3760      0.00000
     57      42.4412      0.00000
     58      43.0487      0.00000
     59      43.6383      0.00000
     60      43.9923      0.00000
     61      44.1598      0.00000
     62      44.8451      0.00000
     63      45.0909      0.00000
     64      46.6809      0.00000

 k-point    10 :       0.4000    0.1000    0.0000
  band No.  band energies     occupation 
      1      -1.8600      2.00000
      2      -0.1441      2.00000
      3       4.8370      2.00000
      4       5.9840      2.00000
      5       6.4593      2.00706
      6       7.2651      1.74009
      7       7.5949      0.00000
      8       8.3111      0.00000
      9       8.9959      0.00000
     10      10.0267      0.00000
     11      12.4349      0.00000
     12      13.1190      0.00000
     13      13.3841      0.00000
     14      14.0321      0.00000
     15      14.8581      0.00000
     16      15.6582      0.00000
     17      17.2336      0.00000
     18      17.8002      0.00000
     19      17.8622      0.00000
     20      19.2529      0.00000
     21      19.5245      0.00000
     22      20.4848      0.00000
     23      21.8037      0.00000
     24      22.7526      0.00000
     25      24.2840      0.00000
     26      25.1897      0.00000
     27      26.0188      0.00000
     28      26.3647      0.00000
     29      26.4321      0.00000
     30      27.3217      0.00000
     31      27.4050      0.00000
     32      27.7807      0.00000
     33      29.7370      0.00000
     34      30.4210      0.00000
     35      30.6329      0.00000
     36      30.6859      0.00000
     37      32.8021      0.00000
     38      33.0569      0.00000
[...]
     64      47.2747      0.00000

 k-point    52 :       0.5000    0.5000    0.3000
  band No.  band energies     occupation 
      1       1.7230      2.00000
      2       1.7230      2.00000
      3       1.7230      2.00000
      4       1.7230      2.00000
      5       5.0607      2.00000
      6       5.0607      2.00000
      7       5.0607      2.00000
      8       5.0607      2.07213
      9      14.8071      0.00000
     10      14.8071      0.00000
     11      14.8071      0.00000
     12      14.8071      0.00000
     13      17.1647      0.00000
     14      17.1647      0.00000
     15      17.1647      0.00000
     16      17.1647      0.00000
     17      18.9122      0.00000
     18      18.9122      0.00000
     19      18.9122      0.00000
     20      18.9122      0.00000
     21      20.2345      0.00000
     22      20.2345      0.00000
     23      20.2345      0.00000
     24      20.2345      0.00000
     25      22.9693      0.00000
     26      22.9693      0.00000
     27      22.9693      0.00000
     28      22.9693      0.00000
     29      25.2099      0.00000
     30      25.2099      0.00000
     31      25.2099      0.00000
     32      25.2099      0.00000
     33      29.0470      0.00000
     34      29.0470      0.00000
     35      29.0470      0.00000
     36      29.0470      0.00000
     37      30.4844      0.00000
     38      30.4844      0.00000
     39      30.4844      0.00000
     40      30.4844      0.00000
     41      36.2169      0.00000
     42      36.2169      0.00000
     43      36.2169      0.00000
     44      36.2169      0.00000
     45      38.3124      0.00000
     46      38.3124      0.00000
     47      38.3124      0.00000
     48      38.3124      0.00000
     49      39.9264      0.00000
     50      39.9264      0.00000
     51      39.9264      0.00000
     52      39.9264      0.00000
     53      44.6664      0.00000
     54      44.6664      0.00000
     55      44.6664      0.00000
     56      44.6664      0.00000
     57      45.6636      0.00000
     58      45.6636      0.00000
     59      45.6636      0.00000
     60      45.6636      0.00000
     61      47.2347      0.00000
     62      47.2347      0.00000
     63      47.2347      0.00000
     64      47.2347      0.00000

 k-point    53 :       0.4000    0.4000    0.4000
  band No.  band energies     occupation 
      1       0.7927      2.00000
      2       2.4796      2.00000
      3       2.4796      2.00000
      4       2.4796      2.00000
      5       4.1513      2.00000
      6       4.1513      2.00000
      7       4.1513      2.00000
      8       5.8056      2.06568
      9      15.5103      0.00000
     10      15.5103      0.00000
     11      15.5103      0.00000
     12      16.3422      0.00000
     13      16.3422      0.00000
     14      16.3422      0.00000
     15      17.8349      0.00000
     16      17.8349      0.00000
     17      18.0263      0.00000
     18      18.0263      0.00000
     19      18.0263      0.00000
     20      19.3974      0.00000
     21      19.3974      0.00000
     22      20.8984      0.00000
     23      20.8984      0.00000
     24      20.8984      0.00000
     25      21.3796      0.00000
     26      23.1514      0.00000
     27      23.5540      0.00000
     28      23.5540      0.00000
     29      23.5540      0.00000
     30      24.5315      0.00000
     31      24.5315      0.00000
     32      24.5315      0.00000
     33      29.1640      0.00000
     34      29.1640      0.00000
     35      29.1640      0.00000
     36      29.6258      0.00000
     37      29.6258      0.00000
     38      31.4277      0.00000
     39      31.4277      0.00000
     40      31.4277      0.00000
     41      35.9796      0.00000
     42      37.3918      0.00000
     43      37.3918      0.00000
     44      37.3918      0.00000
     45      37.4405      0.00000
     46      37.4405      0.00000
     47      37.4405      0.00000
     48      38.7775      0.00000
     49      38.7775      0.00000
     50      38.7775      0.00000
     51      39.1589      0.00000
     52      39.1589      0.00000
     53      44.4627      0.00000
     54      45.0253      0.00000
     55      45.0253      0.00000
     56      45.0253      0.00000
     57      46.0548      0.00000
     58      46.0548      0.00000
     59      46.0645      0.00000
     60      47.4639      0.00000
     61      47.4639      0.00000
     62      47.4639      0.00000
     63      47.8393      0.00000
     64      47.8393      0.00000

 k-point    54 :       0.5000    0.4000    0.4000
  band No.  band energies     occupation 
      1       1.5544      2.00000
      2       1.5544      2.00000
      3       3.2009      2.00000
      4       3.2009      2.00000
      5       3.2677      2.00000
      6       3.2677      2.00000
      7       4.8978      2.00000
      8       4.8978      2.02235
      9      16.0978      0.00000
     10      16.0978      0.00000
     11      16.1330      0.00000
     12      16.1330      0.00000
     13      17.0188      0.00000
     14      17.0188      0.00000
     15      17.5637      0.00000
     16      17.5637      0.00000
     17      18.3584      0.00000
     18      18.3584      0.00000
     19      19.2873      0.00000
     20      19.2873      0.00000
     21      19.6033      0.00000
     22      19.6033      0.00000
     23      20.0656      0.00000
     24      20.0656      0.00000
     25      22.2517      0.00000
     26      22.2517      0.00000
     27      23.2634      0.00000
     28      23.2634      0.00000
     29      23.3070      0.00000
     30      23.3070      0.00000
     31      24.0342      0.00000
     32      24.0342      0.00000
     33      29.5052      0.00000
     34      29.5052      0.00000
     35      30.2867      0.00000
     36      30.2867      0.00000
     37      30.9307      0.00000
     38      30.9307      0.00000
     39      31.0908      0.00000
     40      31.0908      0.00000
     41      36.9668      0.00000
     42      36.9668      0.00000
     43      37.1467      0.00000
     44      37.1467      0.00000
     45      37.4401      0.00000
     46      37.4401      0.00000
     47      37.6241      0.00000
     48      37.6241      0.00000
     49      38.6284      0.00000
     50      38.6284      0.00000
     51      38.8550      0.00000
     52      38.8550      0.00000
     53      44.4860      0.00000
     54      44.4860      0.00000
     55      44.6350      0.00000
     56      44.6350      0.00000
     57      46.6744      0.00000
     58      46.6744      0.00000
     59      46.8956      0.00000
     60      46.8956      0.00000
     61      48.1429      0.00000
     62      48.1429      0.00000
     63      48.2089      0.00000
     64      48.2089      0.00000

 k-point    55 :       0.5000    0.5000    0.4000
  band No.  band energies     occupation 
      1       2.3124      2.00000
      2       2.3124      2.00000
      3       2.3124      2.00000
      4       2.3124      2.00000
      5       3.9856      2.00000
      6       3.9856      2.00000
      7       3.9856      2.00000
      8       3.9856      2.00000
      9      16.7371      0.00000
     10      16.7371      0.00000
     11      16.7371      0.00000
     12      16.7371      0.00000
     13      17.6849      0.00000
     14      17.6849      0.00000
     15      17.6849      0.00000
     16      17.6849      0.00000
     17      19.0451      0.00000
     18      19.0451      0.00000
     19      19.0451      0.00000
     20      19.0451      0.00000
     21      19.2578      0.00000
     22      19.2578      0.00000
     23      19.2578      0.00000
     24      19.2578      0.00000
     25      22.2192      0.00000
     26      22.2192      0.00000
     27      22.2192      0.00000
     28      22.2192      0.00000
     29      23.1381      0.00000
     30      23.1381      0.00000
     31      23.1381      0.00000
     32      23.1381      0.00000
     33      30.6001      0.00000
     34      30.6001      0.00000
     35      30.6001      0.00000
     36      30.6001      0.00000
     37      31.1172      0.00000
     38      31.1172      0.00000
     39      31.1172      0.00000
     40      31.1172      0.00000
     41      36.8585      0.00000
     42      36.8585      0.00000
     43      36.8585      0.00000
     44      36.8585      0.00000
     45      37.8803      0.00000
     46      37.8803      0.00000
     47      37.8803      0.00000
     48      37.8803      0.00000
     49      37.9918      0.00000
     50      37.9918      0.00000
     51      37.9918      0.00000
     52      37.9918      0.00000
     53      44.1073      0.00000
     54      44.1073      0.00000
     55      44.1073      0.00000
     56      44.1073      0.00000
     57      47.6590      0.00000
     58      47.6590      0.00000
     59      47.6590      0.00000
     60      47.6590      0.00000
     61      48.3494      0.00000
     62      48.3494      0.00000
     63      48.3494      0.00000
     64      48.3494      0.00000

 k-point    56 :       0.5000    0.5000    0.5000
  band No.  band energies     occupation 
      1       3.0391      2.00000
      2       3.0391      2.00000
      3       3.0391      2.00000
      4       3.0391      2.00000
      5       3.0965      2.00000
      6       3.0965      2.00000
      7       3.0965      2.00000
      8       3.0965      2.00000
      9      18.1975      0.00000
     10      18.1975      0.00000
     11      18.1975      0.00000
     12      18.1975      0.00000
     13      18.1975      0.00000
     14      18.1975      0.00000
     15      18.1975      0.00000
     16      18.1975      0.00000
     17      18.5928      0.00000
     18      18.5928      0.00000
     19      18.5928      0.00000
     20      18.5928      0.00000
     21      18.5928      0.00000
     22      18.5928      0.00000
     23      18.5928      0.00000
     24      18.5928      0.00000
     25      21.9361      0.00000
     26      21.9361      0.00000
     27      21.9361      0.00000
     28      21.9361      0.00000
     29      22.1512      0.00000
     30      22.1512      0.00000
     31      22.1512      0.00000
     32      22.1512      0.00000
     33      31.3512      0.00000
     34      31.3512      0.00000
     35      31.3512      0.00000
     36      31.3512      0.00000
     37      31.3512      0.00000
     38      31.3512      0.00000
     39      31.3512      0.00000
     40      31.3512      0.00000
     41      37.1103      0.00000
     42      37.1103      0.00000
     43      37.1103      0.00000
     44      37.1103      0.00000
     45      37.1103      0.00000
     46      37.1103      0.00000
     47      37.1103      0.00000
     48      37.1103      0.00000
     49      37.7665      0.00000
     50      37.7665      0.00000
     51      37.7665      0.00000
     52      37.7665      0.00000
     53      43.5745      0.00000
     54      43.5745      0.00000
     55      43.5745      0.00000
     56      43.5745      0.00000
     57      48.6177      0.00000
     58      48.6177      0.00000
     59      48.6177      0.00000
     60      48.6177      0.00000
     61      49.5558      0.00000
     62      49.5558      0.00000
     63      49.5558      0.00000
     64      49.5558      0.00000


--------------------------------------------------------------------------------------------------------


 soft charge-density along one line, spin component           1
         0         1         2         3         4         5         6         7         8         9
 total charge-density along one line
 
 pseudopotential strength for first ion, spin component:           1
  8.463  14.425  -0.000  -0.000  -0.000  -0.000  -0.000   0.000
 14.425  24.587  -0.000  -0.000  -0.000  -0.000  -0.000   0.000
 -0.000  -0.000   1.985  -0.000  -0.000   5.728  -0.000  -0.000
 -0.000  -0.000  -0.000   1.985   0.000  -0.000   5.728   0.000
 -0.000  -0.000  -0.000   0.000   1.985  -0.000   0.000   5.728
 -0.000  -0.000   5.728  -0.000  -0.000  16.440  -0.000  -0.000
 -0.000  -0.000  -0.000   5.728   0.000  -0.000  16.440   0.000
  0.000   0.000  -0.000   0.000   5.728  -0.000   0.000  16.440
 total augmentation occupancy for first ion, spin component:           1
  3.108  -0.717   0.000   0.000  -0.000   0.000   0.000  -0.000
 -0.717   0.237  -0.000  -0.000  -0.000   0.000   0.000   0.000
  0.000  -0.000   1.019   0.000   0.000  -0.063  -0.000  -0.000
  0.000  -0.000   0.000   1.019   0.000  -0.000  -0.063  -0.000
 -0.000  -0.000   0.000   0.000   1.019  -0.000  -0.000  -0.063
  0.000   0.000  -0.063  -0.000  -0.000   0.004   0.000   0.000
  0.000   0.000  -0.000  -0.063  -0.000   0.000   0.004   0.000
 -0.000   0.000  -0.000  -0.000  -0.063   0.000   0.000   0.004


------------------------ aborting loop because EDIFF is reached ----------------------------------------


    CHARGE:  cpu time      0.0246: real time      0.0247
    FORLOC:  cpu time      0.0004: real time      0.0005
    FORNL :  cpu time      0.0294: real time      0.0298
    STRESS:  cpu time      0.4503: real time      0.4551
    FORCOR:  cpu time      0.0039: real time      0.0039
    FORHAR:  cpu time      0.0011: real time      0.0012
    MIXING:  cpu time      0.0005: real time      0.0005
    OFIELD:  cpu time      0.0004: real time      0.0005

  FORCE on cell =-STRESS in cart. coord.  units (eV):
  Direction    XX          YY          ZZ          XY          YZ          ZX
  --------------------------------------------------------------------------------------
  Alpha Z    -0.76773    -0.76773    -0.76773
  Ewald     -96.11720   -96.11720   -96.11720    -0.00000     0.00000     0.00000
  Hartree     0.13132     0.13132     0.13132    -0.00000    -0.00000    -0.00000
  E(xc)     -33.63890   -33.63890   -33.63890     0.00000     0.00000     0.00000
  Local       0.34909     0.34909     0.34909     0.00000     0.00000    -0.00000
  n-local    73.64952    74.49177    75.95941     0.12192     0.73636     0.27940
  augment    -4.28726    -4.28726    -4.28726     0.00000     0.00000     0.00000
  Kinetic    55.57145    57.13139    60.84019     1.69604    -7.82834    -1.47561
  Fock        0.00000     0.00000     0.00000     0.00000     0.00000     0.00000
  -------------------------------------------------------------------------------------
  Total      -1.78277    -1.78277    -1.78277    -0.00000    -0.00000    -0.00000
  in kB     -40.80446   -40.80446   -40.80446    -0.00000    -0.00000    -0.00000
  external pressure =      -40.80 kB  Pullay stress =        0.00 kB


 VOLUME and BASIS-vectors are now :
 -----------------------------------------------------------------------------
  energy-cutoff  :      520.00
  volume of cell :       70.00
      direct lattice vectors                 reciprocal lattice vectors
     4.121285300  0.000000000  0.000000000     0.242642750 -0.000000000  0.000000000
     0.000000000  4.121285300  0.000000000     0.000000000  0.242642750  0.000000000
     0.000000000  0.000000000  4.121285300    -0.000000000 -0.000000000  0.242642750

  length of vectors
     4.121285300  4.121285300  4.121285300     0.242642750  0.242642750  0.242642750


 FORCES acting on ions
    electron-ion (+dipol)            ewald-force                    non-local-force                 convergence-correction
 -----------------------------------------------------------------------------------------------
   0.263E-14 0.160E-14 0.106E-15   0.622E-16 0.965E-16 -.142E-15   0.491E-19 -.527E-19 -.221E-18   -.871E-18 -.107E-14 -.706E-16
   0.282E-14 -.128E-14 -.242E-14   0.613E-16 0.335E-15 0.348E-15   -.643E-19 -.436E-19 0.753E-20   0.474E-17 0.107E-14 0.694E-16
   0.412E-15 0.230E-14 -.385E-13   0.294E-16 -.332E-15 0.346E-15   -.103E-19 0.152E-19 -.174E-19   0.681E-17 -.784E-15 0.735E-16
   0.971E-15 0.382E-15 0.119E-14   0.303E-16 -.888E-16 -.453E-15   -.684E-19 -.205E-19 0.355E-19   0.326E-18 0.789E-15 -.736E-16
 -----------------------------------------------------------------------------------------------
   0.683E-14 0.299E-14 -.396E-13   0.183E-15 0.101E-16 0.990E-16   -.939E-19 -.102E-18 -.196E-18   0.110E-16 0.613E-17 -.135E-17
 
 
 POSITION                                       TOTAL-FORCE (eV/Angst)
 -----------------------------------------------------------------------------------
      0.00000      0.00000      0.00000         0.000000     -0.000000      0.000000
      0.00000      2.06064      2.06064         0.000000      0.000000     -0.000000
      2.06064      0.00000      2.06064        -0.000000     -0.000000     -0.000000
      2.06064      2.06064      0.00000         0.000000      0.000000      0.000000
 -----------------------------------------------------------------------------------
    total drift:                                0.000000      0.000000     -0.000000


--------------------------------------------------------------------------------------------------------



  FREE ENERGIE OF THE ION-ELECTRON SYSTEM (eV)
  ---------------------------------------------------
  free  energy   TOTEN  =       -14.92243984 eV

  energy  without entropy=      -14.92243984  energy(sigma->0) =      -14.92243984
 


--------------------------------------------------------------------------------------------------------


    POTLOK:  cpu time      0.0068: real time      0.0069


--------------------------------------------------------------------------------------------------------


     LOOP+:  cpu time     61.4892: real time     61.8597
 -----------------------------------------------------------------------------
|                                                                             |
|           W    W    AA    RRRRR   N    N  II  N    N   GGGG   !!!           |
|           W    W   A  A   R    R  NN   N  II  NN   N  G    G  !!!           |
|           W    W  A    A  R    R  N N  N  II  N N  N  G       !!!           |
|           W WW W  AAAAAA  RRRRR   N  N N  II  N  N N  G  GGG   !            |
|           WW  WW  A    A  R   R   N   NN  II  N   NN  G    G                |
|           W    W  A    A  R    R  N    N  II  N    N   GGGG   !!!           |
|                                                                             |
|     Tetrahedron method does not include variations of the Fermi             |
|     occupations, so forces and stress will be inaccurate. We suggest        |
|     using a different smearing scheme ISMEAR = 1 or 2 for metals in         |
|     relaxations.                                                            |
|                                                                             |
 -----------------------------------------------------------------------------

    4ORBIT:  cpu time      0.0000: real time      0.0000
 BZINTS: Fermi energy:    7.366104;   12.000000 electrons
         Band energy: 0.376252E+02;  BLOECHL correction:   -0.237671

 total amount of memory used by VASP MPI-rank0    40910. kBytes
=======================================================================

   base      :      30000. kBytes
   nonl-proj :       7237. kBytes
   fftplans  :        299. kBytes
   grid      :       1527. kBytes
   one-center:         12. kBytes
   wavefun   :       1835. kBytes
 
  
  
 General timing and accounting informations for this job:
 ========================================================
  
                  Total CPU time used (sec):       64.504
                            User time (sec):       62.347
                          System time (sec):        2.157
                         Elapsed time (sec):       67.369
  
                   Maximum memory used (kb):      679536.
                   Average memory used (kb):          N/A
  
                          Minor page faults:       144981
                          Major page faults:          129
                 Voluntary context switches:         4862
