  16  16   1   0
  0.1993750E+02  0.7133547E-09  0.6829173E-09  0.7049365E-09  0.5000000E-15
  1.000000000000000E-004
  CAR 
 unknown system                          
      9.23084306    -52.93362815  301      3.34096327      1.00000000
    -52.934  0.0000E+00  0.0000E+00  0.0000E+00  0.0000E+00
    -52.726  0.0000E+00  0.0000E+00  0.0000E+00  0.0000E+00
    -52.519  0.0000E+00  0.0000E+00  0.0000E+00  0.0000E+00
    -52.312  0.0000E+00  0.0000E+00  0.0000E+00  0.0000E+00
    -52.105  0.0000E+00  0.0000E+00  0.0000E+00  0.0000E+00
    -51.898  0.0000E+00  0.0000E+00  0.0000E+00  0.0000E+00
    -51.690  0.0000E+00  0.0000E+00  0.0000E+00  0.0000E+00
    -51.483  0.0000E+00  0.0000E+00  0.0000E+00  0.0000E+00
    -51.276  0.0000E+00  0.0000E+00  0.0000E+00  0.0000E+00
    -51.069  0.0000E+00  0.0000E+00  0.0000E+00  0.0000E+00
    -50.861  0.0000E+00  0.0000E+00  0.0000E+00  0.0000E+00
    -50.654  0.0000E+00  0.0000E+00  0.0000E+00  0.0000E+00
    -50.447  0.0000E+00  0.0000E+00  0.0000E+00  0.0000E+00
    -50.240  0.0000E+00  0.0000E+00  0.0000E+00  0.0000E+00
    -50.033  0.9652E+01  0.9652E+01  0.2000E+01  0.2000E+01
    -49.825  0.9652E+01  0.9652E+01  0.4000E+01  0.4000E+01
    -49.618  0.4942E+02  0.4942E+02  0.9473E+01  0.9473E+01
    -49.411  0.5949E+02  0.5949E+02  0.2200E+02  0.2200E+02
    -49.204  0.9652E+01  0.9652E+01  0.2400E+02  0.2400E+02
    -48.997  0.0000E+00  0.0000E+00  0.2400E+02  0.2400E+02
    -48.789  0.0000E+00  0.0000E+00  0.2400E+02  0.2400E+02
    -48.582  0.0000E+00  0.0000E+00  0.2400E+02  0.2400E+02
    -48.375  0.0000E+00  0.0000E+00  0.2400E+02  0.2400E+02
    -48.168  0.0000E+00  0.0000E+00  0.2400E+02  0.2400E+02
    -47.960  0.0000E+00  0.0000E+00  0.2400E+02  0.2400E+02
    -47.753  0.0000E+00  0.0000E+00  0.2400E+02  0.2400E+02
    -47.546  0.0000E+00  0.0000E+00  0.2400E+02  0.2400E+02
    -47.339  0.0000E+00  0.0000E+00  0.2400E+02  0.2400E+02
    -47.132  0.0000E+00  0.0000E+00  0.2400E+02  0.2400E+02
    -46.924  0.0000E+00  0.0000E+00  0.2400E+02  0.2400E+02
    -46.717  0.0000E+00  0.0000E+00  0.2400E+02  0.2400E+02
    -46.510  0.0000E+00  0.0000E+00  0.2400E+02  0.2400E+02
    -46.303  0.0000E+00  0.0000E+00  0.2400E+02  0.2400E+02
    -46.096  0.0000E+00  0.0000E+00  0.2400E+02  0.2400E+02
    -45.888  0.0000E+00  0.0000E+00  0.2400E+02  0.2400E+02
    -45.681  0.0000E+00  0.0000E+00  0.2400E+02  0.2400E+02
    -45.474  0.0000E+00  0.0000E+00  0.2400E+02  0.2400E+02
    -45.267  0.0000E+00  0.0000E+00  0.2400E+02  0.2400E+02
    -45.059  0.0000E+00  0.0000E+00  0.2400E+02  0.2400E+02
    -44.852  0.0000E+00  0.0000E+00  0.2400E+02  0.2400E+02
    -44.645  0.0000E+00  0.0000E+00  0.2400E+02  0.2400E+02
    -44.438  0.0000E+00  0.0000E+00  0.2400E+02  0.2400E+02
    -44.231  0.0000E+00  0.0000E+00  0.2400E+02  0.2400E+02
    -44.023  0.0000E+00  0.0000E+00  0.2400E+02  0.2400E+02
    -43.816  0.0000E+00  0.0000E+00  0.2400E+02  0.2400E+02
    -43.609  0.0000E+00  0.0000E+00  0.2400E+02  0.2400E+02
    -43.402  0.0000E+00  0.0000E+00  0.2400E+02  0.2400E+02
    -43.195  0.0000E+00  0.0000E+00  0.2400E+02  0.2400E+02
    -42.987  0.0000E+00  0.0000E+00  0.2400E+02  0.2400E+02
    -42.780  0.0000E+00  0.0000E+00  0.2400E+02  0.2400E+02
    -42.573  0.0000E+00  0.0000E+00  0.2400E+02  0.2400E+02
    -42.366  0.0000E+00  0.0000E+00  0.2400E+02  0.2400E+02
    -42.158  0.0000E+00  0.0000E+00  0.2400E+02  0.2400E+02
    -41.951  0.0000E+00  0.0000E+00  0.2400E+02  0.2400E+02
    -41.744  0.0000E+00  0.0000E+00  0.2400E+02  0.2400E+02
    -41.537  0.0000E+00  0.0000E+00  0.2400E+02  0.2400E+02
    -41.330  0.0000E+00  0.0000E+00  0.2400E+02  0.2400E+02
    -41.122  0.0000E+00  0.0000E+00  0.2400E+02  0.2400E+02
    -40.915  0.0000E+00  0.0000E+00  0.2400E+02  0.2400E+02
    -40.708  0.0000E+00  0.0000E+00  0.2400E+02  0.2400E+02
    -40.501  0.0000E+00  0.0000E+00  0.2400E+02  0.2400E+02
    -40.294  0.0000E+00  0.0000E+00  0.2400E+02  0.2400E+02
    -40.086  0.0000E+00  0.0000E+00  0.2400E+02  0.2400E+02
    -39.879  0.0000E+00  0.0000E+00  0.2400E+02  0.2400E+02
    -39.672  0.0000E+00  0.0000E+00  0.2400E+02  0.2400E+02
    -39.465  0.0000E+00  0.0000E+00  0.2400E+02  0.2400E+02
    -39.257  0.0000E+00  0.0000E+00  0.2400E+02  0.2400E+02
    -39.050  0.0000E+00  0.0000E+00  0.2400E+02  0.2400E+02
    -38.843  0.0000E+00  0.0000E+00  0.2400E+02  0.2400E+02
    -38.636  0.0000E+00  0.0000E+00  0.2400E+02  0.2400E+02
    -38.429  0.0000E+00  0.0000E+00  0.2400E+02  0.2400E+02
    -38.221  0.0000E+00  0.0000E+00  0.2400E+02  0.2400E+02
    -38.014  0.0000E+00  0.0000E+00  0.2400E+02  0.2400E+02
    -37.807  0.0000E+00  0.0000E+00  0.2400E+02  0.2400E+02
    -37.600  0.0000E+00  0.0000E+00  0.2400E+02  0.2400E+02
    -37.393  0.0000E+00  0.0000E+00  0.2400E+02  0.2400E+02
    -37.185  0.0000E+00  0.0000E+00  0.2400E+02  0.2400E+02
    -36.978  0.0000E+00  0.0000E+00  0.2400E+02  0.2400E+02
    -36.771  0.0000E+00  0.0000E+00  0.2400E+02  0.2400E+02
    -36.564  0.0000E+00  0.0000E+00  0.2400E+02  0.2400E+02
    -36.356  0.0000E+00  0.0000E+00  0.2400E+02  0.2400E+02
    -36.149  0.0000E+00  0.0000E+00  0.2400E+02  0.2400E+02
    -35.942  0.0000E+00  0.0000E+00  0.2400E+02  0.2400E+02
    -35.735  0.0000E+00  0.0000E+00  0.2400E+02  0.2400E+02
    -35.528  0.0000E+00  0.0000E+00  0.2400E+02  0.2400E+02
    -35.320  0.0000E+00  0.0000E+00  0.2400E+02  0.2400E+02
    -35.113  0.0000E+00  0.0000E+00  0.2400E+02  0.2400E+02
    -34.906  0.0000E+00  0.0000E+00  0.2400E+02  0.2400E+02
    -34.699  0.0000E+00  0.0000E+00  0.2400E+02  0.2400E+02
    -34.492  0.0000E+00  0.0000E+00  0.2400E+02  0.2400E+02
    -34.284  0.0000E+00  0.0000E+00  0.2400E+02  0.2400E+02
    -34.077  0.0000E+00  0.0000E+00  0.2400E+02  0.2400E+02
    -33.870  0.0000E+00  0.0000E+00  0.2400E+02  0.2400E+02
    -33.663  0.0000E+00  0.0000E+00  0.2400E+02  0.2400E+02
    -33.455  0.0000E+00  0.0000E+00  0.2400E+02  0.2400E+02
    -33.248  0.0000E+00  0.0000E+00  0.2400E+02  0.2400E+02
    -33.041  0.0000E+00  0.0000E+00  0.2400E+02  0.2400E+02
    -32.834  0.0000E+00  0.0000E+00  0.2400E+02  0.2400E+02
    -32.627  0.0000E+00  0.0000E+00  0.2400E+02  0.2400E+02
    -32.419  0.0000E+00  0.0000E+00  0.2400E+02  0.2400E+02
    -32.212  0.0000E+00  0.0000E+00  0.2400E+02  0.2400E+02
    -32.005  0.0000E+00  0.0000E+00  0.2400E+02  0.2400E+02
    -31.798  0.0000E+00  0.0000E+00  0.2400E+02  0.2400E+02
    -31.590  0.0000E+00  0.0000E+00  0.2400E+02  0.2400E+02
    -31.383  0.0000E+00  0.0000E+00  0.2400E+02  0.2400E+02
    -31.176  0.0000E+00  0.0000E+00  0.2400E+02  0.2400E+02
    -30.969  0.0000E+00  0.0000E+00  0.2400E+02  0.2400E+02
    -30.762  0.0000E+00  0.0000E+00  0.2400E+02  0.2400E+02
    -30.554  0.0000E+00  0.0000E+00  0.2400E+02  0.2400E+02
    -30.347  0.0000E+00  0.0000E+00  0.2400E+02  0.2400E+02
    -30.140  0.0000E+00  0.0000E+00  0.2400E+02  0.2400E+02
    -29.933  0.0000E+00  0.0000E+00  0.2400E+02  0.2400E+02
    -29.726  0.0000E+00  0.0000E+00  0.2400E+02  0.2400E+02
    -29.518  0.0000E+00  0.0000E+00  0.2400E+02  0.2400E+02
    -29.311  0.0000E+00  0.0000E+00  0.2400E+02  0.2400E+02
    -29.104  0.0000E+00  0.0000E+00  0.2400E+02  0.2400E+02
    -28.897  0.0000E+00  0.0000E+00  0.2400E+02  0.2400E+02
    -28.689  0.0000E+00  0.0000E+00  0.2400E+02  0.2400E+02
    -28.482  0.0000E+00  0.0000E+00  0.2400E+02  0.2400E+02
    -28.275  0.0000E+00  0.0000E+00  0.2400E+02  0.2400E+02
    -28.068  0.0000E+00  0.0000E+00  0.2400E+02  0.2400E+02
    -27.861  0.0000E+00  0.0000E+00  0.2400E+02  0.2400E+02
    -27.653  0.0000E+00  0.0000E+00  0.2400E+02  0.2400E+02
    -27.446  0.0000E+00  0.0000E+00  0.2400E+02  0.2400E+02
    -27.239  0.0000E+00  0.0000E+00  0.2400E+02  0.2400E+02
    -27.032  0.0000E+00  0.0000E+00  0.2400E+02  0.2400E+02
    -26.825  0.0000E+00  0.0000E+00  0.2400E+02  0.2400E+02
    -26.617  0.0000E+00  0.0000E+00  0.2400E+02  0.2400E+02
    -26.410  0.0000E+00  0.0000E+00  0.2400E+02  0.2400E+02
    -26.203  0.0000E+00  0.0000E+00  0.2400E+02  0.2400E+02
    -25.996  0.0000E+00  0.0000E+00  0.2400E+02  0.2400E+02
    -25.788  0.0000E+00  0.0000E+00  0.2400E+02  0.2400E+02
    -25.581  0.0000E+00  0.0000E+00  0.2400E+02  0.2400E+02
    -25.374  0.0000E+00  0.0000E+00  0.2400E+02  0.2400E+02
    -25.167  0.0000E+00  0.0000E+00  0.2400E+02  0.2400E+02
    -24.960  0.0000E+00  0.0000E+00  0.2400E+02  0.2400E+02
    -24.752  0.0000E+00  0.0000E+00  0.2400E+02  0.2400E+02
    -24.545  0.0000E+00  0.0000E+00  0.2400E+02  0.2400E+02
    -24.338  0.0000E+00  0.0000E+00  0.2400E+02  0.2400E+02
    -24.131  0.0000E+00  0.0000E+00  0.2400E+02  0.2400E+02
    -23.924  0.0000E+00  0.0000E+00  0.2400E+02  0.2400E+02
    -23.716  0.0000E+00  0.0000E+00  0.2400E+02  0.2400E+02
    -23.509  0.0000E+00  0.0000E+00  0.2400E+02  0.2400E+02
    -23.302  0.0000E+00  0.0000E+00  0.2400E+02  0.2400E+02
    -23.095  0.0000E+00  0.0000E+00  0.2400E+02  0.2400E+02
    -22.887  0.0000E+00  0.0000E+00  0.2400E+02  0.2400E+02
    -22.680  0.0000E+00  0.0000E+00  0.2400E+02  0.2400E+02
    -22.473  0.0000E+00  0.0000E+00  0.2400E+02  0.2400E+02
    -22.266  0.0000E+00  0.0000E+00  0.2400E+02  0.2400E+02
    -22.059  0.0000E+00  0.0000E+00  0.2400E+02  0.2400E+02
    -21.851  0.0000E+00  0.0000E+00  0.2400E+02  0.2400E+02
    -21.644  0.0000E+00  0.0000E+00  0.2400E+02  0.2400E+02
    -21.437  0.0000E+00  0.0000E+00  0.2400E+02  0.2400E+02
    -21.230  0.0000E+00  0.0000E+00  0.2400E+02  0.2400E+02
    -21.023  0.0000E+00  0.0000E+00  0.2400E+02  0.2400E+02
    -20.815  0.0000E+00  0.0000E+00  0.2400E+02  0.2400E+02
    -20.608  0.0000E+00  0.0000E+00  0.2400E+02  0.2400E+02
    -20.401  0.0000E+00  0.0000E+00  0.2400E+02  0.2400E+02
    -20.194  0.0000E+00  0.0000E+00  0.2400E+02  0.2400E+02
    -19.986  0.0000E+00  0.0000E+00  0.2400E+02  0.2400E+02
    -19.779  0.0000E+00  0.0000E+00  0.2400E+02  0.2400E+02
    -19.572  0.0000E+00  0.0000E+00  0.2400E+02  0.2400E+02
    -19.365  0.0000E+00  0.0000E+00  0.2400E+02  0.2400E+02
    -19.158  0.0000E+00  0.0000E+00  0.2400E+02  0.2400E+02
    -18.950  0.0000E+00  0.0000E+00  0.2400E+02  0.2400E+02
    -18.743  0.0000E+00  0.0000E+00  0.2400E+02  0.2400E+02
    -18.536  0.0000E+00  0.0000E+00  0.2400E+02  0.2400E+02
    -18.329  0.0000E+00  0.0000E+00  0.2400E+02  0.2400E+02
    -18.122  0.0000E+00  0.0000E+00  0.2400E+02  0.2400E+02
    -17.914  0.0000E+00  0.0000E+00  0.2400E+02  0.2400E+02
    -17.707  0.0000E+00  0.0000E+00  0.2400E+02  0.2400E+02
    -17.500  0.0000E+00  0.0000E+00  0.2400E+02  0.2400E+02
    -17.293  0.0000E+00  0.0000E+00  0.2400E+02  0.2400E+02
    -17.085  0.0000E+00  0.0000E+00  0.2400E+02  0.2400E+02
    -16.878  0.0000E+00  0.0000E+00  0.2400E+02  0.2400E+02
    -16.671  0.0000E+00  0.0000E+00  0.2400E+02  0.2400E+02
    -16.464  0.0000E+00  0.0000E+00  0.2400E+02  0.2400E+02
    -16.257  0.0000E+00  0.0000E+00  0.2400E+02  0.2400E+02
    -16.049  0.0000E+00  0.0000E+00  0.2400E+02  0.2400E+02
    -15.842  0.0000E+00  0.0000E+00  0.2400E+02  0.2400E+02
    -15.635  0.0000E+00  0.0000E+00  0.2400E+02  0.2400E+02
    -15.428  0.0000E+00  0.0000E+00  0.2400E+02  0.2400E+02
    -15.221  0.0000E+00  0.0000E+00  0.2400E+02  0.2400E+02
    -15.013  0.0000E+00  0.0000E+00  0.2400E+02  0.2400E+02
    -14.806  0.0000E+00  0.0000E+00  0.2400E+02  0.2400E+02
    -14.599  0.0000E+00  0.0000E+00  0.2400E+02  0.2400E+02
    -14.392  0.0000E+00  0.0000E+00  0.2400E+02  0.2400E+02
    -14.184  0.0000E+00  0.0000E+00  0.2400E+02  0.2400E+02
    -13.977  0.0000E+00  0.0000E+00  0.2400E+02  0.2400E+02
    -13.770  0.0000E+00  0.0000E+00  0.2400E+02  0.2400E+02
    -13.563  0.0000E+00  0.0000E+00  0.2400E+02  0.2400E+02
    -13.356  0.0000E+00  0.0000E+00  0.2400E+02  0.2400E+02
    -13.148  0.0000E+00  0.0000E+00  0.2400E+02  0.2400E+02
    -12.941  0.0000E+00  0.0000E+00  0.2400E+02  0.2400E+02
    -12.734  0.0000E+00  0.0000E+00  0.2400E+02  0.2400E+02
    -12.527  0.0000E+00  0.0000E+00  0.2400E+02  0.2400E+02
    -12.320  0.0000E+00  0.0000E+00  0.2400E+02  0.2400E+02
    -12.112  0.0000E+00  0.0000E+00  0.2400E+02  0.2400E+02
    -11.905  0.0000E+00  0.0000E+00  0.2400E+02  0.2400E+02
    -11.698  0.0000E+00  0.0000E+00  0.2400E+02  0.2400E+02
    -11.491  0.0000E+00  0.0000E+00  0.2400E+02  0.2400E+02
    -11.283  0.1102E+01  0.1102E+01  0.2404E+02  0.2404E+02
    -11.076  0.2899E+01  0.2899E+01  0.2443E+02  0.2443E+02
    -10.869  0.2462E+01  0.2462E+01  0.2490E+02  0.2490E+02
    -10.662  0.4381E+01  0.4381E+01  0.2552E+02  0.2552E+02
    -10.455  0.7942E+01  0.7942E+01  0.2638E+02  0.2638E+02
    -10.247  0.3765E+01  0.3765E+01  0.2716E+02  0.2716E+02
    -10.040  0.3728E+01  0.3728E+01  0.2780E+02  0.2780E+02
     -9.833  0.1049E+02  0.1049E+02  0.2909E+02  0.2909E+02
     -9.626  0.1413E+02  0.1413E+02  0.3112E+02  0.3112E+02
     -9.418  0.3422E+01  0.3422E+01  0.3200E+02  0.3200E+02
     -9.211  0.0000E+00  0.0000E+00  0.3200E+02  0.3200E+02
     -9.004  0.0000E+00  0.0000E+00  0.3200E+02  0.3200E+02
     -8.797  0.0000E+00  0.0000E+00  0.3200E+02  0.3200E+02
     -8.590  0.0000E+00  0.0000E+00  0.3200E+02  0.3200E+02
     -8.382  0.0000E+00  0.0000E+00  0.3200E+02  0.3200E+02
     -8.175  0.0000E+00  0.0000E+00  0.3200E+02  0.3200E+02
     -7.968  0.0000E+00  0.0000E+00  0.3200E+02  0.3200E+02
     -7.761  0.0000E+00  0.0000E+00  0.3200E+02  0.3200E+02
     -7.554  0.0000E+00  0.0000E+00  0.3200E+02  0.3200E+02
     -7.346  0.0000E+00  0.0000E+00  0.3200E+02  0.3200E+02
     -7.139  0.0000E+00  0.0000E+00  0.3200E+02  0.3200E+02
     -6.932  0.0000E+00  0.0000E+00  0.3200E+02  0.3200E+02
     -6.725  0.0000E+00  0.0000E+00  0.3200E+02  0.3200E+02
     -6.517  0.0000E+00  0.0000E+00  0.3200E+02  0.3200E+02
     -6.310  0.0000E+00  0.0000E+00  0.3200E+02  0.3200E+02
     -6.103  0.0000E+00  0.0000E+00  0.3200E+02  0.3200E+02
     -5.896  0.0000E+00  0.0000E+00  0.3200E+02  0.3200E+02
     -5.689  0.0000E+00  0.0000E+00  0.3200E+02  0.3200E+02
     -5.481  0.0000E+00  0.0000E+00  0.3200E+02  0.3200E+02
     -5.274  0.0000E+00  0.0000E+00  0.3200E+02  0.3200E+02
     -5.067  0.0000E+00  0.0000E+00  0.3200E+02  0.3200E+02
     -4.860  0.0000E+00  0.0000E+00  0.3200E+02  0.3200E+02
     -4.653  0.0000E+00  0.0000E+00  0.3200E+02  0.3200E+02
     -4.445  0.0000E+00  0.0000E+00  0.3200E+02  0.3200E+02
     -4.238  0.0000E+00  0.0000E+00  0.3200E+02  0.3200E+02
     -4.031  0.0000E+00  0.0000E+00  0.3200E+02  0.3200E+02
     -3.824  0.0000E+00  0.0000E+00  0.3200E+02  0.3200E+02
     -3.616  0.0000E+00  0.0000E+00  0.3200E+02  0.3200E+02
     -3.409  0.0000E+00  0.0000E+00  0.3200E+02  0.3200E+02
     -3.202  0.2259E-01  0.2259E-01  0.3200E+02  0.3200E+02
     -2.995  0.6658E+00  0.6658E+00  0.3207E+02  0.3207E+02
     -2.788  0.9525E+00  0.9525E+00  0.3223E+02  0.3223E+02
     -2.580  0.4764E+01  0.4764E+01  0.3261E+02  0.3261E+02
     -2.373  0.6784E+01  0.6784E+01  0.3368E+02  0.3368E+02
     -2.166  0.7014E+01  0.7014E+01  0.3489E+02  0.3489E+02
     -1.959  0.4524E+01  0.4524E+01  0.3590E+02  0.3590E+02
     -1.752  0.5327E+01  0.5327E+01  0.3668E+02  0.3668E+02
     -1.544  0.5592E+01  0.5592E+01  0.3768E+02  0.3768E+02
     -1.337  0.9276E+01  0.9276E+01  0.3894E+02  0.3894E+02
     -1.130  0.1316E+02  0.1316E+02  0.4066E+02  0.4066E+02
     -0.923  0.1016E+02  0.1016E+02  0.4227E+02  0.4227E+02
     -0.715  0.9298E+01  0.9298E+01  0.4392E+02  0.4392E+02
     -0.508  0.8258E+01  0.8258E+01  0.4501E+02  0.4501E+02
     -0.301  0.1966E+02  0.1966E+02  0.4759E+02  0.4759E+02
     -0.094  0.1030E+02  0.1030E+02  0.4966E+02  0.4966E+02
      0.113  0.3816E+01  0.3816E+01  0.5039E+02  0.5039E+02
      0.321  0.8434E+01  0.8434E+01  0.5195E+02  0.5195E+02
      0.528  0.1006E+02  0.1006E+02  0.5293E+02  0.5293E+02
      0.735  0.2055E+02  0.2055E+02  0.5517E+02  0.5517E+02
      0.942  0.1748E+02  0.1748E+02  0.5827E+02  0.5827E+02
      1.149  0.1109E+02  0.1109E+02  0.5943E+02  0.5943E+02
      1.357  0.9593E+01  0.9593E+01  0.6117E+02  0.6117E+02
      1.564  0.8091E+01  0.8091E+01  0.6261E+02  0.6261E+02
      1.771  0.1147E+02  0.1147E+02  0.6387E+02  0.6387E+02
      1.978  0.1736E+02  0.1736E+02  0.6583E+02  0.6583E+02
      2.186  0.1188E+02  0.1188E+02  0.6780E+02  0.6780E+02
      2.393  0.1738E+02  0.1738E+02  0.6994E+02  0.6994E+02
      2.600  0.1710E+02  0.1710E+02  0.7243E+02  0.7243E+02
      2.807  0.2431E+02  0.2431E+02  0.7516E+02  0.7516E+02
      3.014  0.1541E+02  0.1541E+02  0.7751E+02  0.7751E+02
      3.222  0.8962E+01  0.8962E+01  0.7926E+02  0.7926E+02
      3.429  0.2164E+02  0.2164E+02  0.8119E+02  0.8119E+02
      3.636  0.1352E+02  0.1352E+02  0.8362E+02  0.8362E+02
      3.843  0.8416E+01  0.8416E+01  0.8495E+02  0.8495E+02
      4.050  0.7392E+01  0.7392E+01  0.8611E+02  0.8611E+02
      4.258  0.8206E+01  0.8206E+01  0.8718E+02  0.8718E+02
      4.465  0.1759E+02  0.1759E+02  0.8916E+02  0.8916E+02
      4.672  0.1004E+02  0.1004E+02  0.9138E+02  0.9138E+02
      4.879  0.2460E+01  0.2460E+01  0.9201E+02  0.9201E+02
      5.087  0.3741E+01  0.3742E+01  0.9254E+02  0.9254E+02
      5.294  0.9380E+01  0.9567E+01  0.9368E+02  0.9369E+02
      5.501  0.5687E+01  0.5791E+01  0.9513E+02  0.9513E+02
      5.708  0.2500E+01  0.2550E+01  0.9568E+02  0.9569E+02
      5.915  0.5041E+00  0.5315E+00  0.9596E+02  0.9596E+02
      6.123  0.4396E-01  0.2933E-01  0.9600E+02  0.9600E+02
      6.330  0.1760E-02  0.4275E-04  0.9600E+02  0.9600E+02
      6.537  0.0000E+00  0.0000E+00  0.9600E+02  0.9600E+02
      6.744  0.0000E+00  0.0000E+00  0.9600E+02  0.9600E+02
      6.951  0.0000E+00  0.0000E+00  0.9600E+02  0.9600E+02
      7.159  0.0000E+00  0.0000E+00  0.9600E+02  0.9600E+02
      7.366  0.0000E+00  0.0000E+00  0.9600E+02  0.9600E+02
      7.573  0.0000E+00  0.0000E+00  0.9600E+02  0.9600E+02
      7.780  0.0000E+00  0.0000E+00  0.9600E+02  0.9600E+02
      7.988  0.0000E+00  0.0000E+00  0.9600E+02  0.9600E+02
      8.195  0.0000E+00  0.0000E+00  0.9600E+02  0.9600E+02
      8.402  0.0000E+00  0.0000E+00  0.9600E+02  0.9600E+02
      8.609  0.0000E+00  0.0000E+00  0.9600E+02  0.9600E+02
      8.816  0.0000E+00  0.0000E+00  0.9600E+02  0.9600E+02
      9.024  0.0000E+00  0.0000E+00  0.9600E+02  0.9600E+02
      9.231  0.0000E+00  0.0000E+00  0.9600E+02  0.9600E+02
      9.23084306    -52.93362815  301      3.34096327      1.00000000
    -52.934  0.0000E+00  0.0000E+00  0.0000E+00  0.0000E+00  0.0000E+00  0.0000E+00  0.0000E+00  0.0000E+00  0.0000E+00  0.0000E+00  0.0000E+00  0.0000E+00  0.0000E+00  0.0000E+00  0.0000E+00  0.0000E+00  0.0000E+00  0.0000E+00
    -52.726  0.0000E+00  0.0000E+00  0.0000E+00  0.0000E+00  0.0000E+00  0.0000E+00  0.0000E+00  0.0000E+00  0.0000E+00  0.0000E+00  0.0000E+00  0.0000E+00  0.0000E+00  0.0000E+00  0.0000E+00  0.0000E+00  0.0000E+00  0.0000E+00
    -52.519  0.0000E+00  0.0000E+00  0.0000E+00  0.0000E+00  0.0000E+00  0.0000E+00  0.0000E+00  0.0000E+00  0.0000E+00  0.0000E+00  0.0000E+00  0.0000E+00  0.0000E+00  0.0000E+00  0.0000E+00  0.0000E+00  0.0000E+00  0.0000E+00
    -52.312  0.0000E+00  0.0000E+00  0.0000E+00  0.0000E+00  0.0000E+00  0.0000E+00  0.0000E+00  0.0000E+00  0.0000E+00  0.0000E+00  0.0000E+00  0.0000E+00  0.0000E+00  0.0000E+00  0.0000E+00  0.0000E+00  0.0000E+00  0.0000E+00
    -52.105  0.0000E+00  0.0000E+00  0.0000E+00  0.0000E+00  0.0000E+00  0.0000E+00  0.0000E+00  0.0000E+00  0.0000E+00  0.0000E+00  0.0000E+00  0.0000E+00  0.0000E+00  0.0000E+00  0.0000E+00  0.0000E+00  0.0000E+00  0.0000E+00
    -51.898  0.0000E+00  0.0000E+00  0.0000E+00  0.0000E+00  0.0000E+00  0.0000E+00  0.0000E+00  0.0000E+00  0.0000E+00  0.0000E+00  0.0000E+00  0.0000E+00  0.0000E+00  0.0000E+00  0.0000E+00  0.0000E+00  0.0000E+00  0.0000E+00
    -51.690  0.0000E+00  0.0000E+00  0.0000E+00  0.0000E+00  0.0000E+00  0.0000E+00  0.0000E+00  0.0000E+00  0.0000E+00  0.0000E+00  0.0000E+00  0.0000E+00  0.0000E+00  0.0000E+00  0.0000E+00  0.0000E+00  0.0000E+00  0.0000E+00
    -51.483  0.0000E+00  0.0000E+00  0.0000E+00  0.0000E+00  0.0000E+00  0.0000E+00  0.0000E+00  0.0000E+00  0.0000E+00  0.0000E+00  0.0000E+00  0.0000E+00  0.0000E+00  0.0000E+00  0.0000E+00  0.0000E+00  0.0000E+00  0.0000E+00
    -51.276  0.0000E+00  0.0000E+00  0.0000E+00  0.0000E+00  0.0000E+00  0.0000E+00  0.0000E+00  0.0000E+00  0.0000E+00  0.0000E+00  0.0000E+00  0.0000E+00  0.0000E+00  0.0000E+00  0.0000E+00  0.0000E+00  0.0000E+00  0.0000E+00
    -51.069  0.0000E+00  0.0000E+00  0.0000E+00  0.0000E+00  0.0000E+00  0.0000E+00  0.0000E+00  0.0000E+00  0.0000E+00  0.0000E+00  0.0000E+00  0.0000E+00  0.0000E+00  0.0000E+00  0.0000E+00  0.0000E+00  0.0000E+00  0.0000E+00
    -50.861  0.0000E+00  0.0000E+00  0.0000E+00  0.0000E+00  0.0000E+00  0.0000E+00  0.0000E+00  0.0000E+00  0.0000E+00  0.0000E+00  0.0000E+00  0.0000E+00  0.0000E+00  0.0000E+00  0.0000E+00  0.0000E+00  0.0000E+00  0.0000E+00
    -50.654  0.0000E+00  0.0000E+00  0.0000E+00  0.0000E+00  0.0000E+00  0.0000E+00  0.0000E+00  0.0000E+00  0.0000E+00  0.0000E+00  0.0000E+00  0.0000E+00  0.0000E+00  0.0000E+00  0.0000E+00  0.0000E+00  0.0000E+00  0.0000E+00
    -50.447  0.0000E+00  0.0000E+00  0.0000E+00  0.0000E+00  0.0000E+00  0.0000E+00  0.0000E+00  0.0000E+00  0.0000E+00  0.0000E+00  0.0000E+00  0.0000E+00  0.0000E+00  0.0000E+00  0.0000E+00  0.0000E+00  0.0000E+00  0.0000E+00
    -50.240  0.0000E+00  0.0000E+00  0.0000E+00  0.0000E+00  0.0000E+00  0.0000E+00  0.0000E+00  0.0000E+00  0.0000E+00  0.0000E+00  0.0000E+00  0.0000E+00  0.0000E+00  0.0000E+00  0.0000E+00  0.0000E+00  0.0000E+00  0.0000E+00
    -50.033  0.2471E-03  0.2477E-03  0.4522E-01  0.4272E+00  0.2155E-01  0.2808E-02  0.4132E+00  0.4504E-01  0.4585E-05  0.3309E-05  0.2162E-06  0.6128E-07  0.1051E-03  0.1350E-03  0.6212E-04  0.1404E-05  0.2394E-03  0.2738E-03
    -49.825  0.1402E-03  0.1416E-03  0.6241E+00  0.1953E-01  0.1367E-02  0.3061E-01  0.2048E-01  0.5861E+00  0.2052E-05  0.3478E-05  0.3351E-07  0.2093E-06  0.8610E-04  0.5927E-04  0.2491E-05  0.5870E-04  0.3994E-03  0.3695E-03
    -49.618  0.1436E-03  0.1401E-03  0.2315E+01  0.2544E+01  0.4694E+01  0.2474E+01  0.2689E+01  0.2363E+01  0.1154E-04  0.1101E-04  0.1071E-04  0.2329E-05  0.3201E-04  0.2900E-04  0.8821E-05  0.1934E-04  0.6871E-04  0.6881E-04
    -49.411  0.1061E-03  0.1053E-03  0.1764E+01  0.2190E+01  0.3139E+01  0.3447E+01  0.2223E+01  0.1828E+01  0.3309E-04  0.3266E-04  0.1976E-04  0.2309E-04  0.3592E-04  0.3583E-04  0.2748E-04  0.2263E-04  0.5916E-04  0.5858E-04
    -49.204  0.2128E-04  0.2139E-04  0.5609E+00  0.4867E+00  0.2156E-01  0.2590E-01  0.4291E+00  0.5473E+00  0.9197E-05  0.9548E-05  0.3144E-06  0.4967E-06  0.9734E-05  0.7227E-05  0.1098E-05  0.6017E-05  0.5116E-04  0.4787E-04
    -48.997  0.0000E+00  0.0000E+00  0.0000E+00  0.0000E+00  0.0000E+00  0.0000E+00  0.0000E+00  0.0000E+00  0.0000E+00  0.0000E+00  0.0000E+00  0.0000E+00  0.0000E+00  0.0000E+00  0.0000E+00  0.0000E+00  0.0000E+00  0.0000E+00
    -48.789  0.0000E+00  0.0000E+00  0.0000E+00  0.0000E+00  0.0000E+00  0.0000E+00  0.0000E+00  0.0000E+00  0.0000E+00  0.0000E+00  0.0000E+00  0.0000E+00  0.0000E+00  0.0000E+00  0.0000E+00  0.0000E+00  0.0000E+00  0.0000E+00
    -48.582  0.0000E+00  0.0000E+00  0.0000E+00  0.0000E+00  0.0000E+00  0.0000E+00  0.0000E+00  0.0000E+00  0.0000E+00  0.0000E+00  0.0000E+00  0.0000E+00  0.0000E+00  0.0000E+00  0.0000E+00  0.0000E+00  0.0000E+00  0.0000E+00
    -48.375  0.0000E+00  0.0000E+00  0.0000E+00  0.0000E+00  0.0000E+00  0.0000E+00  0.0000E+00  0.0000E+00  0.0000E+00  0.0000E+00  0.0000E+00  0.0000E+00  0.0000E+00  0.0000E+00  0.0000E+00  0.0000E+00  0.0000E+00  0.0000E+00
    -48.168  0.0000E+00  0.0000E+00  0.0000E+00  0.0000E+00  0.0000E+00  0.0000E+00  0.0000E+00  0.0000E+00  0.0000E+00  0.0000E+00  0.0000E+00  0.0000E+00  0.0000E+00  0.0000E+00  0.0000E+00  0.0000E+00  0.0000E+00  0.0000E+00
    -47.960  0.0000E+00  0.0000E+00  0.0000E+00  0.0000E+00  0.0000E+00  0.0000E+00  0.0000E+00  0.0000E+00  0.0000E+00  0.0000E+00  0.0000E+00  0.0000E+00  0.0000E+00  0.0000E+00  0.0000E+00  0.0000E+00  0.0000E+00  0.0000E+00
    -47.753  0.0000E+00  0.0000E+00  0.0000E+00  0.0000E+00  0.0000E+00  0.0000E+00  0.0000E+00  0.0000E+00  0.0000E+00  0.0000E+00  0.0000E+00  0.0000E+00  0.0000E+00  0.0000E+00  0.0000E+00  0.0000E+00  0.0000E+00  0.0000E+00
    -47.546  0.0000E+00  0.0000E+00  0.0000E+00  0.0000E+00  0.0000E+00  0.0000E+00  0.0000E+00  0.0000E+00  0.0000E+00  0.0000E+00  0.0000E+00  0.0000E+00  0.0000E+00  0.0000E+00  0.0000E+00  0.0000E+00  0.0000E+00  0.0000E+00
    -47.339  0.0000E+00  0.0000E+00  0.0000E+00  0.0000E+00  0.0000E+00  0.0000E+00  0.0000E+00  0.0000E+00  0.0000E+00  0.0000E+00  0.0000E+00  0.0000E+00  0.0000E+00  0.0000E+00  0.0000E+00  0.0000E+00  0.0000E+00  0.0000E+00
    -47.132  0.0000E+00  0.0000E+00  0.0000E+00  0.0000E+00  0.0000E+00  0.0000E+00  0.0000E+00  0.0000E+00  0.0000E+00  0.0000E+00  0.0000E+00  0.0000E+00  0.0000E+00  0.0000E+00  0.0000E+00  0.0000E+00  0.0000E+00  0.0000E+00
    -46.924  0.0000E+00  0.0000E+00  0.0000E+00  0.0000E+00  0.0000E+00  0.0000E+00  0.0000E+00  0.0000E+00  0.0000E+00  0.0000E+00  0.0000E+00  0.0000E+00  0.0000E+00  0.0000E+00  0.0000E+00  0.0000E+00  0.0000E+00  0.0000E+00
    -46.717  0.0000E+00  0.0000E+00  0.0000E+00  0.0000E+00  0.0000E+00  0.0000E+00  0.0000E+00  0.0000E+00  0.0000E+00  0.0000E+00  0.0000E+00  0.0000E+00  0.0000E+00  0.0000E+00  0.0000E+00  0.0000E+00  0.0000E+00  0.0000E+00
    -46.510  0.0000E+00  0.0000E+00  0.0000E+00  0.0000E+00  0.0000E+00  0.0000E+00  0.0000E+00  0.0000E+00  0.0000E+00  0.0000E+00  0.0000E+00  0.0000E+00  0.0000E+00  0.0000E+00  0.0000E+00  0.0000E+00  0.0000E+00  0.0000E+00
    -46.303  0.0000E+00  0.0000E+00  0.0000E+00  0.0000E+00  0.0000E+00  0.0000E+00  0.0000E+00  0.0000E+00  0.0000E+00  0.0000E+00  0.0000E+00  0.0000E+00  0.0000E+00  0.0000E+00  0.0000E+00  0.0000E+00  0.0000E+00  0.0000E+00
    -46.096  0.0000E+00  0.0000E+00  0.0000E+00  0.0000E+00  0.0000E+00  0.0000E+00  0.0000E+00  0.0000E+00  0.0000E+00  0.0000E+00  0.0000E+00  0.0000E+00  0.0000E+00  0.0000E+00  0.0000E+00  0.0000E+00  0.0000E+00  0.0000E+00
    -45.888  0.0000E+00  0.0000E+00  0.0000E+00  0.0000E+00  0.0000E+00  0.0000E+00  0.0000E+00  0.0000E+00  0.0000E+00  0.0000E+00  0.0000E+00  0.0000E+00  0.0000E+00  0.0000E+00  0.0000E+00  0.0000E+00  0.0000E+00  0.0000E+00
    -45.681  0.0000E+00  0.0000E+00  0.0000E+00  0.0000E+00  0.0000E+00  0.0000E+00  0.0000E+00  0.0000E+00  0.0000E+00  0.0000E+00  0.0000E+00  0.0000E+00  0.0000E+00  0.0000E+00  0.0000E+00  0.0000E+00  0.0000E+00  0.0000E+00
    -45.474  0.0000E+00  0.0000E+00  0.0000E+00  0.0000E+00  0.0000E+00  0.0000E+00  0.0000E+00  0.0000E+00  0.0000E+00  0.0000E+00  0.0000E+00  0.0000E+00  0.0000E+00  0.0000E+00  0.0000E+00  0.0000E+00  0.0000E+00  0.0000E+00
    -45.267  0.0000E+00  0.0000E+00  0.0000E+00  0.0000E+00  0.0000E+00  0.0000E+00  0.0000E+00  0.0000E+00  0.0000E+00  0.0000E+00  0.0000E+00  0.0000E+00  0.0000E+00  0.0000E+00  0.0000E+00  0.0000E+00  0.0000E+00  0.0000E+00
    -45.059  0.0000E+00  0.0000E+00  0.0000E+00  0.0000E+00  0.0000E+00  0.0000E+00  0.0000E+00  0.0000E+00  0.0000E+00  0.0000E+00  0.0000E+00  0.0000E+00  0.0000E+00  0.0000E+00  0.0000E+00  0.0000E+00  0.0000E+00  0.0000E+00
    -44.852  0.0000E+00  0.0000E+00  0.0000E+00  0.0000E+00  0.0000E+00  0.0000E+00  0.0000E+00  0.0000E+00  0.0000E+00  0.0000E+00  0.0000E+00  0.0000E+00  0.0000E+00  0.0000E+00  0.0000E+00  0.0000E+00  0.0000E+00  0.0000E+00
    -44.645  0.0000E+00  0.0000E+00  0.0000E+00  0.0000E+00  0.0000E+00  0.0000E+00  0.0000E+00  0.0000E+00  0.0000E+00  0.0000E+00  0.0000E+00  0.0000E+00  0.0000E+00  0.0000E+00  0.0000E+00  0.0000E+00  0.0000E+00  0.0000E+00
    -44.438  0.0000E+00  0.0000E+00  0.0000E+00  0.0000E+00  0.0000E+00  0.0000E+00  0.0000E+00  0.0000E+00  0.0000E+00  0.0000E+00  0.0000E+00  0.0000E+00  0.0000E+00  0.0000E+00  0.0000E+00  0.0000E+00  0.0000E+00  0.0000E+00
    -44.231  0.0000E+00  0.0000E+00  0.0000E+00  0.0000E+00  0.0000E+00  0.0000E+00  0.0000E+00  0.0000E+00  0.0000E+00  0.0000E+00  0.0000E+00  0.0000E+00  0.0000E+00  0.0000E+00  0.0000E+00  0.0000E+00  0.0000E+00  0.0000E+00
    -44.023  0.0000E+00  0.0000E+00  0.0000E+00  0.0000E+00  0.0000E+00  0.0000E+00  0.0000E+00  0.0000E+00  0.0000E+00  0.0000E+00  0.0000E+00  0.0000E+00  0.0000E+00  0.0000E+00  0.0000E+00  0.0000E+00  0.0000E+00  0.0000E+00
    -43.816  0.0000E+00  0.0000E+00  0.0000E+00  0.0000E+00  0.0000E+00  0.0000E+00  0.0000E+00  0.0000E+00  0.0000E+00  0.0000E+00  0.0000E+00  0.0000E+00  0.0000E+00  0.0000E+00  0.0000E+00  0.0000E+00  0.0000E+00  0.0000E+00
    -43.609  0.0000E+00  0.0000E+00  0.0000E+00  0.0000E+00  0.0000E+00  0.0000E+00  0.0000E+00  0.0000E+00  0.0000E+00  0.0000E+00  0.0000E+00  0.0000E+00  0.0000E+00  0.0000E+00  0.0000E+00  0.0000E+00  0.0000E+00  0.0000E+00
    -43.402  0.0000E+00  0.0000E+00  0.0000E+00  0.0000E+00  0.0000E+00  0.0000E+00  0.0000E+00  0.0000E+00  0.0000E+00  0.0000E+00  0.0000E+00  0.0000E+00  0.0000E+00  0.0000E+00  0.0000E+00  0.0000E+00  0.0000E+00  0.0000E+00
    -43.195  0.0000E+00  0.0000E+00  0.0000E+00  0.0000E+00  0.0000E+00  0.0000E+00  0.0000E+00  0.0000E+00  0.0000E+00  0.0000E+00  0.0000E+00  0.0000E+00  0.0000E+00  0.0000E+00  0.0000E+00  0.0000E+00  0.0000E+00  0.0000E+00
    -42.987  0.0000E+00  0.0000E+00  0.0000E+00  0.0000E+00  0.0000E+00  0.0000E+00  0.0000E+00  0.0000E+00  0.0000E+00  0.0000E+00  0.0000E+00  0.0000E+00  0.0000E+00  0.0000E+00  0.0000E+00  0.0000E+00  0.0000E+00  0.0000E+00
    -42.780  0.0000E+00  0.0000E+00  0.0000E+00  0.0000E+00  0.0000E+00  0.0000E+00  0.0000E+00  0.0000E+00  0.0000E+00  0.0000E+00  0.0000E+00  0.0000E+00  0.0000E+00  0.0000E+00  0.0000E+00  0.0000E+00  0.0000E+00  0.0000E+00
    -42.573  0.0000E+00  0.0000E+00  0.0000E+00  0.0000E+00  0.0000E+00  0.0000E+00  0.0000E+00  0.0000E+00  0.0000E+00  0.0000E+00  0.0000E+00  0.0000E+00  0.0000E+00  0.0000E+00  0.0000E+00  0.0000E+00  0.0000E+00  0.0000E+00