  16  16   1   0
  0.1993750E+02  0.7136443E-09  0.6824015E-09  0.7055062E-09  0.5000000E-15
  1.000000000000000E-004
  CAR 
 unknown system                          
      8.82702583    -52.89195568  301      3.34244702      1.00000000
    -52.892  0.0000E+00  0.0000E+00  0.0000E+00  0.0000E+00
    -52.686  0.0000E+00  0.0000E+00  0.0000E+00  0.0000E+00
    -52.480  0.0000E+00  0.0000E+00  0.0000E+00  0.0000E+00
    -52.275  0.0000E+00  0.0000E+00  0.0000E+00  0.0000E+00
    -52.069  0.0000E+00  0.0000E+00  0.0000E+00  0.0000E+00
    -51.863  0.0000E+00  0.0000E+00  0.0000E+00  0.0000E+00
    -51.658  0.0000E+00  0.0000E+00  0.0000E+00  0.0000E+00
    -51.452  0.0000E+00  0.0000E+00  0.0000E+00  0.0000E+00
    -51.246  0.0000E+00  0.0000E+00  0.0000E+00  0.0000E+00
    -51.040  0.0000E+00  0.0000E+00  0.0000E+00  0.0000E+00
    -50.835  0.0000E+00  0.0000E+00  0.0000E+00  0.0000E+00
    -50.629  0.0000E+00  0.0000E+00  0.0000E+00  0.0000E+00
    -50.423  0.0000E+00  0.0000E+00  0.0000E+00  0.0000E+00
    -50.217  0.2081E-05  0.2081E-05  0.4280E-06  0.4280E-06
    -50.012  0.1621E+00  0.1621E+00  0.3334E-01  0.3334E-01
    -49.806  0.3658E-01  0.3658E-01  0.4087E-01  0.4087E-01
    -49.600  0.3394E+00  0.3394E+00  0.1107E+00  0.1107E+00
    -49.395  0.5658E+00  0.5658E+00  0.2271E+00  0.2271E+00
    -49.189  0.7452E-01  0.7452E-01  0.2424E+00  0.2424E+00
    -48.983  0.6282E-07  0.6282E-07  0.2424E+00  0.2424E+00
    -48.777  0.0000E+00  0.0000E+00  0.2424E+00  0.2424E+00
    -48.572  0.0000E+00  0.0000E+00  0.2424E+00  0.2424E+00
    -48.366  0.0000E+00  0.0000E+00  0.2424E+00  0.2424E+00
    -48.160  0.0000E+00  0.0000E+00  0.2424E+00  0.2424E+00
    -47.954  0.0000E+00  0.0000E+00  0.2424E+00  0.2424E+00
    -47.749  0.0000E+00  0.0000E+00  0.2424E+00  0.2424E+00
    -47.543  0.0000E+00  0.0000E+00  0.2424E+00  0.2424E+00
    -47.337  0.0000E+00  0.0000E+00  0.2424E+00  0.2424E+00
    -47.132  0.0000E+00  0.0000E+00  0.2424E+00  0.2424E+00
    -46.926  0.0000E+00  0.0000E+00  0.2424E+00  0.2424E+00
    -46.720  0.0000E+00  0.0000E+00  0.2424E+00  0.2424E+00
    -46.514  0.0000E+00  0.0000E+00  0.2424E+00  0.2424E+00
    -46.309  0.0000E+00  0.0000E+00  0.2424E+00  0.2424E+00
    -46.103  0.0000E+00  0.0000E+00  0.2424E+00  0.2424E+00
    -45.897  0.0000E+00  0.0000E+00  0.2424E+00  0.2424E+00
    -45.691  0.0000E+00  0.0000E+00  0.2424E+00  0.2424E+00
    -45.486  0.0000E+00  0.0000E+00  0.2424E+00  0.2424E+00
    -45.280  0.0000E+00  0.0000E+00  0.2424E+00  0.2424E+00
    -45.074  0.0000E+00  0.0000E+00  0.2424E+00  0.2424E+00
    -44.868  0.0000E+00  0.0000E+00  0.2424E+00  0.2424E+00
    -44.663  0.0000E+00  0.0000E+00  0.2424E+00  0.2424E+00
    -44.457  0.0000E+00  0.0000E+00  0.2424E+00  0.2424E+00
    -44.251  0.0000E+00  0.0000E+00  0.2424E+00  0.2424E+00
    -44.046  0.0000E+00  0.0000E+00  0.2424E+00  0.2424E+00
    -43.840  0.0000E+00  0.0000E+00  0.2424E+00  0.2424E+00
    -43.634  0.0000E+00  0.0000E+00  0.2424E+00  0.2424E+00
    -43.428  0.0000E+00  0.0000E+00  0.2424E+00  0.2424E+00
    -43.223  0.0000E+00  0.0000E+00  0.2424E+00  0.2424E+00
    -43.017  0.0000E+00  0.0000E+00  0.2424E+00  0.2424E+00
    -42.811  0.0000E+00  0.0000E+00  0.2424E+00  0.2424E+00
    -42.605  0.0000E+00  0.0000E+00  0.2424E+00  0.2424E+00
    -42.400  0.0000E+00  0.0000E+00  0.2424E+00  0.2424E+00
    -42.194  0.0000E+00  0.0000E+00  0.2424E+00  0.2424E+00
    -41.988  0.0000E+00  0.0000E+00  0.2424E+00  0.2424E+00
    -41.783  0.0000E+00  0.0000E+00  0.2424E+00  0.2424E+00
    -41.577  0.0000E+00  0.0000E+00  0.2424E+00  0.2424E+00
    -41.371  0.0000E+00  0.0000E+00  0.2424E+00  0.2424E+00
    -41.165  0.0000E+00  0.0000E+00  0.2424E+00  0.2424E+00
    -40.960  0.0000E+00  0.0000E+00  0.2424E+00  0.2424E+00
    -40.754  0.0000E+00  0.0000E+00  0.2424E+00  0.2424E+00
    -40.548  0.0000E+00  0.0000E+00  0.2424E+00  0.2424E+00
    -40.342  0.0000E+00  0.0000E+00  0.2424E+00  0.2424E+00
    -40.137  0.0000E+00  0.0000E+00  0.2424E+00  0.2424E+00
    -39.931  0.0000E+00  0.0000E+00  0.2424E+00  0.2424E+00
    -39.725  0.0000E+00  0.0000E+00  0.2424E+00  0.2424E+00
    -39.520  0.0000E+00  0.0000E+00  0.2424E+00  0.2424E+00
    -39.314  0.0000E+00  0.0000E+00  0.2424E+00  0.2424E+00
    -39.108  0.0000E+00  0.0000E+00  0.2424E+00  0.2424E+00
    -38.902  0.0000E+00  0.0000E+00  0.2424E+00  0.2424E+00
    -38.697  0.0000E+00  0.0000E+00  0.2424E+00  0.2424E+00
    -38.491  0.0000E+00  0.0000E+00  0.2424E+00  0.2424E+00
    -38.285  0.0000E+00  0.0000E+00  0.2424E+00  0.2424E+00
    -38.079  0.0000E+00  0.0000E+00  0.2424E+00  0.2424E+00
    -37.874  0.0000E+00  0.0000E+00  0.2424E+00  0.2424E+00
    -37.668  0.0000E+00  0.0000E+00  0.2424E+00  0.2424E+00
    -37.462  0.0000E+00  0.0000E+00  0.2424E+00  0.2424E+00
    -37.256  0.0000E+00  0.0000E+00  0.2424E+00  0.2424E+00
    -37.051  0.0000E+00  0.0000E+00  0.2424E+00  0.2424E+00
    -36.845  0.0000E+00  0.0000E+00  0.2424E+00  0.2424E+00
    -36.639  0.0000E+00  0.0000E+00  0.2424E+00  0.2424E+00
    -36.434  0.0000E+00  0.0000E+00  0.2424E+00  0.2424E+00
    -36.228  0.0000E+00  0.0000E+00  0.2424E+00  0.2424E+00
    -36.022  0.0000E+00  0.0000E+00  0.2424E+00  0.2424E+00
    -35.816  0.0000E+00  0.0000E+00  0.2424E+00  0.2424E+00
    -35.611  0.0000E+00  0.0000E+00  0.2424E+00  0.2424E+00
    -35.405  0.0000E+00  0.0000E+00  0.2424E+00  0.2424E+00
    -35.199  0.0000E+00  0.0000E+00  0.2424E+00  0.2424E+00
    -34.993  0.0000E+00  0.0000E+00  0.2424E+00  0.2424E+00
    -34.788  0.0000E+00  0.0000E+00  0.2424E+00  0.2424E+00
    -34.582  0.0000E+00  0.0000E+00  0.2424E+00  0.2424E+00
    -34.376  0.0000E+00  0.0000E+00  0.2424E+00  0.2424E+00
    -34.171  0.0000E+00  0.0000E+00  0.2424E+00  0.2424E+00
    -33.965  0.0000E+00  0.0000E+00  0.2424E+00  0.2424E+00
    -33.759  0.0000E+00  0.0000E+00  0.2424E+00  0.2424E+00
    -33.553  0.0000E+00  0.0000E+00  0.2424E+00  0.2424E+00
    -33.348  0.0000E+00  0.0000E+00  0.2424E+00  0.2424E+00
    -33.142  0.0000E+00  0.0000E+00  0.2424E+00  0.2424E+00
    -32.936  0.0000E+00  0.0000E+00  0.2424E+00  0.2424E+00
    -32.730  0.0000E+00  0.0000E+00  0.2424E+00  0.2424E+00
    -32.525  0.0000E+00  0.0000E+00  0.2424E+00  0.2424E+00
    -32.319  0.0000E+00  0.0000E+00  0.2424E+00  0.2424E+00
    -32.113  0.0000E+00  0.0000E+00  0.2424E+00  0.2424E+00
    -31.908  0.0000E+00  0.0000E+00  0.2424E+00  0.2424E+00
    -31.702  0.0000E+00  0.0000E+00  0.2424E+00  0.2424E+00
    -31.496  0.0000E+00  0.0000E+00  0.2424E+00  0.2424E+00
    -31.290  0.0000E+00  0.0000E+00  0.2424E+00  0.2424E+00
    -31.085  0.0000E+00  0.0000E+00  0.2424E+00  0.2424E+00
    -30.879  0.0000E+00  0.0000E+00  0.2424E+00  0.2424E+00
    -30.673  0.0000E+00  0.0000E+00  0.2424E+00  0.2424E+00
    -30.467  0.0000E+00  0.0000E+00  0.2424E+00  0.2424E+00
    -30.262  0.0000E+00  0.0000E+00  0.2424E+00  0.2424E+00
    -30.056  0.0000E+00  0.0000E+00  0.2424E+00  0.2424E+00
    -29.850  0.0000E+00  0.0000E+00  0.2424E+00  0.2424E+00
    -29.644  0.0000E+00  0.0000E+00  0.2424E+00  0.2424E+00
    -29.439  0.0000E+00  0.0000E+00  0.2424E+00  0.2424E+00
    -29.233  0.0000E+00  0.0000E+00  0.2424E+00  0.2424E+00
    -29.027  0.0000E+00  0.0000E+00  0.2424E+00  0.2424E+00
    -28.822  0.0000E+00  0.0000E+00  0.2424E+00  0.2424E+00
    -28.616  0.0000E+00  0.0000E+00  0.2424E+00  0.2424E+00
    -28.410  0.0000E+00  0.0000E+00  0.2424E+00  0.2424E+00
    -28.204  0.0000E+00  0.0000E+00  0.2424E+00  0.2424E+00
    -27.999  0.0000E+00  0.0000E+00  0.2424E+00  0.2424E+00
    -27.793  0.0000E+00  0.0000E+00  0.2424E+00  0.2424E+00
    -27.587  0.0000E+00  0.0000E+00  0.2424E+00  0.2424E+00
    -27.381  0.0000E+00  0.0000E+00  0.2424E+00  0.2424E+00
    -27.176  0.0000E+00  0.0000E+00  0.2424E+00  0.2424E+00
    -26.970  0.0000E+00  0.0000E+00  0.2424E+00  0.2424E+00
    -26.764  0.0000E+00  0.0000E+00  0.2424E+00  0.2424E+00
    -26.559  0.0000E+00  0.0000E+00  0.2424E+00  0.2424E+00
    -26.353  0.0000E+00  0.0000E+00  0.2424E+00  0.2424E+00
    -26.147  0.0000E+00  0.0000E+00  0.2424E+00  0.2424E+00
    -25.941  0.0000E+00  0.0000E+00  0.2424E+00  0.2424E+00
    -25.736  0.0000E+00  0.0000E+00  0.2424E+00  0.2424E+00
    -25.530  0.0000E+00  0.0000E+00  0.2424E+00  0.2424E+00
    -25.324  0.0000E+00  0.0000E+00  0.2424E+00  0.2424E+00
    -25.118  0.0000E+00  0.0000E+00  0.2424E+00  0.2424E+00
    -24.913  0.0000E+00  0.0000E+00  0.2424E+00  0.2424E+00
    -24.707  0.0000E+00  0.0000E+00  0.2424E+00  0.2424E+00
    -24.501  0.0000E+00  0.0000E+00  0.2424E+00  0.2424E+00
    -24.295  0.0000E+00  0.0000E+00  0.2424E+00  0.2424E+00
    -24.090  0.0000E+00  0.0000E+00  0.2424E+00  0.2424E+00
    -23.884  0.0000E+00  0.0000E+00  0.2424E+00  0.2424E+00
    -23.678  0.0000E+00  0.0000E+00  0.2424E+00  0.2424E+00
    -23.473  0.0000E+00  0.0000E+00  0.2424E+00  0.2424E+00
    -23.267  0.0000E+00  0.0000E+00  0.2424E+00  0.2424E+00
    -23.061  0.0000E+00  0.0000E+00  0.2424E+00  0.2424E+00
    -22.855  0.0000E+00  0.0000E+00  0.2424E+00  0.2424E+00
    -22.650  0.0000E+00  0.0000E+00  0.2424E+00  0.2424E+00
    -22.444  0.0000E+00  0.0000E+00  0.2424E+00  0.2424E+00
    -22.238  0.0000E+00  0.0000E+00  0.2424E+00  0.2424E+00
    -22.032  0.0000E+00  0.0000E+00  0.2424E+00  0.2424E+00
    -21.827  0.0000E+00  0.0000E+00  0.2424E+00  0.2424E+00
    -21.621  0.0000E+00  0.0000E+00  0.2424E+00  0.2424E+00
    -21.415  0.0000E+00  0.0000E+00  0.2424E+00  0.2424E+00
    -21.210  0.0000E+00  0.0000E+00  0.2424E+00  0.2424E+00
    -21.004  0.0000E+00  0.0000E+00  0.2424E+00  0.2424E+00
    -20.798  0.0000E+00  0.0000E+00  0.2424E+00  0.2424E+00
    -20.592  0.0000E+00  0.0000E+00  0.2424E+00  0.2424E+00
    -20.387  0.0000E+00  0.0000E+00  0.2424E+00  0.2424E+00
    -20.181  0.0000E+00  0.0000E+00  0.2424E+00  0.2424E+00
    -19.975  0.0000E+00  0.0000E+00  0.2424E+00  0.2424E+00
    -19.769  0.0000E+00  0.0000E+00  0.2424E+00  0.2424E+00
    -19.564  0.0000E+00  0.0000E+00  0.2424E+00  0.2424E+00
    -19.358  0.0000E+00  0.0000E+00  0.2424E+00  0.2424E+00
    -19.152  0.0000E+00  0.0000E+00  0.2424E+00  0.2424E+00
    -18.947  0.0000E+00  0.0000E+00  0.2424E+00  0.2424E+00
    -18.741  0.0000E+00  0.0000E+00  0.2424E+00  0.2424E+00
    -18.535  0.0000E+00  0.0000E+00  0.2424E+00  0.2424E+00
    -18.329  0.0000E+00  0.0000E+00  0.2424E+00  0.2424E+00
    -18.124  0.0000E+00  0.0000E+00  0.2424E+00  0.2424E+00
    -17.918  0.0000E+00  0.0000E+00  0.2424E+00  0.2424E+00
    -17.712  0.0000E+00  0.0000E+00  0.2424E+00  0.2424E+00
    -17.506  0.0000E+00  0.0000E+00  0.2424E+00  0.2424E+00
    -17.301  0.0000E+00  0.0000E+00  0.2424E+00  0.2424E+00
    -17.095  0.0000E+00  0.0000E+00  0.2424E+00  0.2424E+00
    -16.889  0.0000E+00  0.0000E+00  0.2424E+00  0.2424E+00
    -16.683  0.0000E+00  0.0000E+00  0.2424E+00  0.2424E+00
    -16.478  0.0000E+00  0.0000E+00  0.2424E+00  0.2424E+00
    -16.272  0.0000E+00  0.0000E+00  0.2424E+00  0.2424E+00
    -16.066  0.0000E+00  0.0000E+00  0.2424E+00  0.2424E+00
    -15.861  0.0000E+00  0.0000E+00  0.2424E+00  0.2424E+00
    -15.655  0.0000E+00  0.0000E+00  0.2424E+00  0.2424E+00
    -15.449  0.0000E+00  0.0000E+00  0.2424E+00  0.2424E+00
    -15.243  0.0000E+00  0.0000E+00  0.2424E+00  0.2424E+00
    -15.038  0.0000E+00  0.0000E+00  0.2424E+00  0.2424E+00
    -14.832  0.0000E+00  0.0000E+00  0.2424E+00  0.2424E+00
    -14.626  0.0000E+00  0.0000E+00  0.2424E+00  0.2424E+00
    -14.420  0.0000E+00  0.0000E+00  0.2424E+00  0.2424E+00
    -14.215  0.0000E+00  0.0000E+00  0.2424E+00  0.2424E+00
    -14.009  0.0000E+00  0.0000E+00  0.2424E+00  0.2424E+00
    -13.803  0.0000E+00  0.0000E+00  0.2424E+00  0.2424E+00
    -13.598  0.0000E+00  0.0000E+00  0.2424E+00  0.2424E+00
    -13.392  0.0000E+00  0.0000E+00  0.2424E+00  0.2424E+00
    -13.186  0.0000E+00  0.0000E+00  0.2424E+00  0.2424E+00
    -12.980  0.0000E+00  0.0000E+00  0.2424E+00  0.2424E+00
    -12.775  0.0000E+00  0.0000E+00  0.2424E+00  0.2424E+00
    -12.569  0.0000E+00  0.0000E+00  0.2424E+00  0.2424E+00
    -12.363  0.0000E+00  0.0000E+00  0.2424E+00  0.2424E+00
    -12.157  0.0000E+00  0.0000E+00  0.2424E+00  0.2424E+00
    -11.952  0.0000E+00  0.0000E+00  0.2424E+00  0.2424E+00
    -11.746  0.0000E+00  0.0000E+00  0.2424E+00  0.2424E+00
    -11.540  0.2469E-10  0.2469E-10  0.2424E+00  0.2424E+00
    -11.335  0.8857E-03  0.8857E-03  0.2426E+00  0.2426E+00
    -11.129  0.1578E-01  0.1578E-01  0.2459E+00  0.2459E+00
    -10.923  0.2225E-01  0.2225E-01  0.2504E+00  0.2504E+00
    -10.717  0.2665E-01  0.2665E-01  0.2559E+00  0.2559E+00
    -10.512  0.3865E-01  0.3865E-01  0.2639E+00  0.2639E+00
    -10.306  0.4053E-01  0.4053E-01  0.2722E+00  0.2722E+00
    -10.100  0.3090E-01  0.3090E-01  0.2786E+00  0.2786E+00
     -9.894  0.5261E-01  0.5261E-01  0.2894E+00  0.2894E+00
     -9.689  0.8623E-01  0.8623E-01  0.3071E+00  0.3071E+00
     -9.483  0.7630E-01  0.7630E-01  0.3228E+00  0.3228E+00
     -9.277  0.1993E-02  0.1993E-02  0.3232E+00  0.3232E+00
     -9.071  0.0000E+00  0.0000E+00  0.3232E+00  0.3232E+00
     -8.866  0.0000E+00  0.0000E+00  0.3232E+00  0.3232E+00
     -8.660  0.0000E+00  0.0000E+00  0.3232E+00  0.3232E+00
     -8.454  0.0000E+00  0.0000E+00  0.3232E+00  0.3232E+00
     -8.249  0.0000E+00  0.0000E+00  0.3232E+00  0.3232E+00
     -8.043  0.0000E+00  0.0000E+00  0.3232E+00  0.3232E+00
     -7.837  0.0000E+00  0.0000E+00  0.3232E+00  0.3232E+00
     -7.631  0.0000E+00  0.0000E+00  0.3232E+00  0.3232E+00
     -7.426  0.0000E+00  0.0000E+00  0.3232E+00  0.3232E+00
     -7.220  0.0000E+00  0.0000E+00  0.3232E+00  0.3232E+00
     -7.014  0.0000E+00  0.0000E+00  0.3232E+00  0.3232E+00
     -6.808  0.0000E+00  0.0000E+00  0.3232E+00  0.3232E+00
     -6.603  0.0000E+00  0.0000E+00  0.3232E+00  0.3232E+00
     -6.397  0.0000E+00  0.0000E+00  0.3232E+00  0.3232E+00
     -6.191  0.0000E+00  0.0000E+00  0.3232E+00  0.3232E+00
     -5.986  0.0000E+00  0.0000E+00  0.3232E+00  0.3232E+00
     -5.780  0.0000E+00  0.0000E+00  0.3232E+00  0.3232E+00
     -5.574  0.0000E+00  0.0000E+00  0.3232E+00  0.3232E+00
     -5.368  0.0000E+00  0.0000E+00  0.3232E+00  0.3232E+00
     -5.163  0.0000E+00  0.0000E+00  0.3232E+00  0.3232E+00
     -4.957  0.0000E+00  0.0000E+00  0.3232E+00  0.3232E+00
     -4.751  0.0000E+00  0.0000E+00  0.3232E+00  0.3232E+00
     -4.545  0.0000E+00  0.0000E+00  0.3232E+00  0.3232E+00
     -4.340  0.0000E+00  0.0000E+00  0.3232E+00  0.3232E+00
     -4.134  0.0000E+00  0.0000E+00  0.3232E+00  0.3232E+00
     -3.928  0.0000E+00  0.0000E+00  0.3232E+00  0.3232E+00
     -3.723  0.0000E+00  0.0000E+00  0.3232E+00  0.3232E+00
     -3.517  0.0000E+00  0.0000E+00  0.3232E+00  0.3232E+00
     -3.311  0.5689E-06  0.5689E-06  0.3232E+00  0.3232E+00
     -3.105  0.1579E-02  0.1579E-02  0.3236E+00  0.3236E+00
     -2.900  0.5836E-02  0.5836E-02  0.3248E+00  0.3248E+00
     -2.694  0.9780E-02  0.9780E-02  0.3268E+00  0.3268E+00
     -2.488  0.3686E-01  0.3686E-01  0.3344E+00  0.3344E+00
     -2.282  0.5379E-01  0.5379E-01  0.3454E+00  0.3454E+00
     -2.077  0.5503E-01  0.5503E-01  0.3567E+00  0.3567E+00
     -1.871  0.4384E-01  0.4384E-01  0.3658E+00  0.3658E+00
     -1.665  0.4569E-01  0.4569E-01  0.3752E+00  0.3752E+00
     -1.459  0.4471E-01  0.4471E-01  0.3844E+00  0.3844E+00
     -1.254  0.7323E-01  0.7323E-01  0.3994E+00  0.3994E+00
     -1.048  0.8500E-01  0.8500E-01  0.4169E+00  0.4169E+00
     -0.842  0.8357E-01  0.8357E-01  0.4341E+00  0.4341E+00
     -0.637  0.6301E-01  0.6301E-01  0.4471E+00  0.4471E+00
     -0.431  0.7277E-01  0.7277E-01  0.4620E+00  0.4620E+00
     -0.225  0.1378E+00  0.1378E+00  0.4904E+00  0.4904E+00
     -0.019  0.6749E-01  0.6749E-01  0.5043E+00  0.5043E+00
      0.186  0.4262E-01  0.4262E-01  0.5130E+00  0.5130E+00
      0.392  0.6887E-01  0.6887E-01  0.5272E+00  0.5272E+00
      0.598  0.6498E-01  0.6498E-01  0.5406E+00  0.5406E+00
      0.804  0.1424E+00  0.1424E+00  0.5699E+00  0.5699E+00
      1.009  0.1104E+00  0.1104E+00  0.5926E+00  0.5926E+00
      1.215  0.7184E-01  0.7184E-01  0.6074E+00  0.6074E+00
      1.421  0.7251E-01  0.7251E-01  0.6223E+00  0.6223E+00
      1.626  0.6486E-01  0.6486E-01  0.6356E+00  0.6356E+00
      1.832  0.7751E-01  0.7751E-01  0.6516E+00  0.6516E+00
      2.038  0.9948E-01  0.9948E-01  0.6720E+00  0.6720E+00
      2.244  0.8630E-01  0.8630E-01  0.6898E+00  0.6898E+00
      2.449  0.1114E+00  0.1114E+00  0.7127E+00  0.7127E+00
      2.655  0.1224E+00  0.1224E+00  0.7379E+00  0.7379E+00
      2.861  0.1402E+00  0.1402E+00  0.7667E+00  0.7667E+00
      3.067  0.1054E+00  0.1054E+00  0.7884E+00  0.7884E+00
      3.272  0.6853E-01  0.6853E-01  0.8025E+00  0.8025E+00
      3.478  0.1206E+00  0.1206E+00  0.8273E+00  0.8273E+00
      3.684  0.1039E+00  0.1039E+00  0.8487E+00  0.8487E+00
      3.890  0.6119E-01  0.6119E-01  0.8613E+00  0.8613E+00
      4.095  0.5135E-01  0.5135E-01  0.8718E+00  0.8718E+00
      4.301  0.5719E-01  0.5719E-01  0.8836E+00  0.8836E+00
      4.507  0.1116E+00  0.1116E+00  0.9066E+00  0.9066E+00
      4.712  0.8837E-01  0.8837E-01  0.9248E+00  0.9248E+00
      4.918  0.2824E-01  0.2824E-01  0.9306E+00  0.9306E+00
      5.124  0.2775E-01  0.2775E-01  0.9363E+00  0.9363E+00
      5.330  0.6352E-01  0.6352E-01  0.9493E+00  0.9493E+00
      5.535  0.6246E-01  0.6246E-01  0.9622E+00  0.9622E+00
      5.741  0.2651E-01  0.2646E-01  0.9676E+00  0.9676E+00
      5.947  0.9626E-02  0.9712E-02  0.9696E+00  0.9696E+00
      6.153  0.3597E-03  0.3289E-03  0.9697E+00  0.9697E+00
      6.358  0.2373E-07  0.2074E-09  0.9697E+00  0.9697E+00
      6.564  0.0000E+00  0.0000E+00  0.9697E+00  0.9697E+00
      6.770  0.0000E+00  0.0000E+00  0.9697E+00  0.9697E+00
      6.975  0.0000E+00  0.0000E+00  0.9697E+00  0.9697E+00
      7.181  0.0000E+00  0.0000E+00  0.9697E+00  0.9697E+00
      7.387  0.0000E+00  0.0000E+00  0.9697E+00  0.9697E+00
      7.593  0.0000E+00  0.0000E+00  0.9697E+00  0.9697E+00
      7.798  0.0000E+00  0.0000E+00  0.9697E+00  0.9697E+00
      8.004  0.0000E+00  0.0000E+00  0.9697E+00  0.9697E+00
      8.210  0.0000E+00  0.0000E+00  0.9697E+00  0.9697E+00
      8.416  0.0000E+00  0.0000E+00  0.9697E+00  0.9697E+00
      8.621  0.0000E+00  0.0000E+00  0.9697E+00  0.9697E+00
      8.827  0.0000E+00  0.0000E+00  0.9697E+00  0.9697E+00
      8.82702583    -52.89195568  301      3.34244702      1.00000000
    -52.892  0.0000E+00  0.0000E+00  0.0000E+00  0.0000E+00  0.0000E+00  0.0000E+00  0.0000E+00  0.0000E+00  0.0000E+00  0.0000E+00  0.0000E+00  0.0000E+00  0.0000E+00  0.0000E+00  0.0000E+00  0.0000E+00  0.0000E+00  0.0000E+00
    -52.686  0.0000E+00  0.0000E+00  0.0000E+00  0.0000E+00  0.0000E+00  0.0000E+00  0.0000E+00  0.0000E+00  0.0000E+00  0.0000E+00  0.0000E+00  0.0000E+00  0.0000E+00  0.0000E+00  0.0000E+00  0.0000E+00  0.0000E+00  0.0000E+00
    -52.480  0.0000E+00  0.0000E+00  0.0000E+00  0.0000E+00  0.0000E+00  0.0000E+00  0.0000E+00  0.0000E+00  0.0000E+00  0.0000E+00  0.0000E+00  0.0000E+00  0.0000E+00  0.0000E+00  0.0000E+00  0.0000E+00  0.0000E+00  0.0000E+00
    -52.275  0.0000E+00  0.0000E+00  0.0000E+00  0.0000E+00  0.0000E+00  0.0000E+00  0.0000E+00  0.0000E+00  0.0000E+00  0.0000E+00  0.0000E+00  0.0000E+00  0.0000E+00  0.0000E+00  0.0000E+00  0.0000E+00  0.0000E+00  0.0000E+00
    -52.069  0.0000E+00  0.0000E+00  0.0000E+00  0.0000E+00  0.0000E+00  0.0000E+00  0.0000E+00  0.0000E+00  0.0000E+00  0.0000E+00  0.0000E+00  0.0000E+00  0.0000E+00  0.0000E+00  0.0000E+00  0.0000E+00  0.0000E+00  0.0000E+00
    -51.863  0.0000E+00  0.0000E+00  0.0000E+00  0.0000E+00  0.0000E+00  0.0000E+00  0.0000E+00  0.0000E+00  0.0000E+00  0.0000E+00  0.0000E+00  0.0000E+00  0.0000E+00  0.0000E+00  0.0000E+00  0.0000E+00  0.0000E+00  0.0000E+00
    -51.658  0.0000E+00  0.0000E+00  0.0000E+00  0.0000E+00  0.0000E+00  0.0000E+00  0.0000E+00  0.0000E+00  0.0000E+00  0.0000E+00  0.0000E+00  0.0000E+00  0.0000E+00  0.0000E+00  0.0000E+00  0.0000E+00  0.0000E+00  0.0000E+00
    -51.452  0.0000E+00  0.0000E+00  0.0000E+00  0.0000E+00  0.0000E+00  0.0000E+00  0.0000E+00  0.0000E+00  0.0000E+00  0.0000E+00  0.0000E+00  0.0000E+00  0.0000E+00  0.0000E+00  0.0000E+00  0.0000E+00  0.0000E+00  0.0000E+00
    -51.246  0.0000E+00  0.0000E+00  0.0000E+00  0.0000E+00  0.0000E+00  0.0000E+00  0.0000E+00  0.0000E+00  0.0000E+00  0.0000E+00  0.0000E+00  0.0000E+00  0.0000E+00  0.0000E+00  0.0000E+00  0.0000E+00  0.0000E+00  0.0000E+00
    -51.040  0.0000E+00  0.0000E+00  0.0000E+00  0.0000E+00  0.0000E+00  0.0000E+00  0.0000E+00  0.0000E+00  0.0000E+00  0.0000E+00  0.0000E+00  0.0000E+00  0.0000E+00  0.0000E+00  0.0000E+00  0.0000E+00  0.0000E+00  0.0000E+00
    -50.835  0.0000E+00  0.0000E+00  0.0000E+00  0.0000E+00  0.0000E+00  0.0000E+00  0.0000E+00  0.0000E+00  0.0000E+00  0.0000E+00  0.0000E+00  0.0000E+00  0.0000E+00  0.0000E+00  0.0000E+00  0.0000E+00  0.0000E+00  0.0000E+00
    -50.629  0.0000E+00  0.0000E+00  0.0000E+00  0.0000E+00  0.0000E+00  0.0000E+00  0.0000E+00  0.0000E+00  0.0000E+00  0.0000E+00  0.0000E+00  0.0000E+00  0.0000E+00  0.0000E+00  0.0000E+00  0.0000E+00  0.0000E+00  0.0000E+00
    -50.423  0.0000E+00  0.0000E+00  0.0000E+00  0.0000E+00  0.0000E+00  0.0000E+00  0.0000E+00  0.0000E+00  0.0000E+00  0.0000E+00  0.0000E+00  0.0000E+00  0.0000E+00  0.0000E+00  0.0000E+00  0.0000E+00  0.0000E+00  0.0000E+00
    -50.217  0.6958E-08  0.5648E-08  0.1074E-04  0.4076E-05  0.2669E-06  0.4570E-06  0.4710E-05  0.8523E-05  0.1382E-09  0.1403E-09  0.3412E-11  0.5319E-11  0.3662E-08  0.2687E-08  0.2989E-09  0.8480E-09  0.2570E-08  0.1710E-08
    -50.012  0.3470E-03  0.3419E-03  0.5037E+00  0.4728E+00  0.2437E-01  0.2543E-01  0.4619E+00  0.4820E+00  0.6106E-05  0.6179E-05  0.2215E-06  0.2360E-06  0.1748E-03  0.1673E-03  0.4684E-04  0.5625E-04  0.4952E-03  0.4759E-03
    -49.806  0.4127E-04  0.4504E-04  0.7142E-01  0.1744E+00  0.7994E-02  0.3838E-02  0.1552E+00  0.7275E-01  0.8975E-06  0.7112E-06  0.5277E-07  0.2626E-07  0.1867E-04  0.2499E-04  0.1509E-04  0.7036E-05  0.1489E-03  0.1662E-03
    -49.600  0.9271E-04  0.9249E-04  0.1881E+01  0.1879E+01  0.2489E+01  0.2433E+01  0.1957E+01  0.1943E+01  0.4454E-05  0.4464E-05  0.4298E-05  0.5698E-05  0.2074E-04  0.2077E-04  0.1170E-04  0.8884E-05  0.5969E-04  0.6037E-04
    -49.395  0.9217E-04  0.9312E-04  0.1848E+01  0.1754E+01  0.2293E+01  0.2352E+01  0.1758E+01  0.1834E+01  0.4057E-04  0.4061E-04  0.2046E-04  0.1910E-04  0.3364E-04  0.3428E-04  0.2250E-04  0.2449E-04  0.6784E-04  0.6753E-04
    -49.189  0.1520E-04  0.1598E-04  0.5366E+00  0.5613E+00  0.2637E-01  0.2711E-01  0.5093E+00  0.5086E+00  0.3687E-05  0.3753E-05  0.1780E-06  0.1624E-06  0.5377E-05  0.6128E-05  0.3098E-05  0.2283E-05  0.3643E-04  0.3844E-04
    -48.983  0.3306E-11  0.3585E-11  0.4210E-06  0.4836E-06  0.2111E-07  0.2238E-07  0.4118E-06  0.4255E-06  0.7177E-12  0.6521E-12  0.4423E-13  0.2316E-13  0.1192E-11  0.1497E-11  0.1556E-11  0.1400E-11  0.2455E-10  0.2899E-10
    -48.777  0.0000E+00  0.0000E+00  0.0000E+00  0.0000E+00  0.0000E+00  0.0000E+00  0.0000E+00  0.0000E+00  0.0000E+00  0.0000E+00  0.0000E+00  0.0000E+00  0.0000E+00  0.0000E+00  0.0000E+00  0.0000E+00  0.0000E+00  0.0000E+00
    -48.572  0.0000E+00  0.0000E+00  0.0000E+00  0.0000E+00  0.0000E+00  0.0000E+00  0.0000E+00  0.0000E+00  0.0000E+00  0.0000E+00  0.0000E+00  0.0000E+00  0.0000E+00  0.0000E+00  0.0000E+00  0.0000E+00  0.0000E+00  0.0000E+00
    -48.366  0.0000E+00  0.0000E+00  0.0000E+00  0.0000E+00  0.0000E+00  0.0000E+00  0.0000E+00  0.0000E+00  0.0000E+00  0.0000E+00  0.0000E+00  0.0000E+00  0.0000E+00  0.0000E+00  0.0000E+00  0.0000E+00  0.0000E+00  0.0000E+00
    -48.160  0.0000E+00  0.0000E+00  0.0000E+00  0.0000E+00  0.0000E+00  0.0000E+00  0.0000E+00  0.0000E+00  0.0000E+00  0.0000E+00  0.0000E+00  0.0000E+00  0.0000E+00  0.0000E+00  0.0000E+00  0.0000E+00  0.0000E+00  0.0000E+00
    -47.954  0.0000E+00  0.0000E+00  0.0000E+00  0.0000E+00  0.0000E+00  0.0000E+00  0.0000E+00  0.0000E+00  0.0000E+00  0.0000E+00  0.0000E+00  0.0000E+00  0.0000E+00  0.0000E+00  0.0000E+00  0.0000E+00  0.0000E+00  0.0000E+00
    -47.749  0.0000E+00  0.0000E+00  0.0000E+00  0.0000E+00  0.0000E+00  0.0000E+00  0.0000E+00  0.0000E+00  0.0000E+00  0.0000E+00  0.0000E+00  0.0000E+00  0.0000E+00  0.0000E+00  0.0000E+00  0.0000E+00  0.0000E+00  0.0000E+00
    -47.543  0.0000E+00  0.0000E+00  0.0000E+00  0.0000E+00  0.0000E+00  0.0000E+00  0.0000E+00  0.0000E+00  0.0000E+00  0.0000E+00  0.0000E+00  0.0000E+00  0.0000E+00  0.0000E+00  0.0000E+00  0.0000E+00  0.0000E+00  0.0000E+00
    -47.337  0.0000E+00  0.0000E+00  0.0000E+00  0.0000E+00  0.0000E+00  0.0000E+00  0.0000E+00  0.0000E+00  0.0000E+00  0.0000E+00  0.0000E+00  0.0000E+00  0.0000E+00  0.0000E+00  0.0000E+00  0.0000E+00  0.0000E+00  0.0000E+00
    -47.132  0.0000E+00  0.0000E+00  0.0000E+00  0.0000E+00  0.0000E+00  0.0000E+00  0.0000E+00  0.0000E+00  0.0000E+00  0.0000E+00  0.0000E+00  0.0000E+00  0.0000E+00  0.0000E+00  0.0000E+00  0.0000E+00  0.0000E+00  0.0000E+00
    -46.926  0.0000E+00  0.0000E+00  0.0000E+00  0.0000E+00  0.0000E+00  0.0000E+00  0.0000E+00  0.0000E+00  0.0000E+00  0.0000E+00  0.0000E+00  0.0000E+00  0.0000E+00  0.0000E+00  0.0000E+00  0.0000E+00  0.0000E+00  0.0000E+00
    -46.720  0.0000E+00  0.0000E+00  0.0000E+00  0.0000E+00  0.0000E+00  0.0000E+00  0.0000E+00  0.0000E+00  0.0000E+00  0.0000E+00  0.0000E+00  0.0000E+00  0.0000E+00  0.0000E+00  0.0000E+00  0.0000E+00  0.0000E+00  0.0000E+00
    -46.514  0.0000E+00  0.0000E+00  0.0000E+00  0.0000E+00  0.0000E+00  0.0000E+00  0.0000E+00  0.0000E+00  0.0000E+00  0.0000E+00  0.0000E+00  0.0000E+00  0.0000E+00  0.0000E+00  0.0000E+00  0.0000E+00  0.0000E+00  0.0000E+00
    -46.309  0.0000E+00  0.0000E+00  0.0000E+00  0.0000E+00  0.0000E+00  0.0000E+00  0.0000E+00  0.0000E+00  0.0000E+00  0.0000E+00  0.0000E+00  0.0000E+00  0.0000E+00  0.0000E+00  0.0000E+00  0.0000E+00  0.0000E+00  0.0000E+00
    -46.103  0.0000E+00  0.0000E+00  0.0000E+00  0.0000E+00  0.0000E+00  0.0000E+00  0.0000E+00  0.0000E+00  0.0000E+00  0.0000E+00  0.0000E+00  0.0000E+00  0.0000E+00  0.0000E+00  0.0000E+00  0.0000E+00  0.0000E+00  0.0000E+00
    -45.897  0.0000E+00  0.0000E+00  0.0000E+00  0.0000E+00  0.0000E+00  0.0000E+00  0.0000E+00  0.0000E+00  0.0000E+00  0.0000E+00  0.0000E+00  0.0000E+00  0.0000E+00  0.0000E+00  0.0000E+00  0.0000E+00  0.0000E+00  0.0000E+00
    -45.691  0.0000E+00  0.0000E+00  0.0000E+00  0.0000E+00  0.0000E+00  0.0000E+00  0.0000E+00  0.0000E+00  0.0000E+00  0.0000E+00  0.0000E+00  0.0000E+00  0.0000E+00  0.0000E+00  0.0000E+00  0.0000E+00  0.0000E+00  0.0000E+00
    -45.486  0.0000E+00  0.0000E+00  0.0000E+00  0.0000E+00  0.0000E+00  0.0000E+00  0.0000E+00  0.0000E+00  0.0000E+00  0.0000E+00  0.0000E+00  0.0000E+00  0.0000E+00  0.0000E+00  0.0000E+00  0.0000E+00  0.0000E+00  0.0000E+00
    -45.280  0.0000E+00  0.0000E+00  0.0000E+00  0.0000E+00  0.0000E+00  0.0000E+00  0.0000E+00  0.0000E+00  0.0000E+00  0.0000E+00  0.0000E+00  0.0000E+00  0.0000E+00  0.0000E+00  0.0000E+00  0.0000E+00  0.0000E+00  0.0000E+00
    -45.074  0.0000E+00  0.0000E+00  0.0000E+00  0.0000E+00  0.0000E+00  0.0000E+00  0.0000E+00  0.0000E+00  0.0000E+00  0.0000E+00  0.0000E+00  0.0000E+00  0.0000E+00  0.0000E+00  0.0000E+00  0.0000E+00  0.0000E+00  0.0000E+00
    -44.868  0.0000E+00  0.0000E+00  0.0000E+00  0.0000E+00  0.0000E+00  0.0000E+00  0.0000E+00  0.0000E+00  0.0000E+00  0.0000E+00  0.0000E+00  0.0000E+00  0.0000E+00  0.0000E+00  0.0000E+00  0.0000E+00  0.0000E+00  0.0000E+00
    -44.663  0.0000E+00  0.0000E+00  0.0000E+00  0.0000E+00  0.0000E+00  0.0000E+00  0.0000E+00  0.0000E+00  0.0000E+00  0.0000E+00  0.0000E+00  0.0000E+00  0.0000E+00  0.0000E+00  0.0000E+00  0.0000E+00  0.0000E+00  0.0000E+00
    -44.457  0.0000E+00  0.0000E+00  0.0000E+00  0.0000E+00  0.0000E+00  0.0000E+00  0.0000E+00  0.0000E+00  0.0000E+00  0.0000E+00  0.0000E+00  0.0000E+00  0.0000E+00  0.0000E+00  0.0000E+00  0.0000E+00  0.0000E+00  0.0000E+00
    -44.251  0.0000E+00  0.0000E+00  0.0000E+00  0.0000E+00  0.0000E+00  0.0000E+00  0.0000E+00  0.0000E+00  0.0000E+00  0.0000E+00  0.0000E+00  0.0000E+00  0.0000E+00  0.0000E+00  0.0000E+00  0.0000E+00  0.0000E+00  0.0000E+00
    -44.046  0.0000E+00  0.0000E+00  0.0000E+00  0.0000E+00  0.0000E+00  0.0000E+00  0.0000E+00  0.0000E+00  0.0000E+00  0.0000E+00  0.0000E+00  0.0000E+00  0.0000E+00  0.0000E+00  0.0000E+00  0.0000E+00  0.0000E+00  0.0000E+00
    -43.840  0.0000E+00  0.0000E+00  0.0000E+00  0.0000E+00  0.0000E+00  0.0000E+00  0.0000E+00  0.0000E+00  0.0000E+00  0.0000E+00  0.0000E+00  0.0000E+00  0.0000E+00  0.0000E+00  0.0000E+00  0.0000E+00  0.0000E+00  0.0000E+00
    -43.634  0.0000E+00  0.0000E+00  0.0000E+00  0.0000E+00  0.0000E+00  0.0000E+00  0.0000E+00  0.0000E+00  0.0000E+00  0.0000E+00  0.0000E+00  0.0000E+00  0.0000E+00  0.0000E+00  0.0000E+00  0.0000E+00  0.0000E+00  0.0000E+00
    -43.428  0.0000E+00  0.0000E+00  0.0000E+00  0.0000E+00  0.0000E+00  0.0000E+00  0.0000E+00  0.0000E+00  0.0000E+00  0.0000E+00  0.0000E+00  0.0000E+00  0.0000E+00  0.0000E+00  0.0000E+00  0.0000E+00  0.0000E+00  0.0000E+00
    -43.223  0.0000E+00  0.0000E+00  0.0000E+00  0.0000E+00  0.0000E+00  0.0000E+00  0.0000E+00  0.0000E+00  0.0000E+00  0.0000E+00  0.0000E+00  0.0000E+00  0.0000E+00  0.0000E+00  0.0000E+00  0.0000E+00  0.0000E+00  0.0000E+00
    -43.017  0.0000E+00  0.0000E+00  0.0000E+00  0.0000E+00  0.0000E+00  0.0000E+00  0.0000E+00  0.0000E+00  0.0000E+00  0.0000E+00  0.0000E+00  0.0000E+00  0.0000E+00  0.0000E+00  0.0000E+00  0.0000E+00  0.0000E+00  0.0000E+00
    -42.811  0.0000E+00  0.0000E+00  0.0000E+00  0.0000E+00  0.0000E+00  0.0000E+00  0.0000E+00  0.0000E+00  0.0000E+00  0.0000E+00  0.0000E+00  0.0000E+00  0.0000E+00  0.0000E+00  0.0000E+00  0.0000E+00  0.0000E+00  0.0000E+00
    -42.605  0.0000E+00  0.0000E+00  0.0000E+00  0.0000E+00  0.0000E+00  0.0000E+00  0.0000E+00  0.0000E+00  0.0000E+00  0.0000E+00  0.0000E+00  0.0000E+00  0.0000E+00  0.0000E+00  0.0000E+00  0.0000E+00  0.0000E+00  0.0000E+00