       N       E                     dE             d eps       ncg     rms          rms(c)
DAV:   1     0.196262907433E+04    0.19626E+04   -0.90720E+04 94392   0.204E+03
DAV:   2     0.948531091944E+02   -0.18678E+04   -0.18344E+04 84936   0.580E+02
DAV:   3    -0.940145046796E+02   -0.18887E+03   -0.18285E+03124008   0.184E+02
DAV:   4    -0.104805637678E+03   -0.10791E+02   -0.10732E+02120408   0.457E+01
DAV:   5    -0.105111158867E+03   -0.30552E+00   -0.30489E+00113424   0.722E+00    0.254E+01
RMM:   6    -0.110880110967E+03   -0.57690E+01   -0.12607E+02 84870   0.791E+01    0.363E+01
RMM:   7    -0.965665951586E+02    0.14314E+02   -0.33618E+01 85054   0.457E+01    0.116E+01
RMM:   8    -0.994005726130E+02   -0.28340E+01   -0.76580E+00 95278   0.140E+01    0.261E+01
RMM:   9    -0.959483418097E+02    0.34522E+01   -0.56221E+00 91966   0.132E+01    0.172E+00
RMM:  10    -0.961427801245E+02   -0.19444E+00   -0.19161E+00125848   0.405E+00    0.308E+00
RMM:  11    -0.961456212616E+02   -0.28411E-02   -0.25727E-01122717   0.149E+00    0.226E+00
RMM:  12    -0.961431196944E+02    0.25016E-02   -0.89715E-02 86720   0.178E+00    0.230E+00
RMM:  13    -0.961186081963E+02    0.24511E-01   -0.59065E-02 94791   0.952E-01    0.158E+00
RMM:  14    -0.961156667421E+02    0.29415E-02   -0.41187E-02100510   0.951E-01    0.110E+00
RMM:  15    -0.961221750673E+02   -0.65083E-02   -0.13572E-02103866   0.387E-01    0.121E+00
RMM:  16    -0.961125741903E+02    0.96009E-02   -0.23430E-02121094   0.590E-01    0.616E-01
RMM:  17    -0.961107987843E+02    0.17754E-02   -0.38386E-03 80669   0.367E-01    0.219E-01
RMM:  18    -0.961107663175E+02    0.32467E-04   -0.56584E-03 93173   0.263E-01    0.210E-01
RMM:  19    -0.961108323513E+02   -0.66034E-04   -0.15628E-03 76649   0.190E-01
   1 F= -.10140085E+03 E0= -.10138627E+03  d E =-.101401E+03  mag=     0.0000
       N       E                     dE             d eps       ncg     rms          rms(c)
DAV:   1    -0.961381284621E+02   -0.27362E-01   -0.19044E+00114096   0.386E+00    0.693E-01
RMM:   2    -0.961429320546E+02   -0.48036E-02   -0.11449E-01 89544   0.195E+00    0.666E-01
RMM:   3    -0.961420371275E+02    0.89493E-03   -0.46209E-02 92967   0.124E+00    0.527E-01
RMM:   4    -0.961464227883E+02   -0.43857E-02   -0.13582E-02 96330   0.601E-01    0.118E+00
RMM:   5    -0.961441900828E+02    0.22327E-02   -0.56154E-03 86085   0.450E-01    0.946E-01
RMM:   6    -0.961410500107E+02    0.31401E-02   -0.24131E-03 74184   0.301E-01    0.994E-02
RMM:   7    -0.961412936514E+02   -0.24364E-03   -0.14599E-03 79948   0.119E-01    0.162E-01
RMM:   8    -0.961410722132E+02    0.22144E-03   -0.23961E-04 49317   0.920E-02    0.782E-02
RMM:   9    -0.961410741982E+02   -0.19850E-05   -0.98650E-05 47927   0.601E-02
   2 F= -.10142914E+03 E0= -.10141457E+03  d E =-.282945E-01  mag=    -0.0000
       N       E                     dE             d eps       ncg     rms          rms(c)
DAV:   1    -0.961456256576E+02   -0.45534E-02   -0.45198E-01 99288   0.189E+00    0.349E-01
RMM:   2    -0.961470298433E+02   -0.14042E-02   -0.27497E-02 88074   0.971E-01    0.372E-01
RMM:   3    -0.961475735664E+02   -0.54372E-03   -0.10847E-02 91462   0.596E-01    0.535E-01
RMM:   4    -0.961475067899E+02    0.66777E-04   -0.27782E-03 84466   0.254E-01    0.460E-01
RMM:   5    -0.961478930138E+02   -0.38622E-03   -0.81321E-04 63273   0.141E-01    0.493E-01
RMM:   6    -0.961479084658E+02   -0.15452E-04   -0.33337E-04 52692   0.807E-02
   3 F= -.10143507E+03 E0= -.10142079E+03  d E =-.342228E-01  mag=    -0.0000
       N       E                     dE             d eps       ncg     rms          rms(c)
DAV:   1    -0.962970427433E+02   -0.14915E+00   -0.37568E+00103008   0.856E+00    0.277E+00
RMM:   2    -0.962700260534E+02    0.27017E-01   -0.44104E-01 93448   0.420E+00    0.402E+00
RMM:   3    -0.963373593395E+02   -0.67333E-01   -0.34164E-01 87710   0.386E+00    0.607E+00
RMM:   4    -0.961829878963E+02    0.15437E+00   -0.18197E-01 86397   0.295E+00    0.157E+00
RMM:   5    -0.962767317621E+02   -0.93744E-01   -0.98567E-02 94337   0.177E+00    0.568E+00
RMM:   6    -0.961735532269E+02    0.10318E+00   -0.47632E-02 89244   0.147E+00    0.113E+00
RMM:   7    -0.961679723336E+02    0.55809E-02   -0.13208E-02107346   0.424E-01    0.732E-01
RMM:   8    -0.961624715682E+02    0.55008E-02   -0.47726E-03 82752   0.429E-01    0.259E-01
RMM:   9    -0.961634447420E+02   -0.97317E-03   -0.32445E-03 90996   0.240E-01    0.237E-01
RMM:  10    -0.961637572014E+02   -0.31246E-03   -0.82514E-04 63134   0.143E-01    0.271E-01
RMM:  11    -0.961631426005E+02    0.61460E-03   -0.85193E-04 64829   0.175E-01    0.125E-01
RMM:  12    -0.961633979784E+02   -0.25538E-03   -0.19342E-04 48628   0.110E-01    0.535E-02
RMM:  13    -0.961634014899E+02   -0.35115E-05   -0.63314E-05 47721   0.566E-02
   4 F= -.10144596E+03 E0= -.10143127E+03  d E =-.108887E-01  mag=     0.0000
       N       E                     dE             d eps       ncg     rms          rms(c)
DAV:   1    -0.961861575212E+02   -0.22760E-01   -0.53770E-01104016   0.327E+00    0.106E+00
RMM:   2    -0.961847841505E+02    0.13734E-02   -0.67149E-02 93936   0.166E+00    0.168E+00
RMM:   3    -0.961917506052E+02   -0.69665E-02   -0.49772E-02 86955   0.149E+00    0.229E+00
RMM:   4    -0.961695931020E+02    0.22158E-01   -0.26157E-02 86268   0.113E+00    0.487E-01
RMM:   5    -0.961704755868E+02   -0.88248E-03   -0.63421E-03 87494   0.465E-01    0.904E-01
RMM:   6    -0.961694278768E+02    0.10477E-02   -0.22260E-03 80854   0.208E-01    0.634E-01
RMM:   7    -0.961674835318E+02    0.19443E-02   -0.90804E-04 66353   0.164E-01    0.227E-01
RMM:   8    -0.961672529646E+02    0.23057E-03   -0.51494E-04 56052   0.131E-01    0.578E-02
RMM:   9    -0.961673700996E+02   -0.11713E-03   -0.32075E-04 48851   0.920E-02
   5 F= -.10144825E+03 E0= -.10143357E+03  d E =-.131808E-01  mag=     0.0000
       N       E                     dE             d eps       ncg     rms          rms(c)
DAV:   1    -0.961777025283E+02   -0.10450E-01   -0.44082E-01109392   0.800E+00    0.109E+00
RMM:   2    -0.962558705377E+02   -0.78168E-01   -0.18308E-01 98290   0.278E+00    0.437E+00
RMM:   3    -0.961747020946E+02    0.81168E-01   -0.77080E-02 88955   0.209E+00    0.736E-01
RMM:   4    -0.961767899671E+02   -0.20879E-02   -0.22873E-02 93593   0.105E+00    0.107E+00
RMM:   5    -0.961791214605E+02   -0.23315E-02   -0.10323E-02 95195   0.629E-01    0.137E+00
RMM:   6    -0.961742117080E+02    0.49098E-02   -0.48860E-03 83364   0.470E-01    0.557E-01
RMM:   7    -0.961721076936E+02    0.21040E-02   -0.20936E-03 82290   0.218E-01    0.252E-01
RMM:   8    -0.961719505548E+02    0.15714E-03   -0.66681E-04 59172   0.146E-01
   6 F= -.10145175E+03 E0= -.10143702E+03  d E =-.349698E-02  mag=     0.0000
       N       E                     dE             d eps       ncg     rms          rms(c)
DAV:   1    -0.961880427403E+02   -0.15935E-01   -0.10809E+00109440   0.125E+01    0.172E+00
RMM:   2    -0.963669426820E+02   -0.17890E+00   -0.43315E-01 99365   0.428E+00    0.658E+00
RMM:   3    -0.961798953795E+02    0.18705E+00   -0.18215E-01 89692   0.320E+00    0.117E+00
RMM:   4    -0.961923361619E+02   -0.12441E-01   -0.54881E-02 95441   0.159E+00    0.217E+00
RMM:   5    -0.961881922769E+02    0.41439E-02   -0.21814E-02102325   0.902E-01    0.162E+00
RMM:   6    -0.961906107745E+02   -0.24185E-02   -0.92847E-03 92653   0.550E-01    0.155E+00
RMM:   7    -0.961696407988E+02    0.20970E-01   -0.11874E-02 97744   0.631E-01    0.381E-01
RMM:   8    -0.961740761064E+02   -0.44353E-02   -0.30702E-03 93119   0.255E-01    0.572E-01
RMM:   9    -0.961718644505E+02    0.22117E-02   -0.12368E-03 71532   0.217E-01    0.268E-01
RMM:  10    -0.961714083836E+02    0.45607E-03   -0.21078E-03 85289   0.222E-01    0.101E-01
RMM:  11    -0.961716181336E+02   -0.20975E-03   -0.37740E-04 49904   0.127E-01    0.487E-02
RMM:  12    -0.961716369904E+02   -0.18857E-04   -0.10793E-04 48329   0.816E-02
   7 F= -.10144972E+03 E0= -.10143496E+03  d E =-.146639E-02  mag=    -0.0000
       N       E                     dE             d eps       ncg     rms          rms(c)
DAV:   1    -0.961773066640E+02   -0.56885E-02   -0.32488E-01108048   0.692E+00    0.942E-01
RMM:   2    -0.962295573217E+02   -0.52251E-01   -0.12674E-01 99625   0.233E+00    0.362E+00
RMM:   3    -0.961752072922E+02    0.54350E-01   -0.54944E-02 89121   0.175E+00    0.669E-01
RMM:   4    -0.961741880041E+02    0.10193E-02   -0.15638E-02 91158   0.881E-01    0.390E-01
RMM:   5    -0.961781763744E+02   -0.39884E-02   -0.70243E-03 91519   0.534E-01    0.130E+00
RMM:   6    -0.961728164271E+02    0.53599E-02   -0.28124E-03 80658   0.360E-01    0.159E-01
RMM:   7    -0.961732097180E+02   -0.39329E-03   -0.12500E-03 76778   0.125E-01    0.278E-01
RMM:   8    -0.961727429002E+02    0.46682E-03   -0.36335E-04 51678   0.117E-01    0.411E-02
RMM:   9    -0.961727792370E+02   -0.36337E-04   -0.13332E-04 44474   0.732E-02
   8 F= -.10145180E+03 E0= -.10143715E+03  d E =-.355184E-02  mag=     0.0000
