       N       E                     dE             d eps       ncg     rms          rms(c)
DAV:   1     0.201112875532E+04    0.20111E+04   -0.88894E+04 35340   0.194E+03
DAV:   2     0.122937531614E+03   -0.18882E+04   -0.18332E+04 32000   0.569E+02
DAV:   3    -0.850195787303E+02   -0.20796E+03   -0.18479E+03 46020   0.186E+02
DAV:   4    -0.997950758787E+02   -0.14775E+02   -0.14429E+02 47280   0.515E+01
DAV:   5    -0.100143982317E+03   -0.34891E+00   -0.34796E+00 45100   0.837E+00    0.278E+01
RMM:   6    -0.113583037396E+03   -0.13439E+02   -0.17591E+02 34845   0.857E+01    0.537E+01
RMM:   7    -0.908682075515E+02    0.22715E+02   -0.45632E+01 32070   0.515E+01    0.114E+01
RMM:   8    -0.915267170139E+02   -0.65851E+00   -0.36044E+00 46144   0.525E+00    0.552E+00
RMM:   9    -0.916204995784E+02   -0.93783E-01   -0.96153E-01 50701   0.294E+00    0.294E+00
RMM:  10    -0.916461728074E+02   -0.25673E-01   -0.29181E-01 52344   0.162E+00    0.170E+00
RMM:  11    -0.916440588221E+02    0.21140E-02   -0.67702E-02 48468   0.109E+00    0.638E-01
RMM:  12    -0.916536401153E+02   -0.95813E-02   -0.20945E-02 49121   0.496E-01    0.362E-01
RMM:  13    -0.916533891550E+02    0.25096E-03   -0.53364E-03 45068   0.243E-01    0.146E-01
RMM:  14    -0.916532355609E+02    0.15359E-03   -0.16688E-03 34261   0.146E-01
   1 F= -.98281199E+02 E0= -.98281199E+02  d E =0.000000E+00  mag=    -0.0000
