  16  16   1   0
  0.1906250E+02  0.7439099E-09  0.7439099E-09  0.5592480E-09  0.5000000E-15
  1.000000000000000E-004
  CAR 
 unknown system                          
     11.49884714    -53.71508745  301      4.00518288      1.00000000
    -53.715  0.0000E+00  0.0000E+00  0.0000E+00  0.0000E+00
    -53.498  0.0000E+00  0.0000E+00  0.0000E+00  0.0000E+00
    -53.280  0.0000E+00  0.0000E+00  0.0000E+00  0.0000E+00
    -53.063  0.0000E+00  0.0000E+00  0.0000E+00  0.0000E+00
    -52.846  0.0000E+00  0.0000E+00  0.0000E+00  0.0000E+00
    -52.628  0.0000E+00  0.0000E+00  0.0000E+00  0.0000E+00
    -52.411  0.0000E+00  0.0000E+00  0.0000E+00  0.0000E+00
    -52.193  0.0000E+00  0.0000E+00  0.0000E+00  0.0000E+00
    -51.976  0.0000E+00  0.0000E+00  0.0000E+00  0.0000E+00
    -51.759  0.0000E+00  0.0000E+00  0.0000E+00  0.0000E+00
    -51.541  0.0000E+00  0.0000E+00  0.0000E+00  0.0000E+00
    -51.324  0.0000E+00  0.0000E+00  0.0000E+00  0.0000E+00
    -51.107  0.0000E+00  0.0000E+00  0.0000E+00  0.0000E+00
    -50.889  0.3496E-05  0.3496E-05  0.7600E-06  0.7600E-06
    -50.672  0.1853E+00  0.1853E+00  0.4028E-01  0.4028E-01
    -50.454  0.2830E+00  0.2830E+00  0.1018E+00  0.1018E+00
    -50.237  0.8806E-01  0.8806E-01  0.1209E+00  0.1209E+00
    -50.020  0.1263E-02  0.1263E-02  0.1212E+00  0.1212E+00
    -49.802  0.0000E+00  0.0000E+00  0.1212E+00  0.1212E+00
    -49.585  0.0000E+00  0.0000E+00  0.1212E+00  0.1212E+00
    -49.367  0.0000E+00  0.0000E+00  0.1212E+00  0.1212E+00
    -49.150  0.0000E+00  0.0000E+00  0.1212E+00  0.1212E+00
    -48.933  0.0000E+00  0.0000E+00  0.1212E+00  0.1212E+00
    -48.715  0.0000E+00  0.0000E+00  0.1212E+00  0.1212E+00
    -48.498  0.0000E+00  0.0000E+00  0.1212E+00  0.1212E+00
    -48.281  0.0000E+00  0.0000E+00  0.1212E+00  0.1212E+00
    -48.063  0.5017E-03  0.5017E-03  0.1213E+00  0.1213E+00
    -47.846  0.2478E+00  0.2478E+00  0.1752E+00  0.1752E+00
    -47.628  0.1564E+00  0.1564E+00  0.2092E+00  0.2092E+00
    -47.411  0.1529E+00  0.1529E+00  0.2424E+00  0.2424E+00
    -47.194  0.8572E-07  0.8572E-07  0.2424E+00  0.2424E+00
    -46.976  0.0000E+00  0.0000E+00  0.2424E+00  0.2424E+00
    -46.759  0.0000E+00  0.0000E+00  0.2424E+00  0.2424E+00
    -46.542  0.0000E+00  0.0000E+00  0.2424E+00  0.2424E+00
    -46.324  0.0000E+00  0.0000E+00  0.2424E+00  0.2424E+00
    -46.107  0.0000E+00  0.0000E+00  0.2424E+00  0.2424E+00
    -45.889  0.0000E+00  0.0000E+00  0.2424E+00  0.2424E+00
    -45.672  0.0000E+00  0.0000E+00  0.2424E+00  0.2424E+00
    -45.455  0.0000E+00  0.0000E+00  0.2424E+00  0.2424E+00
    -45.237  0.0000E+00  0.0000E+00  0.2424E+00  0.2424E+00
    -45.020  0.0000E+00  0.0000E+00  0.2424E+00  0.2424E+00
    -44.803  0.0000E+00  0.0000E+00  0.2424E+00  0.2424E+00
    -44.585  0.0000E+00  0.0000E+00  0.2424E+00  0.2424E+00
    -44.368  0.0000E+00  0.0000E+00  0.2424E+00  0.2424E+00
    -44.150  0.0000E+00  0.0000E+00  0.2424E+00  0.2424E+00
    -43.933  0.0000E+00  0.0000E+00  0.2424E+00  0.2424E+00
    -43.716  0.0000E+00  0.0000E+00  0.2424E+00  0.2424E+00
    -43.498  0.0000E+00  0.0000E+00  0.2424E+00  0.2424E+00
    -43.281  0.0000E+00  0.0000E+00  0.2424E+00  0.2424E+00
    -43.063  0.0000E+00  0.0000E+00  0.2424E+00  0.2424E+00
    -42.846  0.0000E+00  0.0000E+00  0.2424E+00  0.2424E+00
    -42.629  0.0000E+00  0.0000E+00  0.2424E+00  0.2424E+00
    -42.411  0.0000E+00  0.0000E+00  0.2424E+00  0.2424E+00
    -42.194  0.0000E+00  0.0000E+00  0.2424E+00  0.2424E+00
    -41.977  0.0000E+00  0.0000E+00  0.2424E+00  0.2424E+00
    -41.759  0.0000E+00  0.0000E+00  0.2424E+00  0.2424E+00
    -41.542  0.0000E+00  0.0000E+00  0.2424E+00  0.2424E+00
    -41.324  0.0000E+00  0.0000E+00  0.2424E+00  0.2424E+00
    -41.107  0.0000E+00  0.0000E+00  0.2424E+00  0.2424E+00
    -40.890  0.0000E+00  0.0000E+00  0.2424E+00  0.2424E+00
    -40.672  0.0000E+00  0.0000E+00  0.2424E+00  0.2424E+00
    -40.455  0.0000E+00  0.0000E+00  0.2424E+00  0.2424E+00
    -40.238  0.0000E+00  0.0000E+00  0.2424E+00  0.2424E+00
    -40.020  0.0000E+00  0.0000E+00  0.2424E+00  0.2424E+00
    -39.803  0.0000E+00  0.0000E+00  0.2424E+00  0.2424E+00
    -39.585  0.0000E+00  0.0000E+00  0.2424E+00  0.2424E+00
    -39.368  0.0000E+00  0.0000E+00  0.2424E+00  0.2424E+00
    -39.151  0.0000E+00  0.0000E+00  0.2424E+00  0.2424E+00
    -38.933  0.0000E+00  0.0000E+00  0.2424E+00  0.2424E+00
    -38.716  0.0000E+00  0.0000E+00  0.2424E+00  0.2424E+00
    -38.499  0.0000E+00  0.0000E+00  0.2424E+00  0.2424E+00
    -38.281  0.0000E+00  0.0000E+00  0.2424E+00  0.2424E+00
    -38.064  0.0000E+00  0.0000E+00  0.2424E+00  0.2424E+00
    -37.846  0.0000E+00  0.0000E+00  0.2424E+00  0.2424E+00
    -37.629  0.0000E+00  0.0000E+00  0.2424E+00  0.2424E+00
    -37.412  0.0000E+00  0.0000E+00  0.2424E+00  0.2424E+00
    -37.194  0.0000E+00  0.0000E+00  0.2424E+00  0.2424E+00
    -36.977  0.0000E+00  0.0000E+00  0.2424E+00  0.2424E+00
    -36.759  0.0000E+00  0.0000E+00  0.2424E+00  0.2424E+00
    -36.542  0.0000E+00  0.0000E+00  0.2424E+00  0.2424E+00
    -36.325  0.0000E+00  0.0000E+00  0.2424E+00  0.2424E+00
    -36.107  0.0000E+00  0.0000E+00  0.2424E+00  0.2424E+00
    -35.890  0.0000E+00  0.0000E+00  0.2424E+00  0.2424E+00
    -35.673  0.0000E+00  0.0000E+00  0.2424E+00  0.2424E+00
    -35.455  0.0000E+00  0.0000E+00  0.2424E+00  0.2424E+00
    -35.238  0.0000E+00  0.0000E+00  0.2424E+00  0.2424E+00
    -35.020  0.0000E+00  0.0000E+00  0.2424E+00  0.2424E+00
    -34.803  0.0000E+00  0.0000E+00  0.2424E+00  0.2424E+00
    -34.586  0.0000E+00  0.0000E+00  0.2424E+00  0.2424E+00
    -34.368  0.0000E+00  0.0000E+00  0.2424E+00  0.2424E+00
    -34.151  0.0000E+00  0.0000E+00  0.2424E+00  0.2424E+00
    -33.934  0.0000E+00  0.0000E+00  0.2424E+00  0.2424E+00
    -33.716  0.0000E+00  0.0000E+00  0.2424E+00  0.2424E+00
    -33.499  0.0000E+00  0.0000E+00  0.2424E+00  0.2424E+00
    -33.281  0.0000E+00  0.0000E+00  0.2424E+00  0.2424E+00
    -33.064  0.0000E+00  0.0000E+00  0.2424E+00  0.2424E+00
    -32.847  0.0000E+00  0.0000E+00  0.2424E+00  0.2424E+00
    -32.629  0.0000E+00  0.0000E+00  0.2424E+00  0.2424E+00
    -32.412  0.0000E+00  0.0000E+00  0.2424E+00  0.2424E+00
    -32.194  0.0000E+00  0.0000E+00  0.2424E+00  0.2424E+00
    -31.977  0.0000E+00  0.0000E+00  0.2424E+00  0.2424E+00
    -31.760  0.0000E+00  0.0000E+00  0.2424E+00  0.2424E+00
    -31.542  0.0000E+00  0.0000E+00  0.2424E+00  0.2424E+00
    -31.325  0.0000E+00  0.0000E+00  0.2424E+00  0.2424E+00
    -31.108  0.0000E+00  0.0000E+00  0.2424E+00  0.2424E+00
    -30.890  0.0000E+00  0.0000E+00  0.2424E+00  0.2424E+00
    -30.673  0.0000E+00  0.0000E+00  0.2424E+00  0.2424E+00
    -30.455  0.0000E+00  0.0000E+00  0.2424E+00  0.2424E+00
    -30.238  0.0000E+00  0.0000E+00  0.2424E+00  0.2424E+00
    -30.021  0.0000E+00  0.0000E+00  0.2424E+00  0.2424E+00
    -29.803  0.0000E+00  0.0000E+00  0.2424E+00  0.2424E+00
    -29.586  0.0000E+00  0.0000E+00  0.2424E+00  0.2424E+00
    -29.369  0.0000E+00  0.0000E+00  0.2424E+00  0.2424E+00
    -29.151  0.0000E+00  0.0000E+00  0.2424E+00  0.2424E+00
    -28.934  0.0000E+00  0.0000E+00  0.2424E+00  0.2424E+00
    -28.716  0.0000E+00  0.0000E+00  0.2424E+00  0.2424E+00
    -28.499  0.0000E+00  0.0000E+00  0.2424E+00  0.2424E+00
    -28.282  0.0000E+00  0.0000E+00  0.2424E+00  0.2424E+00
    -28.064  0.0000E+00  0.0000E+00  0.2424E+00  0.2424E+00
    -27.847  0.0000E+00  0.0000E+00  0.2424E+00  0.2424E+00
    -27.630  0.0000E+00  0.0000E+00  0.2424E+00  0.2424E+00
    -27.412  0.0000E+00  0.0000E+00  0.2424E+00  0.2424E+00
    -27.195  0.0000E+00  0.0000E+00  0.2424E+00  0.2424E+00
    -26.977  0.0000E+00  0.0000E+00  0.2424E+00  0.2424E+00
    -26.760  0.0000E+00  0.0000E+00  0.2424E+00  0.2424E+00
    -26.543  0.0000E+00  0.0000E+00  0.2424E+00  0.2424E+00
    -26.325  0.0000E+00  0.0000E+00  0.2424E+00  0.2424E+00
    -26.108  0.0000E+00  0.0000E+00  0.2424E+00  0.2424E+00
    -25.890  0.0000E+00  0.0000E+00  0.2424E+00  0.2424E+00
    -25.673  0.0000E+00  0.0000E+00  0.2424E+00  0.2424E+00
    -25.456  0.0000E+00  0.0000E+00  0.2424E+00  0.2424E+00
    -25.238  0.0000E+00  0.0000E+00  0.2424E+00  0.2424E+00
    -25.021  0.0000E+00  0.0000E+00  0.2424E+00  0.2424E+00
    -24.804  0.0000E+00  0.0000E+00  0.2424E+00  0.2424E+00
    -24.586  0.0000E+00  0.0000E+00  0.2424E+00  0.2424E+00
    -24.369  0.0000E+00  0.0000E+00  0.2424E+00  0.2424E+00
    -24.151  0.0000E+00  0.0000E+00  0.2424E+00  0.2424E+00
    -23.934  0.0000E+00  0.0000E+00  0.2424E+00  0.2424E+00
    -23.717  0.0000E+00  0.0000E+00  0.2424E+00  0.2424E+00
    -23.499  0.0000E+00  0.0000E+00  0.2424E+00  0.2424E+00
    -23.282  0.0000E+00  0.0000E+00  0.2424E+00  0.2424E+00
    -23.065  0.0000E+00  0.0000E+00  0.2424E+00  0.2424E+00
    -22.847  0.0000E+00  0.0000E+00  0.2424E+00  0.2424E+00
    -22.630  0.0000E+00  0.0000E+00  0.2424E+00  0.2424E+00
    -22.412  0.0000E+00  0.0000E+00  0.2424E+00  0.2424E+00
    -22.195  0.0000E+00  0.0000E+00  0.2424E+00  0.2424E+00
    -21.978  0.0000E+00  0.0000E+00  0.2424E+00  0.2424E+00
    -21.760  0.0000E+00  0.0000E+00  0.2424E+00  0.2424E+00
    -21.543  0.0000E+00  0.0000E+00  0.2424E+00  0.2424E+00
    -21.325  0.0000E+00  0.0000E+00  0.2424E+00  0.2424E+00
    -21.108  0.0000E+00  0.0000E+00  0.2424E+00  0.2424E+00
    -20.891  0.0000E+00  0.0000E+00  0.2424E+00  0.2424E+00
    -20.673  0.0000E+00  0.0000E+00  0.2424E+00  0.2424E+00
    -20.456  0.0000E+00  0.0000E+00  0.2424E+00  0.2424E+00
    -20.239  0.0000E+00  0.0000E+00  0.2424E+00  0.2424E+00
    -20.021  0.0000E+00  0.0000E+00  0.2424E+00  0.2424E+00
    -19.804  0.0000E+00  0.0000E+00  0.2424E+00  0.2424E+00
    -19.586  0.0000E+00  0.0000E+00  0.2424E+00  0.2424E+00
    -19.369  0.0000E+00  0.0000E+00  0.2424E+00  0.2424E+00
    -19.152  0.0000E+00  0.0000E+00  0.2424E+00  0.2424E+00
    -18.934  0.0000E+00  0.0000E+00  0.2424E+00  0.2424E+00
    -18.717  0.0000E+00  0.0000E+00  0.2424E+00  0.2424E+00
    -18.500  0.0000E+00  0.0000E+00  0.2424E+00  0.2424E+00
    -18.282  0.0000E+00  0.0000E+00  0.2424E+00  0.2424E+00
    -18.065  0.0000E+00  0.0000E+00  0.2424E+00  0.2424E+00
    -17.847  0.0000E+00  0.0000E+00  0.2424E+00  0.2424E+00
    -17.630  0.0000E+00  0.0000E+00  0.2424E+00  0.2424E+00
    -17.413  0.0000E+00  0.0000E+00  0.2424E+00  0.2424E+00
    -17.195  0.0000E+00  0.0000E+00  0.2424E+00  0.2424E+00
    -16.978  0.0000E+00  0.0000E+00  0.2424E+00  0.2424E+00
    -16.761  0.0000E+00  0.0000E+00  0.2424E+00  0.2424E+00
    -16.543  0.0000E+00  0.0000E+00  0.2424E+00  0.2424E+00
    -16.326  0.0000E+00  0.0000E+00  0.2424E+00  0.2424E+00
    -16.108  0.0000E+00  0.0000E+00  0.2424E+00  0.2424E+00
    -15.891  0.0000E+00  0.0000E+00  0.2424E+00  0.2424E+00
    -15.674  0.0000E+00  0.0000E+00  0.2424E+00  0.2424E+00
    -15.456  0.0000E+00  0.0000E+00  0.2424E+00  0.2424E+00
    -15.239  0.0000E+00  0.0000E+00  0.2424E+00  0.2424E+00
    -15.021  0.0000E+00  0.0000E+00  0.2424E+00  0.2424E+00
    -14.804  0.0000E+00  0.0000E+00  0.2424E+00  0.2424E+00
    -14.587  0.0000E+00  0.0000E+00  0.2424E+00  0.2424E+00
    -14.369  0.0000E+00  0.0000E+00  0.2424E+00  0.2424E+00
    -14.152  0.0000E+00  0.0000E+00  0.2424E+00  0.2424E+00
    -13.935  0.0000E+00  0.0000E+00  0.2424E+00  0.2424E+00
    -13.717  0.0000E+00  0.0000E+00  0.2424E+00  0.2424E+00
    -13.500  0.0000E+00  0.0000E+00  0.2424E+00  0.2424E+00
    -13.282  0.0000E+00  0.0000E+00  0.2424E+00  0.2424E+00
    -13.065  0.0000E+00  0.0000E+00  0.2424E+00  0.2424E+00
    -12.848  0.0000E+00  0.0000E+00  0.2424E+00  0.2424E+00
    -12.630  0.0000E+00  0.0000E+00  0.2424E+00  0.2424E+00
    -12.413  0.0000E+00  0.0000E+00  0.2424E+00  0.2424E+00
    -12.196  0.0000E+00  0.0000E+00  0.2424E+00  0.2424E+00
    -11.978  0.0000E+00  0.0000E+00  0.2424E+00  0.2424E+00
    -11.761  0.0000E+00  0.0000E+00  0.2424E+00  0.2424E+00
    -11.543  0.0000E+00  0.0000E+00  0.2424E+00  0.2424E+00
    -11.326  0.0000E+00  0.0000E+00  0.2424E+00  0.2424E+00
    -11.109  0.0000E+00  0.0000E+00  0.2424E+00  0.2424E+00
    -10.891  0.0000E+00  0.0000E+00  0.2424E+00  0.2424E+00
    -10.674  0.5448E-15  0.5448E-15  0.2424E+00  0.2424E+00
    -10.457  0.6758E-04  0.6758E-04  0.2424E+00  0.2424E+00
    -10.239  0.6581E-02  0.6581E-02  0.2439E+00  0.2439E+00
    -10.022  0.1485E-01  0.1485E-01  0.2471E+00  0.2471E+00
     -9.804  0.2411E-01  0.2411E-01  0.2523E+00  0.2523E+00
     -9.587  0.2848E-01  0.2848E-01  0.2585E+00  0.2585E+00
     -9.370  0.3472E-01  0.3472E-01  0.2661E+00  0.2661E+00
     -9.152  0.5893E-01  0.5893E-01  0.2789E+00  0.2789E+00
     -8.935  0.7700E-01  0.7700E-01  0.2956E+00  0.2956E+00
     -8.717  0.7315E-01  0.7315E-01  0.3115E+00  0.3115E+00
     -8.500  0.5050E-01  0.5050E-01  0.3225E+00  0.3225E+00
     -8.283  0.3343E-02  0.3343E-02  0.3232E+00  0.3232E+00
     -8.065  0.2102E-07  0.2102E-07  0.3232E+00  0.3232E+00
     -7.848  0.0000E+00  0.0000E+00  0.3232E+00  0.3232E+00
     -7.631  0.0000E+00  0.0000E+00  0.3232E+00  0.3232E+00
     -7.413  0.0000E+00  0.0000E+00  0.3232E+00  0.3232E+00
     -7.196  0.0000E+00  0.0000E+00  0.3232E+00  0.3232E+00
     -6.978  0.0000E+00  0.0000E+00  0.3232E+00  0.3232E+00
     -6.761  0.0000E+00  0.0000E+00  0.3232E+00  0.3232E+00
     -6.544  0.0000E+00  0.0000E+00  0.3232E+00  0.3232E+00
     -6.326  0.0000E+00  0.0000E+00  0.3232E+00  0.3232E+00
     -6.109  0.0000E+00  0.0000E+00  0.3232E+00  0.3232E+00
     -5.892  0.0000E+00  0.0000E+00  0.3232E+00  0.3232E+00
     -5.674  0.0000E+00  0.0000E+00  0.3232E+00  0.3232E+00
     -5.457  0.0000E+00  0.0000E+00  0.3232E+00  0.3232E+00
     -5.239  0.0000E+00  0.0000E+00  0.3232E+00  0.3232E+00
     -5.022  0.0000E+00  0.0000E+00  0.3232E+00  0.3232E+00
     -4.805  0.0000E+00  0.0000E+00  0.3232E+00  0.3232E+00
     -4.587  0.0000E+00  0.0000E+00  0.3232E+00  0.3232E+00
     -4.370  0.0000E+00  0.0000E+00  0.3232E+00  0.3232E+00
     -4.152  0.0000E+00  0.0000E+00  0.3232E+00  0.3232E+00
     -3.935  0.0000E+00  0.0000E+00  0.3232E+00  0.3232E+00
     -3.718  0.0000E+00  0.0000E+00  0.3232E+00  0.3232E+00
     -3.500  0.0000E+00  0.0000E+00  0.3232E+00  0.3232E+00
     -3.283  0.0000E+00  0.0000E+00  0.3232E+00  0.3232E+00
     -3.066  0.0000E+00  0.0000E+00  0.3232E+00  0.3232E+00
     -2.848  0.0000E+00  0.0000E+00  0.3232E+00  0.3232E+00
     -2.631  0.0000E+00  0.0000E+00  0.3232E+00  0.3232E+00
     -2.413  0.5476E-13  0.5476E-13  0.3232E+00  0.3232E+00
     -2.196  0.9575E-04  0.9575E-04  0.3233E+00  0.3233E+00
     -1.979  0.3149E-02  0.3149E-02  0.3239E+00  0.3239E+00
     -1.761  0.1863E-01  0.1863E-01  0.3280E+00  0.3280E+00
     -1.544  0.5481E-01  0.5481E-01  0.3399E+00  0.3399E+00
     -1.327  0.7158E-01  0.7158E-01  0.3555E+00  0.3555E+00
     -1.109  0.5874E-01  0.5874E-01  0.3682E+00  0.3682E+00
     -0.892  0.5945E-01  0.5945E-01  0.3812E+00  0.3812E+00
     -0.674  0.5230E-01  0.5230E-01  0.3925E+00  0.3925E+00
     -0.457  0.4727E-01  0.4727E-01  0.4028E+00  0.4028E+00
     -0.240  0.6824E-01  0.6824E-01  0.4176E+00  0.4176E+00
     -0.022  0.6031E-01  0.6031E-01  0.4307E+00  0.4307E+00
      0.195  0.9458E-01  0.9458E-01  0.4513E+00  0.4513E+00
      0.412  0.1122E+00  0.1122E+00  0.4757E+00  0.4757E+00
      0.630  0.1064E+00  0.1064E+00  0.4988E+00  0.4988E+00
      0.847  0.1134E+00  0.1134E+00  0.5235E+00  0.5235E+00
      1.065  0.7994E-01  0.7994E-01  0.5408E+00  0.5408E+00
      1.282  0.7122E-01  0.7122E-01  0.5563E+00  0.5563E+00
      1.499  0.9357E-01  0.9357E-01  0.5767E+00  0.5767E+00
      1.717  0.1109E+00  0.1109E+00  0.6008E+00  0.6008E+00
      1.934  0.1283E+00  0.1283E+00  0.6287E+00  0.6287E+00
      2.152  0.1754E+00  0.1754E+00  0.6668E+00  0.6668E+00
      2.369  0.1573E+00  0.1573E+00  0.7010E+00  0.7010E+00
      2.586  0.8409E-01  0.8409E-01  0.7193E+00  0.7193E+00
      2.804  0.7150E-01  0.7150E-01  0.7348E+00  0.7348E+00
      3.021  0.6335E-01  0.6335E-01  0.7486E+00  0.7486E+00
      3.238  0.6125E-01  0.6125E-01  0.7619E+00  0.7619E+00
      3.456  0.4117E-01  0.4117E-01  0.7709E+00  0.7709E+00
      3.673  0.4983E-01  0.4983E-01  0.7817E+00  0.7817E+00
      3.891  0.7457E-01  0.7457E-01  0.7979E+00  0.7979E+00
      4.108  0.7733E-01  0.7733E-01  0.8147E+00  0.8147E+00
      4.325  0.8489E-01  0.8489E-01  0.8332E+00  0.8332E+00
      4.543  0.1448E+00  0.1448E+00  0.8647E+00  0.8647E+00
      4.760  0.9457E-01  0.9457E-01  0.8852E+00  0.8852E+00
      4.977  0.9659E-01  0.9659E-01  0.9062E+00  0.9062E+00
      5.195  0.8538E-01  0.8538E-01  0.9248E+00  0.9248E+00
      5.412  0.1019E+00  0.1019E+00  0.9469E+00  0.9469E+00
      5.630  0.5508E-01  0.5508E-01  0.9589E+00  0.9589E+00
      5.847  0.1157E-01  0.1157E-01  0.9614E+00  0.9614E+00
      6.064  0.1317E-01  0.1317E-01  0.9643E+00  0.9643E+00
      6.282  0.1551E-01  0.1551E-01  0.9676E+00  0.9676E+00
      6.499  0.1002E-01  0.1002E-01  0.9698E+00  0.9698E+00
      6.716  0.6931E-02  0.6931E-02  0.9713E+00  0.9713E+00
      6.934  0.6895E-02  0.6895E-02  0.9728E+00  0.9728E+00
      7.151  0.1216E-01  0.1216E-01  0.9755E+00  0.9755E+00
      7.369  0.1487E-01  0.1487E-01  0.9787E+00  0.9787E+00
      7.586  0.2326E-01  0.2326E-01  0.9838E+00  0.9838E+00
      7.803  0.3604E-01  0.3617E-01  0.9916E+00  0.9916E+00
      8.021  0.4370E-01  0.4359E-01  0.1001E+01  0.1001E+01
      8.238  0.2808E-01  0.2811E-01  0.1007E+01  0.1007E+01
      8.456  0.1169E-01  0.1165E-01  0.1010E+01  0.1010E+01
      8.673  0.1645E-02  0.1643E-02  0.1010E+01  0.1010E+01
      8.890  0.3721E-07  0.3848E-07  0.1010E+01  0.1010E+01
      9.108  0.0000E+00  0.0000E+00  0.1010E+01  0.1010E+01
      9.325  0.0000E+00  0.0000E+00  0.1010E+01  0.1010E+01
      9.542  0.0000E+00  0.0000E+00  0.1010E+01  0.1010E+01
      9.760  0.0000E+00  0.0000E+00  0.1010E+01  0.1010E+01
      9.977  0.0000E+00  0.0000E+00  0.1010E+01  0.1010E+01
     10.195  0.0000E+00  0.0000E+00  0.1010E+01  0.1010E+01
     10.412  0.0000E+00  0.0000E+00  0.1010E+01  0.1010E+01
     10.629  0.0000E+00  0.0000E+00  0.1010E+01  0.1010E+01
     10.847  0.0000E+00  0.0000E+00  0.1010E+01  0.1010E+01
     11.064  0.0000E+00  0.0000E+00  0.1010E+01  0.1010E+01
     11.281  0.0000E+00  0.0000E+00  0.1010E+01  0.1010E+01
     11.499  0.0000E+00  0.0000E+00  0.1010E+01  0.1010E+01
     11.49884714    -53.71508745  301      4.00518288      1.00000000
    -53.715  0.0000E+00  0.0000E+00  0.0000E+00  0.0000E+00  0.0000E+00  0.0000E+00  0.0000E+00  0.0000E+00  0.0000E+00  0.0000E+00  0.0000E+00  0.0000E+00  0.0000E+00  0.0000E+00  0.0000E+00  0.0000E+00  0.0000E+00  0.0000E+00
    -53.498  0.0000E+00  0.0000E+00  0.0000E+00  0.0000E+00  0.0000E+00  0.0000E+00  0.0000E+00  0.0000E+00  0.0000E+00  0.0000E+00  0.0000E+00  0.0000E+00  0.0000E+00  0.0000E+00  0.0000E+00  0.0000E+00  0.0000E+00  0.0000E+00
    -53.280  0.0000E+00  0.0000E+00  0.0000E+00  0.0000E+00  0.0000E+00  0.0000E+00  0.0000E+00  0.0000E+00  0.0000E+00  0.0000E+00  0.0000E+00  0.0000E+00  0.0000E+00  0.0000E+00  0.0000E+00  0.0000E+00  0.0000E+00  0.0000E+00
    -53.063  0.0000E+00  0.0000E+00  0.0000E+00  0.0000E+00  0.0000E+00  0.0000E+00  0.0000E+00  0.0000E+00  0.0000E+00  0.0000E+00  0.0000E+00  0.0000E+00  0.0000E+00  0.0000E+00  0.0000E+00  0.0000E+00  0.0000E+00  0.0000E+00
    -52.846  0.0000E+00  0.0000E+00  0.0000E+00  0.0000E+00  0.0000E+00  0.0000E+00  0.0000E+00  0.0000E+00  0.0000E+00  0.0000E+00  0.0000E+00  0.0000E+00  0.0000E+00  0.0000E+00  0.0000E+00  0.0000E+00  0.0000E+00  0.0000E+00
    -52.628  0.0000E+00  0.0000E+00  0.0000E+00  0.0000E+00  0.0000E+00  0.0000E+00  0.0000E+00  0.0000E+00  0.0000E+00  0.0000E+00  0.0000E+00  0.0000E+00  0.0000E+00  0.0000E+00  0.0000E+00  0.0000E+00  0.0000E+00  0.0000E+00
    -52.411  0.0000E+00  0.0000E+00  0.0000E+00  0.0000E+00  0.0000E+00  0.0000E+00  0.0000E+00  0.0000E+00  0.0000E+00  0.0000E+00  0.0000E+00  0.0000E+00  0.0000E+00  0.0000E+00  0.0000E+00  0.0000E+00  0.0000E+00  0.0000E+00
    -52.193  0.0000E+00  0.0000E+00  0.0000E+00  0.0000E+00  0.0000E+00  0.0000E+00  0.0000E+00  0.0000E+00  0.0000E+00  0.0000E+00  0.0000E+00  0.0000E+00  0.0000E+00  0.0000E+00  0.0000E+00  0.0000E+00  0.0000E+00  0.0000E+00
    -51.976  0.0000E+00  0.0000E+00  0.0000E+00  0.0000E+00  0.0000E+00  0.0000E+00  0.0000E+00  0.0000E+00  0.0000E+00  0.0000E+00  0.0000E+00  0.0000E+00  0.0000E+00  0.0000E+00  0.0000E+00  0.0000E+00  0.0000E+00  0.0000E+00
    -51.759  0.0000E+00  0.0000E+00  0.0000E+00  0.0000E+00  0.0000E+00  0.0000E+00  0.0000E+00  0.0000E+00  0.0000E+00  0.0000E+00  0.0000E+00  0.0000E+00  0.0000E+00  0.0000E+00  0.0000E+00  0.0000E+00  0.0000E+00  0.0000E+00
    -51.541  0.0000E+00  0.0000E+00  0.0000E+00  0.0000E+00  0.0000E+00  0.0000E+00  0.0000E+00  0.0000E+00  0.0000E+00  0.0000E+00  0.0000E+00  0.0000E+00  0.0000E+00  0.0000E+00  0.0000E+00  0.0000E+00  0.0000E+00  0.0000E+00
    -51.324  0.0000E+00  0.0000E+00  0.0000E+00  0.0000E+00  0.0000E+00  0.0000E+00  0.0000E+00  0.0000E+00  0.0000E+00  0.0000E+00  0.0000E+00  0.0000E+00  0.0000E+00  0.0000E+00  0.0000E+00  0.0000E+00  0.0000E+00  0.0000E+00
    -51.107  0.0000E+00  0.0000E+00  0.0000E+00  0.0000E+00  0.0000E+00  0.0000E+00  0.0000E+00  0.0000E+00  0.0000E+00  0.0000E+00  0.0000E+00  0.0000E+00  0.0000E+00  0.0000E+00  0.0000E+00  0.0000E+00  0.0000E+00  0.0000E+00
    -50.889  0.8484E-15  0.2352E-10  0.1793E-04  0.1243E-08  0.6823E-04  0.1149E-09  0.7690E-13  0.5476E-12  0.3116E-10  0.4354E-13  0.3654E-15  0.5912E-11  0.6031E-15  0.6926E-11  0.1079E-09  0.2976E-14  0.1123E-14  0.2754E-10
    -50.672  0.5457E-06  0.1509E-05  0.1116E+01  0.7902E-04  0.3364E+01  0.5898E-05  0.8649E-01  0.1084E-06  0.2141E-05  0.8017E-08  0.2592E-10  0.2957E-06  0.2519E-06  0.4576E-06  0.6503E-05  0.1917E-09  0.7552E-06  0.1698E-05
    -50.454  0.8223E-04  0.3689E-05  0.3465E+01  0.2182E-03  0.1217E+01  0.5341E-06  0.2292E+01  0.1751E-05  0.6783E-05  0.1264E-06  0.3403E-09  0.1725E-07  0.3791E-04  0.1442E-05  0.2330E-05  0.9216E-10  0.1137E-03  0.4551E-05
    -50.237  0.7236E-04  0.3707E-08  0.9527E-03  0.1461E-06  0.2568E-03  0.1005E-08  0.2173E+01  0.8000E-06  0.1592E-08  0.6532E-07  0.2713E-09  0.1385E-10  0.3333E-04  0.1338E-08  0.4596E-09  0.5062E-10  0.9994E-04  0.1328E-08
    -50.020  0.1701E-06  0.6351E-11  0.4642E-12  0.2230E-09  0.1243E-13  0.2291E-11  0.3122E-01  0.9115E-08  0.4419E-13  0.7827E-09  0.6948E-12  0.1007E-12  0.7827E-07  0.2274E-11  0.1962E-13  0.9320E-12  0.2348E-06  0.2241E-12
    -49.802  0.0000E+00  0.0000E+00  0.0000E+00  0.0000E+00  0.0000E+00  0.0000E+00  0.0000E+00  0.0000E+00  0.0000E+00  0.0000E+00  0.0000E+00  0.0000E+00  0.0000E+00  0.0000E+00  0.0000E+00  0.0000E+00  0.0000E+00  0.0000E+00
    -49.585  0.0000E+00  0.0000E+00  0.0000E+00  0.0000E+00  0.0000E+00  0.0000E+00  0.0000E+00  0.0000E+00  0.0000E+00  0.0000E+00  0.0000E+00  0.0000E+00  0.0000E+00  0.0000E+00  0.0000E+00  0.0000E+00  0.0000E+00  0.0000E+00
    -49.367  0.0000E+00  0.0000E+00  0.0000E+00  0.0000E+00  0.0000E+00  0.0000E+00  0.0000E+00  0.0000E+00  0.0000E+00  0.0000E+00  0.0000E+00  0.0000E+00  0.0000E+00  0.0000E+00  0.0000E+00  0.0000E+00  0.0000E+00  0.0000E+00
    -49.150  0.0000E+00  0.0000E+00  0.0000E+00  0.0000E+00  0.0000E+00  0.0000E+00  0.0000E+00  0.0000E+00  0.0000E+00  0.0000E+00  0.0000E+00  0.0000E+00  0.0000E+00  0.0000E+00  0.0000E+00  0.0000E+00  0.0000E+00  0.0000E+00
    -48.933  0.0000E+00  0.0000E+00  0.0000E+00  0.0000E+00  0.0000E+00  0.0000E+00  0.0000E+00  0.0000E+00  0.0000E+00  0.0000E+00  0.0000E+00  0.0000E+00  0.0000E+00  0.0000E+00  0.0000E+00  0.0000E+00  0.0000E+00  0.0000E+00
    -48.715  0.0000E+00  0.0000E+00  0.0000E+00  0.0000E+00  0.0000E+00  0.0000E+00  0.0000E+00  0.0000E+00  0.0000E+00  0.0000E+00  0.0000E+00  0.0000E+00  0.0000E+00  0.0000E+00  0.0000E+00  0.0000E+00  0.0000E+00  0.0000E+00
    -48.498  0.0000E+00  0.0000E+00  0.0000E+00  0.0000E+00  0.0000E+00  0.0000E+00  0.0000E+00  0.0000E+00  0.0000E+00  0.0000E+00  0.0000E+00  0.0000E+00  0.0000E+00  0.0000E+00  0.0000E+00  0.0000E+00  0.0000E+00  0.0000E+00
    -48.281  0.0000E+00  0.0000E+00  0.0000E+00  0.0000E+00  0.0000E+00  0.0000E+00  0.0000E+00  0.0000E+00  0.0000E+00  0.0000E+00  0.0000E+00  0.0000E+00  0.0000E+00  0.0000E+00  0.0000E+00  0.0000E+00  0.0000E+00  0.0000E+00
    -48.063  0.9996E-08  0.5129E-09  0.5263E-06  0.5554E-02  0.9867E-08  0.6672E-02  0.5118E-09  0.1374E-03  0.1870E-10  0.1261E-07  0.1086E-08  0.1797E-12  0.3112E-08  0.2380E-09  0.2339E-12  0.1515E-07  0.1133E-07  0.7143E-09
    -47.846  0.3774E-05  0.3950E-04  0.2003E-03  0.2094E+01  0.3662E-05  0.2473E+01  0.1670E-05  0.1538E+01  0.1257E-06  0.4858E-05  0.4007E-06  0.6877E-09  0.1176E-05  0.1829E-04  0.1415E-09  0.5788E-05  0.4248E-05  0.5496E-04
    -47.628  0.1561E-05  0.1256E-03  0.6864E-04  0.1067E+01  0.4691E-06  0.9078E+00  0.1235E-05  0.1884E+01  0.1051E-06  0.2546E-05  0.2908E-07  0.2152E-08  0.6219E-06  0.5803E-04  0.8354E-10  0.2175E-05  0.1903E-05  0.1744E-03
    -47.411  0.2055E-05  0.2246E-04  0.9097E-04  0.1416E+01  0.6188E-06  0.1195E+01  0.5061E-06  0.1161E+01  0.4528E-07  0.3331E-05  0.3799E-07  0.4310E-09  0.8195E-06  0.1036E-04  0.6157E-10  0.2833E-05  0.2519E-05  0.3116E-04
    -47.194  0.2219E-15  0.6458E-11  0.6757E-14  0.3334E-15  0.1510E-17  0.2061E-15  0.7323E-12  0.2120E-05  0.7406E-13  0.6480E-17  0.3373E-17  0.1452E-15  0.6798E-16  0.2981E-11  0.6013E-16  0.6887E-17  0.4260E-16  0.8962E-11
    -46.976  0.0000E+00  0.0000E+00  0.0000E+00  0.0000E+00  0.0000E+00  0.0000E+00  0.0000E+00  0.0000E+00  0.0000E+00  0.0000E+00  0.0000E+00  0.0000E+00  0.0000E+00  0.0000E+00  0.0000E+00  0.0000E+00  0.0000E+00  0.0000E+00
    -46.759  0.0000E+00  0.0000E+00  0.0000E+00  0.0000E+00  0.0000E+00  0.0000E+00  0.0000E+00  0.0000E+00  0.0000E+00  0.0000E+00  0.0000E+00  0.0000E+00  0.0000E+00  0.0000E+00  0.0000E+00  0.0000E+00  0.0000E+00  0.0000E+00
    -46.542  0.0000E+00  0.0000E+00  0.0000E+00  0.0000E+00  0.0000E+00  0.0000E+00  0.0000E+00  0.0000E+00  0.0000E+00  0.0000E+00  0.0000E+00  0.0000E+00  0.0000E+00  0.0000E+00  0.0000E+00  0.0000E+00  0.0000E+00  0.0000E+00
    -46.324  0.0000E+00  0.0000E+00  0.0000E+00  0.0000E+00  0.0000E+00  0.0000E+00  0.0000E+00  0.0000E+00  0.0000E+00  0.0000E+00  0.0000E+00  0.0000E+00  0.0000E+00  0.0000E+00  0.0000E+00  0.0000E+00  0.0000E+00  0.0000E+00
    -46.107  0.0000E+00  0.0000E+00  0.0000E+00  0.0000E+00  0.0000E+00  0.0000E+00  0.0000E+00  0.0000E+00  0.0000E+00  0.0000E+00  0.0000E+00  0.0000E+00  0.0000E+00  0.0000E+00  0.0000E+00  0.0000E+00  0.0000E+00  0.0000E+00
    -45.889  0.0000E+00  0.0000E+00  0.0000E+00  0.0000E+00  0.0000E+00  0.0000E+00  0.0000E+00  0.0000E+00  0.0000E+00  0.0000E+00  0.0000E+00  0.0000E+00  0.0000E+00  0.0000E+00  0.0000E+00  0.0000E+00  0.0000E+00  0.0000E+00
    -45.672  0.0000E+00  0.0000E+00  0.0000E+00  0.0000E+00  0.0000E+00  0.0000E+00  0.0000E+00  0.0000E+00  0.0000E+00  0.0000E+00  0.0000E+00  0.0000E+00  0.0000E+00  0.0000E+00  0.0000E+00  0.0000E+00  0.0000E+00  0.0000E+00
    -45.455  0.0000E+00  0.0000E+00  0.0000E+00  0.0000E+00  0.0000E+00  0.0000E+00  0.0000E+00  0.0000E+00  0.0000E+00  0.0000E+00  0.0000E+00  0.0000E+00  0.0000E+00  0.0000E+00  0.0000E+00  0.0000E+00  0.0000E+00  0.0000E+00
    -45.237  0.0000E+00  0.0000E+00  0.0000E+00  0.0000E+00  0.0000E+00  0.0000E+00  0.0000E+00  0.0000E+00  0.0000E+00  0.0000E+00  0.0000E+00  0.0000E+00  0.0000E+00  0.0000E+00  0.0000E+00  0.0000E+00  0.0000E+00  0.0000E+00
    -45.020  0.0000E+00  0.0000E+00  0.0000E+00  0.0000E+00  0.0000E+00  0.0000E+00  0.0000E+00  0.0000E+00  0.0000E+00  0.0000E+00  0.0000E+00  0.0000E+00  0.0000E+00  0.0000E+00  0.0000E+00  0.0000E+00  0.0000E+00  0.0000E+00
    -44.803  0.0000E+00  0.0000E+00  0.0000E+00  0.0000E+00  0.0000E+00  0.0000E+00  0.0000E+00  0.0000E+00  0.0000E+00  0.0000E+00  0.0000E+00  0.0000E+00  0.0000E+00  0.0000E+00  0.0000E+00  0.0000E+00  0.0000E+00  0.0000E+00
    -44.585  0.0000E+00  0.0000E+00  0.0000E+00  0.0000E+00  0.0000E+00  0.0000E+00  0.0000E+00  0.0000E+00  0.0000E+00  0.0000E+00  0.0000E+00  0.0000E+00  0.0000E+00  0.0000E+00  0.0000E+00  0.0000E+00  0.0000E+00  0.0000E+00
    -44.368  0.0000E+00  0.0000E+00  0.0000E+00  0.0000E+00  0.0000E+00  0.0000E+00  0.0000E+00  0.0000E+00  0.0000E+00  0.0000E+00  0.0000E+00  0.0000E+00  0.0000E+00  0.0000E+00  0.0000E+00  0.0000E+00  0.0000E+00  0.0000E+00
    -44.150  0.0000E+00  0.0000E+00  0.0000E+00  0.0000E+00  0.0000E+00  0.0000E+00  0.0000E+00  0.0000E+00  0.0000E+00  0.0000E+00  0.0000E+00  0.0000E+00  0.0000E+00  0.0000E+00  0.0000E+00  0.0000E+00  0.0000E+00  0.0000E+00
    -43.933  0.0000E+00  0.0000E+00  0.0000E+00  0.0000E+00  0.0000E+00  0.0000E+00  0.0000E+00  0.0000E+00  0.0000E+00  0.0000E+00  0.0000E+00  0.0000E+00  0.0000E+00  0.0000E+00  0.0000E+00  0.0000E+00  0.0000E+00  0.0000E+00
    -43.716  0.0000E+00  0.0000E+00  0.0000E+00  0.0000E+00  0.0000E+00  0.0000E+00  0.0000E+00  0.0000E+00  0.0000E+00  0.0000E+00  0.0000E+00  0.0000E+00  0.0000E+00  0.0000E+00  0.0000E+00  0.0000E+00  0.0000E+00  0.0000E+00
    -43.498  0.0000E+00  0.0000E+00  0.0000E+00  0.0000E+00  0.0000E+00  0.0000E+00  0.0000E+00  0.0000E+00  0.0000E+00  0.0000E+00  0.0000E+00  0.0000E+00  0.0000E+00  0.0000E+00  0.0000E+00  0.0000E+00  0.0000E+00  0.0000E+00
    -43.281  0.0000E+00  0.0000E+00  0.0000E+00  0.0000E+00  0.0000E+00  0.0000E+00  0.0000E+00  0.0000E+00  0.0000E+00  0.0000E+00  0.0000E+00  0.0000E+00  0.0000E+00  0.0000E+00  0.0000E+00  0.0000E+00  0.0000E+00  0.0000E+00
    -43.063  0.0000E+00  0.0000E+00  0.0000E+00  0.0000E+00  0.0000E+00  0.0000E+00  0.0000E+00  0.0000E+00  0.0000E+00  0.0000E+00  0.0000E+00  0.0000E+00  0.0000E+00  0.0000E+00  0.0000E+00  0.0000E+00  0.0000E+00  0.0000E+00
    -42.846  0.0000E+00  0.0000E+00  0.0000E+00  0.0000E+00  0.0000E+00  0.0000E+00  0.0000E+00  0.0000E+00  0.0000E+00  0.0000E+00  0.0000E+00  0.0000E+00  0.0000E+00  0.0000E+00  0.0000E+00  0.0000E+00  0.0000E+00  0.0000E+00