 vasp.6.4.1 05Apr23 (build Jun 01 2023 13:46:15) complex                        
  
 executed on             LinuxIFC date 2023.12.16  23:12:43
 running   20 mpi-ranks, on    5 nodes
 distrk:  each k-point on   20 cores,    1 groups
 distr:  one band on NCORE=   1 cores,   20 groups


--------------------------------------------------------------------------------------------------------


 INCAR:
   ALGO = Fast
   EDIFF = 0.0002
   ENCUT = 550
   IBRION = 2
   ISIF = 4
   ISMEAR = 0
   ISPIN = 2
   IVDW = 13
   LASPH = True
   LMAXMIX = 4
   LORBIT = 11
   LREAL = Auto
   LWAVE = False
   MAGMOM = 1*2.542 2*-2.542 2*2.542 2*-2.542 1*2.542 8*0.0
   NELM = 100
   NSW = 99
   PREC = Accurate
   SIGMA = 0.05

 POTCAR:   PAW_PBE Fe_pv 06Sep2000                
 POTCAR:   PAW_PBE Se 06Sep2000                   
 -----------------------------------------------------------------------------
|                                                                             |
|           W    W    AA    RRRRR   N    N  II  N    N   GGGG   !!!           |
|           W    W   A  A   R    R  NN   N  II  NN   N  G    G  !!!           |
|           W    W  A    A  R    R  N N  N  II  N N  N  G       !!!           |
|           W WW W  AAAAAA  RRRRR   N  N N  II  N  N N  G  GGG   !            |
|           WW  WW  A    A  R   R   N   NN  II  N   NN  G    G                |
|           W    W  A    A  R    R  N    N  II  N    N   GGGG   !!!           |
|                                                                             |
|     For optimal performance we recommend to set                             |
|       NCORE = 2 up to number-of-cores-per-socket                            |
|     NCORE specifies how many cores store one orbital (NPAR=cpu/NCORE).      |
|     This setting can greatly improve the performance of VASP for DFT.       |
|     The default, NCORE=1 might be grossly inefficient on modern             |
|     multi-core architectures or massively parallel machines. Do your        |
|     own testing! More info at https://www.vasp.at/wiki/index.php/NCORE      |
|     Unfortunately you need to use the default for GW and RPA                |
|     calculations (for HF NCORE is supported but not extensively tested      |
|     yet).                                                                   |
|                                                                             |
 -----------------------------------------------------------------------------

 POTCAR:   PAW_PBE Fe_pv 06Sep2000                
   VRHFIN =Fe:  3pd7s1                                                                              
   LEXCH  = PE                                                                                      
   EATOM  =  2456.8974 eV,  180.5769 Ry                                                             
                                                                                                    
   TITEL  = PAW_PBE Fe_pv 06Sep2000                                                                 
   LULTRA =        F    use ultrasoft PP ?                                                          
   IUNSCR =        1    unscreen: 0-lin 1-nonlin 2-no                                               
   RPACOR =    1.750    partial core radius                                                         
   POMASS =   55.847; ZVAL   =   14.000    mass and valenz                                          
   RCORE  =    2.200    outmost cutoff radius                                                       
   RWIGS  =    2.200; RWIGS  =    1.164    wigner-seitz radius (au A)                               
   ENMAX  =  293.238; ENMIN  =  219.929 eV                                                          
   RCLOC  =    1.701    cutoff for local pot                                                        
   LCOR   =        T    correct aug charges                                                         
   LPAW   =        T    paw PP                                                                      
   EAUG   =  578.342                                                                                
   DEXC   =    -.002                                                                                
   RMAX   =    2.693    core radius for proj-oper                                                   
   RAUG   =    1.300    factor for augmentation sphere                                              
   RDEP   =    2.296    radius for radial grids                                                     
   QCUT   =   -4.642; QGAM   =    9.285    optimization parameters                                  
                                                                                                    
   Description                                                                                      
     l     E      TYP  RCUT    TYP  RCUT                                                            
     1   .000     23  2.000                                                                         
     1  -.400     23  2.000                                                                         
     2   .000     23  2.200                                                                         
     2   .000     23  2.200                                                                         
     0   .000     23  2.000                                                                         
     0  2.000     23  2.000                                                                         
     3   .000      7   .000                                                                         
  local pseudopotential read in
  partial core-charges read in
  atomic valenz-charges read in
  non local Contribution for L=           1  read in
    real space projection operators read in
  non local Contribution for L=           1  read in
    real space projection operators read in
  non local Contribution for L=           2  read in
    real space projection operators read in
  non local Contribution for L=           2  read in
    real space projection operators read in
  non local Contribution for L=           0  read in
    real space projection operators read in
  non local Contribution for L=           0  read in
    real space projection operators read in
    PAW grid and wavefunctions read in
 
   number of l-projection  operators is LMAX  =           6
   number of lm-projection operators is LMMAX =          18
 
 POTCAR:   PAW_PBE Se 06Sep2000                   
   VRHFIN =Se: s2p4                                                                                 
   LEXCH  = PE                                                                                      
   EATOM  =   256.9644 eV,   18.8864 Ry                                                             
                                                                                                    
   TITEL  = PAW_PBE Se 06Sep2000                                                                    
   LULTRA =        F    use ultrasoft PP ?                                                          
   IUNSCR =        1    unscreen: 0-lin 1-nonlin 2-no                                               
   RPACOR =    1.900    partial core radius                                                         
   POMASS =   78.960; ZVAL   =    6.000    mass and valenz                                          
   RCORE  =    2.100    outmost cutoff radius                                                       
   RWIGS  =    2.200; RWIGS  =    1.164    wigner-seitz radius (au A)                               
   ENMAX  =  211.534; ENMIN  =  158.651 eV                                                          
   ICORE  =        3    local potential                                                             
   LCOR   =        T    correct aug charges                                                         
   LPAW   =        T    paw PP                                                                      
   EAUG   =  446.842                                                                                
   DEXC   =    -.031                                                                                
   RMAX   =    3.170    core radius for proj-oper                                                   
   RAUG   =    1.300    factor for augmentation sphere                                              
   RDEP   =    2.177    radius for radial grids                                                     
   QCUT   =   -3.943; QGAM   =    7.886    optimization parameters                                  
                                                                                                    
   Description                                                                                      
     l     E      TYP  RCUT    TYP  RCUT                                                            
     0   .000     23  2.100                                                                         
     0   .000     23  2.100                                                                         
     1   .000     23  2.100                                                                         
     1   .000     23  2.100                                                                         
     2   .000     23  2.100                                                                         
     3  -.100      7  2.100                                                                         
  local pseudopotential read in
  partial core-charges read in
  atomic valenz-charges read in
  non local Contribution for L=           0  read in
    real space projection operators read in
  non local Contribution for L=           0  read in
    real space projection operators read in
  non local Contribution for L=           1  read in
    real space projection operators read in
  non local Contribution for L=           1  read in
    real space projection operators read in
  non local Contribution for L=           2  read in
    real space projection operators read in
    PAW grid and wavefunctions read in
 
   number of l-projection  operators is LMAX  =           5
   number of lm-projection operators is LMMAX =          13
 
 Optimization of the real space projectors (new method)

 maximal supplied QI-value         = 17.01
 optimisation between [QCUT,QGAM] = [ 11.91, 23.98] = [ 39.69,161.04] Ry 
 Optimized for a Real-space Cutoff    1.45 Angstroem

   l    n(q)    QCUT    max X(q) W(low)/X(q) W(high)/X(q)  e(spline) 
   1     10    11.905     4.550    0.27E-05    0.11E-05    0.28E-07
   1     10    11.905     5.234    0.10E-04    0.61E-04    0.17E-06
   2      9    11.905     3.960    0.19E-04    0.73E-05    0.50E-07
   2      9    11.905    29.565    0.24E-03    0.51E-04    0.27E-06
   0     10    11.905    23.582    0.17E-04    0.10E-05    0.14E-07
   0     10    11.905    39.747    0.23E-04    0.68E-05    0.74E-07
 Optimization of the real space projectors (new method)

 maximal supplied QI-value         = 17.95
 optimisation between [QCUT,QGAM] = [ 11.85, 23.88] = [ 39.31,159.64] Ry 
 Optimized for a Real-space Cutoff    1.18 Angstroem

   l    n(q)    QCUT    max X(q) W(low)/X(q) W(high)/X(q)  e(spline) 
   0      8    11.849     6.499    0.17E-04    0.94E-05    0.89E-08
   0      8    11.849    52.623    0.21E-03    0.78E-04    0.81E-07
   1      8    11.849     4.229    0.79E-04    0.83E-04    0.23E-07
   1      8    11.849    29.991    0.12E-03    0.43E-03    0.14E-06
   2      7    11.849     3.719    0.22E-03    0.64E-04    0.38E-07
 PAW_PBE Fe_pv 06Sep2000                :
 energy of atom  1       EATOM=-2456.8974
 kinetic energy error for atom=    0.0060 (will be added to EATOM!!)
 PAW_PBE Se 06Sep2000                   :
 energy of atom  2       EATOM= -256.9644
 kinetic energy error for atom=    0.0007 (will be added to EATOM!!)
 
 
 POSCAR: Fe8 Se8
  positions in direct lattice
  velocities in cartesian coordinates
 exchange correlation table for  LEXCH =        8
   RHO(1)=    0.500       N(1)  =     2000
   RHO(2)=  100.500       N(2)  =     4000
 


--------------------------------------------------------------------------------------------------------


 ion  position               nearest neighbor table
   1  0.000  0.000  0.000-  11 2.29  14 2.29   5 2.41   8 2.41
   2  0.000  0.500  0.000-  12 2.29  13 2.29   6 2.41   7 2.41
   3  0.500  0.000  0.000-   9 2.29  16 2.29   6 2.41   7 2.41
   4  0.500  0.500  0.000-  10 2.29  15 2.29   5 2.41   8 2.41
   5  0.250  0.250  0.000-   9 2.29  13 2.29   1 2.41   4 2.41
   6  0.250  0.750  0.000-  10 2.29  14 2.29   2 2.41   3 2.41
   7  0.750  0.250  0.000-  11 2.29  15 2.29   2 2.41   3 2.41
   8  0.750  0.750  0.000-  12 2.29  16 2.29   1 2.41   4 2.41
   9  0.375  0.125  0.677-   3 2.29   5 2.29
  10  0.375  0.625  0.677-   4 2.29   6 2.29
  11  0.875  0.125  0.677-   1 2.29   7 2.29
  12  0.875  0.625  0.677-   2 2.29   8 2.29
  13  0.125  0.375  0.323-   2 2.29   5 2.29
  14  0.125  0.875  0.323-   1 2.29   6 2.29
  15  0.625  0.375  0.323-   4 2.29   7 2.29
  16  0.625  0.875  0.323-   3 2.29   8 2.29
 
  LATTYP: Found a base centered orthorhombic cell.
 ALAT       =     9.6211865219
 B/A-ratio  =     1.1816190996
 C/A-ratio  =     0.5796507874
  
  Lattice vectors:
  
 A1 = (   4.8105932609,  -5.6842888774,   0.0000000000)
 A2 = (   4.8105932609,   5.6842888774,   0.0000000000)
 A3 = (   0.0000000000,   0.0000000000,   5.5769283427)


Analysis of symmetry for initial positions (statically):
=====================================================================
 Subroutine PRICEL returns following result:
 
  LATTYP: Found a base centered orthorhombic cell.
 ALAT       =     4.8105932609
 B/A-ratio  =     1.1816190996
 C/A-ratio  =     1.1593015747
  
  Lattice vectors:
  
 A1 = (   2.4052966305,  -2.8421444387,   0.0000000000)
 A2 = (   2.4052966305,   2.8421444387,   0.0000000000)
 A3 = (   0.0000000000,   0.0000000000,   5.5769283427)
 
   4 primitive cells build up your supercell.
 

 Routine SETGRP: Setting up the symmetry group for a 
 base centered orthorhombic supercell.


 Subroutine GETGRP returns: Found  8 space group operations
 (whereof  4 operations were pure point group operations)
 out of a pool of  8 trial point group operations.


The static configuration has the point symmetry C_2h.
 The point group associated with its full space group is D_2h.


Analysis of symmetry for dynamics (positions and initial velocities):
=====================================================================
 Subroutine PRICEL returns following result:
 
  LATTYP: Found a base centered orthorhombic cell.
 ALAT       =     4.8105932609
 B/A-ratio  =     1.1816190996
 C/A-ratio  =     1.1593015747
  
  Lattice vectors:
  
 A1 = (   2.4052966305,  -2.8421444387,   0.0000000000)
 A2 = (   2.4052966305,   2.8421444387,   0.0000000000)
 A3 = (   0.0000000000,   0.0000000000,   5.5769283427)
 
   4 primitive cells build up your supercell.
 

 Routine SETGRP: Setting up the symmetry group for a 
 base centered orthorhombic supercell.


 Subroutine GETGRP returns: Found  8 space group operations
 (whereof  4 operations were pure point group operations)
 out of a pool of  8 trial point group operations.


The dynamic configuration has the point symmetry C_2h.
 The point group associated with its full space group is D_2h.


Analysis of structural, dynamic, and magnetic symmetry:
=====================================================================
 Subroutine PRICEL returns following result:
 
  LATTYP: Found a base centered orthorhombic cell.
 ALAT       =     4.8105932609
 B/A-ratio  =     1.1816190996
 C/A-ratio  =     1.1593015747
  
  Lattice vectors:
  
 A1 = (   2.4052966305,  -2.8421444387,   0.0000000000)
 A2 = (   2.4052966305,   2.8421444387,   0.0000000000)
 A3 = (   0.0000000000,   0.0000000000,   5.5769283427)
 
   4 primitive cells build up your supercell.
 

 Routine SETGRP: Setting up the symmetry group for a 
 base centered orthorhombic supercell.


 Subroutine GETGRP returns: Found  8 space group operations
 (whereof  4 operations were pure point group operations)
 out of a pool of  8 trial point group operations.


The overall configuration has the point symmetry C_2h.
 The point group associated with its full space group is D_2h.


 Subroutine INISYM returns: Found  8 space group operations
 (whereof  4 operations are pure point group operations),
 and found     4 'primitive' translations


----------------------------------------------------------------------------------------

                                     Primitive cell                                     

  volume of cell :      76.2500

  direct lattice vectors                    reciprocal lattice vectors
     2.405296630 -2.842144439  0.000000000     0.207874569 -0.175923501  0.000000000
     2.405296630  2.842144439  0.000000000     0.207874569  0.175923501  0.000000000
     0.000000000  0.000000000  5.576928343     0.000000000  0.000000000  0.179310176

  length of vectors
     3.723336795  3.723336795  5.576928343     0.272325016  0.272325016  0.179310176

  position of ions in fractional coordinates (direct lattice)
     0.000000000  0.000000000  0.000000000
     0.500000000  0.500000000  0.000000000
     0.750000000  0.250000000  0.677088726
     0.250000000  0.750000000  0.322911274

  ion indices of the primitive-cell ions
   primitive index   ion index
                 1           1
                 2           5
                 3          11
                 4          14

----------------------------------------------------------------------------------------

 
 
 KPOINTS: KPOINTS                                 

Automatic generation of k-mesh.
 Grid dimensions read from file:
 generate k-points for:    7    7    9

 Generating k-lattice:

  Cartesian coordinates                     Fractional coordinates (reciprocal lattice)
     0.014848183 -0.012565964  0.000000000     0.142857143 -0.000000000  0.000000000
     0.014848183  0.012565964  0.000000000    -0.000000000  0.142857143  0.000000000
     0.000000000  0.000000000  0.019923353     0.000000000  0.000000000  0.111111111

  Length of vectors
     0.019451787  0.019451787  0.019923353

  Shift w.r.t. Gamma in fractional coordinates (k-lattice)
     0.000000000  0.000000000  0.000000000

 
 Subroutine IBZKPT returns following result:
 ===========================================
 
 Found     80 irreducible k-points:
 
 Following reciprocal coordinates:
            Coordinates               Weight
  0.000000  0.000000  0.000000      1.000000
  0.142857  0.000000  0.000000      4.000000
  0.285714  0.000000  0.000000      4.000000
  0.428571  0.000000  0.000000      4.000000
  0.142857  0.142857  0.000000      2.000000
  0.285714  0.142857  0.000000      4.000000
  0.428571  0.142857  0.000000      4.000000
 -0.428571  0.142857  0.000000      4.000000
 -0.285714  0.142857  0.000000      4.000000
 -0.142857  0.142857  0.000000      2.000000
  0.285714  0.285714  0.000000      2.000000
  0.428571  0.285714  0.000000      4.000000
 -0.428571  0.285714  0.000000      4.000000
 -0.285714  0.285714  0.000000      2.000000
  0.428571  0.428571  0.000000      2.000000
 -0.428571  0.428571  0.000000      2.000000
  0.000000  0.000000  0.111111      2.000000
  0.142857  0.000000  0.111111      8.000000
  0.285714  0.000000  0.111111      8.000000
  0.428571  0.000000  0.111111      8.000000
  0.142857  0.142857  0.111111      4.000000
  0.285714  0.142857  0.111111      8.000000
  0.428571  0.142857  0.111111      8.000000
 -0.428571  0.142857  0.111111      8.000000
 -0.285714  0.142857  0.111111      8.000000
 -0.142857  0.142857  0.111111      4.000000
  0.285714  0.285714  0.111111      4.000000
  0.428571  0.285714  0.111111      8.000000
 -0.428571  0.285714  0.111111      8.000000
 -0.285714  0.285714  0.111111      4.000000
  0.428571  0.428571  0.111111      4.000000
 -0.428571  0.428571  0.111111      4.000000
  0.000000  0.000000  0.222222      2.000000
  0.142857  0.000000  0.222222      8.000000
  0.285714  0.000000  0.222222      8.000000
  0.428571  0.000000  0.222222      8.000000
  0.142857  0.142857  0.222222      4.000000
  0.285714  0.142857  0.222222      8.000000
  0.428571  0.142857  0.222222      8.000000
 -0.428571  0.142857  0.222222      8.000000
 -0.285714  0.142857  0.222222      8.000000
 -0.142857  0.142857  0.222222      4.000000
  0.285714  0.285714  0.222222      4.000000
  0.428571  0.285714  0.222222      8.000000
 -0.428571  0.285714  0.222222      8.000000
 -0.285714  0.285714  0.222222      4.000000
  0.428571  0.428571  0.222222      4.000000
 -0.428571  0.428571  0.222222      4.000000
  0.000000  0.000000  0.333333      2.000000
  0.142857  0.000000  0.333333      8.000000
  0.285714  0.000000  0.333333      8.000000
  0.428571  0.000000  0.333333      8.000000
  0.142857  0.142857  0.333333      4.000000
  0.285714  0.142857  0.333333      8.000000
  0.428571  0.142857  0.333333      8.000000
 -0.428571  0.142857  0.333333      8.000000
 -0.285714  0.142857  0.333333      8.000000
 -0.142857  0.142857  0.333333      4.000000
  0.285714  0.285714  0.333333      4.000000
  0.428571  0.285714  0.333333      8.000000
 -0.428571  0.285714  0.333333      8.000000
 -0.285714  0.285714  0.333333      4.000000
  0.428571  0.428571  0.333333      4.000000
 -0.428571  0.428571  0.333333      4.000000
  0.000000  0.000000  0.444444      2.000000
  0.142857  0.000000  0.444444      8.000000
  0.285714  0.000000  0.444444      8.000000
  0.428571  0.000000  0.444444      8.000000
  0.142857  0.142857  0.444444      4.000000
  0.285714  0.142857  0.444444      8.000000
  0.428571  0.142857  0.444444      8.000000
 -0.428571  0.142857  0.444444      8.000000
 -0.285714  0.142857  0.444444      8.000000
 -0.142857  0.142857  0.444444      4.000000
  0.285714  0.285714  0.444444      4.000000
  0.428571  0.285714  0.444444      8.000000
 -0.428571  0.285714  0.444444      8.000000
 -0.285714  0.285714  0.444444      4.000000
  0.428571  0.428571  0.444444      4.000000
 -0.428571  0.428571  0.444444      4.000000
 
 Following cartesian coordinates:
            Coordinates               Weight
  0.000000  0.000000  0.000000      1.000000
  0.014848 -0.012566  0.000000      4.000000
  0.029696 -0.025132  0.000000      4.000000
  0.044545 -0.037698  0.000000      4.000000
  0.029696 -0.000000  0.000000      2.000000
  0.044545 -0.012566  0.000000      4.000000
  0.059393 -0.025132  0.000000      4.000000
 -0.029696  0.050264  0.000000      4.000000
 -0.014848  0.037698  0.000000      4.000000
 -0.000000  0.025132  0.000000      2.000000
  0.059393  0.000000  0.000000      2.000000
  0.074241 -0.012566  0.000000      4.000000
 -0.014848  0.062830  0.000000      4.000000
 -0.000000  0.050264  0.000000      2.000000
  0.089089  0.000000  0.000000      2.000000
 -0.000000  0.075396  0.000000      2.000000
  0.000000  0.000000  0.019923      2.000000
  0.014848 -0.012566  0.019923      8.000000
  0.029696 -0.025132  0.019923      8.000000
  0.044545 -0.037698  0.019923      8.000000
  0.029696 -0.000000  0.019923      4.000000
  0.044545 -0.012566  0.019923      8.000000
  0.059393 -0.025132  0.019923      8.000000
 -0.029696  0.050264  0.019923      8.000000
 -0.014848  0.037698  0.019923      8.000000
 -0.000000  0.025132  0.019923      4.000000
  0.059393  0.000000  0.019923      4.000000
  0.074241 -0.012566  0.019923      8.000000
 -0.014848  0.062830  0.019923      8.000000
 -0.000000  0.050264  0.019923      4.000000
  0.089089  0.000000  0.019923      4.000000
 -0.000000  0.075396  0.019923      4.000000
  0.000000  0.000000  0.039847      2.000000
  0.014848 -0.012566  0.039847      8.000000
  0.029696 -0.025132  0.039847      8.000000
  0.044545 -0.037698  0.039847      8.000000
  0.029696 -0.000000  0.039847      4.000000
  0.044545 -0.012566  0.039847      8.000000
  0.059393 -0.025132  0.039847      8.000000
 -0.029696  0.050264  0.039847      8.000000
 -0.014848  0.037698  0.039847      8.000000
 -0.000000  0.025132  0.039847      4.000000
  0.059393  0.000000  0.039847      4.000000
  0.074241 -0.012566  0.039847      8.000000
 -0.014848  0.062830  0.039847      8.000000
 -0.000000  0.050264  0.039847      4.000000
  0.089089  0.000000  0.039847      4.000000
 -0.000000  0.075396  0.039847      4.000000
  0.000000  0.000000  0.059770      2.000000
  0.014848 -0.012566  0.059770      8.000000
  0.029696 -0.025132  0.059770      8.000000
  0.044545 -0.037698  0.059770      8.000000
  0.029696 -0.000000  0.059770      4.000000
  0.044545 -0.012566  0.059770      8.000000
  0.059393 -0.025132  0.059770      8.000000
 -0.029696  0.050264  0.059770      8.000000
 -0.014848  0.037698  0.059770      8.000000
 -0.000000  0.025132  0.059770      4.000000
  0.059393  0.000000  0.059770      4.000000
  0.074241 -0.012566  0.059770      8.000000
 -0.014848  0.062830  0.059770      8.000000
 -0.000000  0.050264  0.059770      4.000000
  0.089089  0.000000  0.059770      4.000000
 -0.000000  0.075396  0.059770      4.000000
  0.000000  0.000000  0.079693      2.000000
  0.014848 -0.012566  0.079693      8.000000
  0.029696 -0.025132  0.079693      8.000000
  0.044545 -0.037698  0.079693      8.000000
  0.029696 -0.000000  0.079693      4.000000
  0.044545 -0.012566  0.079693      8.000000
  0.059393 -0.025132  0.079693      8.000000
 -0.029696  0.050264  0.079693      8.000000
 -0.014848  0.037698  0.079693      8.000000
 -0.000000  0.025132  0.079693      4.000000
  0.059393  0.000000  0.079693      4.000000
  0.074241 -0.012566  0.079693      8.000000
 -0.014848  0.062830  0.079693      8.000000
 -0.000000  0.050264  0.079693      4.000000
  0.089089  0.000000  0.079693      4.000000
 -0.000000  0.075396  0.079693      4.000000
 


--------------------------------------------------------------------------------------------------------




 Dimension of arrays:
   k-points           NKPTS =     80   k-points in BZ     NKDIM =     80   number of bands    NBANDS=    100
   number of dos      NEDOS =    301   number of ions     NIONS =     16
   non local maximal  LDIM  =      6   non local SUM 2l+1 LMDIM =     18
   total plane-waves  NPLWV = 172800
   max r-space proj   IRMAX =   7254   max aug-charges    IRDMAX=  24904
   dimension x,y,z NGX =    60 NGY =   60 NGZ =   48
   dimension x,y,z NGXF=   120 NGYF=  120 NGZF=   96
   support grid    NGXF=   120 NGYF=  120 NGZF=   96
   ions per type =               8   8
   NGX,Y,Z   is equivalent  to a cutoff of  13.39, 13.39, 14.31 a.u.
   NGXF,Y,Z  is equivalent  to a cutoff of  26.79, 26.79, 28.62 a.u.

 SYSTEM =  unknown system                          
 POSCAR =  Fe8 Se8                                 

 Startparameter for this run:
   NWRITE =      2    write-flag & timer
   PREC   = accura    normal or accurate (medium, high low for compatibility)
   ISTART =      0    job   : 0-new  1-cont  2-samecut
   ICHARG =      2    charge: 1-file 2-atom 10-const
   ISPIN  =      2    spin polarized calculation?
   LNONCOLLINEAR =      F non collinear calculations
   LSORBIT =      F    spin-orbit coupling
   INIWAV =      1    electr: 0-lowe 1-rand  2-diag
   LASPH  =      T    aspherical Exc in radial PAW
 Electronic Relaxation 1
   ENCUT  =  550.0 eV  40.42 Ry    6.36 a.u.  14.24 14.24 10.66*2*pi/ulx,y,z
   ENINI  =  550.0     initial cutoff
   ENAUG  =  578.3 eV  augmentation charge cutoff
   NELM   =    100;   NELMIN=  2; NELMDL=  0     # of ELM steps 
   EDIFF  = 0.2E-03   stopping-criterion for ELM
   LREAL  =      T    real-space projection
   NLSPLINE    = F    spline interpolate recip. space projectors
   LCOMPAT=      F    compatible to vasp.4.4
   GGA_COMPAT  = T    GGA compatible to vasp.4.4-vasp.4.6
   LMAXPAW     = -100 max onsite density
   LMAXMIX     =    4 max onsite mixed and CHGCAR
   VOSKOWN=      0    Vosko Wilk Nusair interpolation
   ROPT   =   -0.00025  -0.00025
 Ionic relaxation
   EDIFFG = 0.2E-02   stopping-criterion for IOM
   NSW    =     99    number of steps for IOM
   NBLOCK =      1;   KBLOCK =     99    inner block; outer block 
   IBRION =      2    ionic relax: 0-MD 1-quasi-New 2-CG
   NFREE  =      1    steps in history (QN), initial steepest desc. (CG)
   ISIF   =      4    stress and relaxation
   IWAVPR =     11    prediction:  0-non 1-charg 2-wave 3-comb
   ISYM   =      2    0-nonsym 1-usesym 2-fastsym
   LCORR  =      T    Harris-Foulkes like correction to forces

   POTIM  = 0.5000    time-step for ionic-motion
   TEIN   =    0.0    initial temperature
   TEBEG  =    0.0;   TEEND  =   0.0 temperature during run
   SMASS  =  -3.00    Nose mass-parameter (am)
   estimated Nose-frequenzy (Omega)   =  0.10E-29 period in steps = 0.13E+47 mass=  -0.127E-26a.u.
   SCALEE = 1.0000    scale energy and forces
   NPACO  =    256;   APACO  = 10.0  distance and # of slots for P.C.
   PSTRESS=    0.0 pullay stress

  Mass of Ions in am
   POMASS =  55.85 78.96
  Ionic Valenz
   ZVAL   =  14.00  6.00
  Atomic Wigner-Seitz radii
   RWIGS  =  -1.00 -1.00
  virtual crystal weights 
   VCA    =   1.00  1.00
   NELECT =     160.0000    total number of electrons
   NUPDOWN=      -1.0000    fix difference up-down

 DOS related values:
   EMIN   =  10.00;   EMAX   =-10.00  energy-range for DOS
   EFERMI =   0.00;   METHOD = LEGACY      
   ISMEAR =     0;   SIGMA  =   0.05  broadening in eV -4-tet -1-fermi 0-gaus

 Electronic relaxation 2 (details)
   IALGO  =     68    algorithm
   LDIAG  =      T    sub-space diagonalisation (order eigenvalues)
   LSUBROT=      F    optimize rotation matrix (better conditioning)
   TURBO    =      0    0=normal 1=particle mesh
   IRESTART =      0    0=no restart 2=restart with 2 vectors
   NREBOOT  =      0    no. of reboots
   NMIN     =      0    reboot dimension
   EREF     =   0.00    reference energy to select bands
   IMIX   =      4    mixing-type and parameters
     AMIX     =   0.40;   BMIX     =  1.00
     AMIX_MAG =   1.60;   BMIX_MAG =  1.00
     AMIN     =   0.10
     WC   =   100.;   INIMIX=   1;  MIXPRE=   1;  MAXMIX= -45

 Intra band minimization:
   WEIMIN = 0.0010     energy-eigenvalue tresh-hold
   EBREAK =  0.50E-06  absolut break condition
   DEPER  =   0.30     relativ break condition  

   TIME   =   0.40     timestep for ELM

  volume/ion in A,a.u.               =      19.06       128.64
  Fermi-wavevector in a.u.,A,eV,Ry     =   1.320327  2.495056 23.718543  1.743264
  Thomas-Fermi vector in A             =   2.450161
 
 Write flags
   LWAVE        =      F    write WAVECAR
   LDOWNSAMPLE  =      F    k-point downsampling of WAVECAR
   LCHARG       =      T    write CHGCAR
   LVTOT        =      F    write LOCPOT, total local potential
   LVHAR        =      F    write LOCPOT, Hartree potential only
   LELF         =      F    write electronic localiz. function (ELF)
   LORBIT       =     11    0 simple, 1 ext, 2 COOP (PROOUT), +10 PAW based schemes


 Dipole corrections
   LMONO  =      F    monopole corrections only (constant potential shift)
   LDIPOL =      F    correct potential (dipole corrections)
   IDIPOL =      0    1-x, 2-y, 3-z, 4-all directions 
   EPSILON=  1.0000000 bulk dielectric constant

 Exchange correlation treatment:
   GGA     =    --    GGA type
   LEXCH   =     8    internal setting for exchange type
   LIBXC   =     F    Libxc                    
   VOSKOWN =     0    Vosko Wilk Nusair interpolation
   LHFCALC =     F    Hartree Fock is set to
   LHFONE  =     F    Hartree Fock one center treatment
   AEXX    =    0.0000 exact exchange contribution

 Linear response parameters
   LEPSILON=     F    determine dielectric tensor
   LRPA    =     F    only Hartree local field effects (RPA)
   LNABLA  =     F    use nabla operator in PAW spheres
   LVEL    =     F    velocity operator in full k-point grid
   CSHIFT  =0.1000    complex shift for real part using Kramers Kronig
   OMEGAMAX=  -1.0    maximum frequency
   DEG_THRESHOLD= 0.2000000E-02 threshold for treating states as degnerate
   RTIME   =   -0.100 relaxation time in fs
  (WPLASMAI=    0.000 imaginary part of plasma frequency in eV, 0.658/RTIME)
   DFIELD  = 0.0000000 0.0000000 0.0000000 field for delta impulse in time
 
  Optional k-point grid parameters
   LKPOINTS_OPT  =     F    use optional k-point grid
   KPOINTS_OPT_MODE=     1    mode for optional k-point grid
 
 Orbital magnetization related:
   ORBITALMAG=     F  switch on orbital magnetization
   LCHIMAG   =     F  perturbation theory with respect to B field
   DQ        =  0.001000  dq finite difference perturbation B field
   LLRAUG    =     F  two centre corrections for induced B field
   LBONE     =     F  B-component reconstruction in AE one-centre
   LVGVCALC  =     T  calculate vGv susceptibility
   LVGVAPPL  =     F  apply vGv susceptibility instead of pGv for G=0

 Random number generation:
   RANDOM_GENERATOR = DEFAULT
   PCG_SEED         = not used


--------------------------------------------------------------------------------------------------------


 conjugate gradient relaxation of ions
 charge density and potential will be updated during run
 spin polarized calculation
 RMM-DIIS sequential band-by-band and
  variant of blocked Davidson during initial phase
 perform sub-space diagonalisation
    before iterative eigenvector-optimisation
 modified Broyden-mixing scheme, WC =      100.0
 initial mixing is a Kerker type mixing with AMIX =  0.4000 and BMIX =      1.0000
 Hartree-type preconditioning will be used
 using additional bands           20
 real space projection scheme for non local part
 use partial core corrections
 calculate Harris-corrections to forces 
   (improved forces if not selfconsistent)
 use gradient corrections 
 use of overlap-Matrix (Vanderbilt PP)
 Gauss-broadening in eV      SIGMA  =   0.05


--------------------------------------------------------------------------------------------------------


  energy-cutoff  :      550.00
  volume of cell :      305.00
      direct lattice vectors                 reciprocal lattice vectors
     4.810593261 -5.684288877  0.000000000     0.103937284 -0.087961750  0.000000000
     4.810593261  5.684288877  0.000000000     0.103937284  0.087961750  0.000000000
     0.000000000  0.000000000  5.576928343     0.000000000  0.000000000  0.179310176

  length of vectors
     7.446673591  7.446673591  5.576928343     0.136162508  0.136162508  0.179310176


 
 k-points in units of 2pi/SCALE and weight: KPOINTS                                 
   0.00000000  0.00000000  0.00000000       0.002
   0.01484818 -0.01256596  0.00000000       0.009
   0.02969637 -0.02513193  0.00000000       0.009
   0.04454455 -0.03769789  0.00000000       0.009
   0.02969637  0.00000000  0.00000000       0.005
   0.04454455 -0.01256596  0.00000000       0.009
   0.05939273 -0.02513193  0.00000000       0.009
  -0.02969637  0.05026386  0.00000000       0.009
  -0.01484818  0.03769789  0.00000000       0.009
   0.00000000  0.02513193  0.00000000       0.005
   0.05939273 -0.00000000  0.00000000       0.005
   0.07424092 -0.01256596  0.00000000       0.009
  -0.01484818  0.06282982  0.00000000       0.009
   0.00000000  0.05026386  0.00000000       0.005
   0.08908910  0.00000000  0.00000000       0.005
  -0.00000000  0.07539579  0.00000000       0.005
   0.00000000  0.00000000  0.01992335       0.005
   0.01484818 -0.01256596  0.01992335       0.018
   0.02969637 -0.02513193  0.01992335       0.018
   0.04454455 -0.03769789  0.01992335       0.018
   0.02969637  0.00000000  0.01992335       0.009
   0.04454455 -0.01256596  0.01992335       0.018
   0.05939273 -0.02513193  0.01992335       0.018
  -0.02969637  0.05026386  0.01992335       0.018
  -0.01484818  0.03769789  0.01992335       0.018
   0.00000000  0.02513193  0.01992335       0.009
   0.05939273 -0.00000000  0.01992335       0.009
   0.07424092 -0.01256596  0.01992335       0.018
  -0.01484818  0.06282982  0.01992335       0.018
   0.00000000  0.05026386  0.01992335       0.009
   0.08908910  0.00000000  0.01992335       0.009
  -0.00000000  0.07539579  0.01992335       0.009
   0.00000000  0.00000000  0.03984671       0.005
   0.01484818 -0.01256596  0.03984671       0.018
   0.02969637 -0.02513193  0.03984671       0.018
   0.04454455 -0.03769789  0.03984671       0.018
   0.02969637  0.00000000  0.03984671       0.009
   0.04454455 -0.01256596  0.03984671       0.018
   0.05939273 -0.02513193  0.03984671       0.018
  -0.02969637  0.05026386  0.03984671       0.018
  -0.01484818  0.03769789  0.03984671       0.018
   0.00000000  0.02513193  0.03984671       0.009
   0.05939273 -0.00000000  0.03984671       0.009
   0.07424092 -0.01256596  0.03984671       0.018
  -0.01484818  0.06282982  0.03984671       0.018
   0.00000000  0.05026386  0.03984671       0.009
   0.08908910  0.00000000  0.03984671       0.009
  -0.00000000  0.07539579  0.03984671       0.009
   0.00000000  0.00000000  0.05977006       0.005
   0.01484818 -0.01256596  0.05977006       0.018
   0.02969637 -0.02513193  0.05977006       0.018
   0.04454455 -0.03769789  0.05977006       0.018
   0.02969637  0.00000000  0.05977006       0.009
   0.04454455 -0.01256596  0.05977006       0.018
   0.05939273 -0.02513193  0.05977006       0.018
  -0.02969637  0.05026386  0.05977006       0.018
  -0.01484818  0.03769789  0.05977006       0.018
   0.00000000  0.02513193  0.05977006       0.009
   0.05939273 -0.00000000  0.05977006       0.009
   0.07424092 -0.01256596  0.05977006       0.018
  -0.01484818  0.06282982  0.05977006       0.018
   0.00000000  0.05026386  0.05977006       0.009
   0.08908910  0.00000000  0.05977006       0.009
  -0.00000000  0.07539579  0.05977006       0.009
   0.00000000  0.00000000  0.07969341       0.005
   0.01484818 -0.01256596  0.07969341       0.018
   0.02969637 -0.02513193  0.07969341       0.018
   0.04454455 -0.03769789  0.07969341       0.018
   0.02969637  0.00000000  0.07969341       0.009
   0.04454455 -0.01256596  0.07969341       0.018
   0.05939273 -0.02513193  0.07969341       0.018
  -0.02969637  0.05026386  0.07969341       0.018
  -0.01484818  0.03769789  0.07969341       0.018
   0.00000000  0.02513193  0.07969341       0.009
   0.05939273 -0.00000000  0.07969341       0.009
   0.07424092 -0.01256596  0.07969341       0.018
  -0.01484818  0.06282982  0.07969341       0.018
   0.00000000  0.05026386  0.07969341       0.009
   0.08908910  0.00000000  0.07969341       0.009
  -0.00000000  0.07539579  0.07969341       0.009
 
 k-points in reciprocal lattice and weights: KPOINTS                                 
   0.00000000  0.00000000  0.00000000       0.002
   0.14285714  0.00000000  0.00000000       0.009
   0.28571429  0.00000000  0.00000000       0.009
   0.42857143  0.00000000  0.00000000       0.009
   0.14285714  0.14285714  0.00000000       0.005
   0.28571429  0.14285714  0.00000000       0.009
   0.42857143  0.14285714  0.00000000       0.009
  -0.42857143  0.14285714  0.00000000       0.009
  -0.28571429  0.14285714  0.00000000       0.009
  -0.14285714  0.14285714  0.00000000       0.005
   0.28571429  0.28571429  0.00000000       0.005
   0.42857143  0.28571429  0.00000000       0.009
  -0.42857143  0.28571429  0.00000000       0.009
  -0.28571429  0.28571429  0.00000000       0.005
   0.42857143  0.42857143  0.00000000       0.005
  -0.42857143  0.42857143  0.00000000       0.005
   0.00000000  0.00000000  0.11111111       0.005
   0.14285714  0.00000000  0.11111111       0.018
   0.28571429  0.00000000  0.11111111       0.018
   0.42857143  0.00000000  0.11111111       0.018
   0.14285714  0.14285714  0.11111111       0.009
   0.28571429  0.14285714  0.11111111       0.018
   0.42857143  0.14285714  0.11111111       0.018
  -0.42857143  0.14285714  0.11111111       0.018
  -0.28571429  0.14285714  0.11111111       0.018
  -0.14285714  0.14285714  0.11111111       0.009
   0.28571429  0.28571429  0.11111111       0.009
   0.42857143  0.28571429  0.11111111       0.018
  -0.42857143  0.28571429  0.11111111       0.018
  -0.28571429  0.28571429  0.11111111       0.009
   0.42857143  0.42857143  0.11111111       0.009
  -0.42857143  0.42857143  0.11111111       0.009
   0.00000000  0.00000000  0.22222222       0.005
   0.14285714  0.00000000  0.22222222       0.018
   0.28571429  0.00000000  0.22222222       0.018
   0.42857143  0.00000000  0.22222222       0.018
   0.14285714  0.14285714  0.22222222       0.009
   0.28571429  0.14285714  0.22222222       0.018
   0.42857143  0.14285714  0.22222222       0.018
  -0.42857143  0.14285714  0.22222222       0.018
  -0.28571429  0.14285714  0.22222222       0.018
  -0.14285714  0.14285714  0.22222222       0.009
   0.28571429  0.28571429  0.22222222       0.009
   0.42857143  0.28571429  0.22222222       0.018
  -0.42857143  0.28571429  0.22222222       0.018
  -0.28571429  0.28571429  0.22222222       0.009
   0.42857143  0.42857143  0.22222222       0.009
  -0.42857143  0.42857143  0.22222222       0.009
   0.00000000  0.00000000  0.33333333       0.005
   0.14285714  0.00000000  0.33333333       0.018
   0.28571429  0.00000000  0.33333333       0.018
   0.42857143  0.00000000  0.33333333       0.018
   0.14285714  0.14285714  0.33333333       0.009
   0.28571429  0.14285714  0.33333333       0.018
   0.42857143  0.14285714  0.33333333       0.018
  -0.42857143  0.14285714  0.33333333       0.018
  -0.28571429  0.14285714  0.33333333       0.018
  -0.14285714  0.14285714  0.33333333       0.009
   0.28571429  0.28571429  0.33333333       0.009
   0.42857143  0.28571429  0.33333333       0.018
  -0.42857143  0.28571429  0.33333333       0.018
  -0.28571429  0.28571429  0.33333333       0.009
   0.42857143  0.42857143  0.33333333       0.009
  -0.42857143  0.42857143  0.33333333       0.009
   0.00000000  0.00000000  0.44444444       0.005
   0.14285714  0.00000000  0.44444444       0.018
   0.28571429  0.00000000  0.44444444       0.018
   0.42857143  0.00000000  0.44444444       0.018
   0.14285714  0.14285714  0.44444444       0.009
   0.28571429  0.14285714  0.44444444       0.018
   0.42857143  0.14285714  0.44444444       0.018
  -0.42857143  0.14285714  0.44444444       0.018
  -0.28571429  0.14285714  0.44444444       0.018
  -0.14285714  0.14285714  0.44444444       0.009
   0.28571429  0.28571429  0.44444444       0.009
   0.42857143  0.28571429  0.44444444       0.018
  -0.42857143  0.28571429  0.44444444       0.018
  -0.28571429  0.28571429  0.44444444       0.009
   0.42857143  0.42857143  0.44444444       0.009
  -0.42857143  0.42857143  0.44444444       0.009
 
 position of ions in fractional coordinates (direct lattice) 
   0.00000000  0.00000000  0.00000000
   0.00000000  0.50000000  0.00000000
   0.50000000  0.00000000  0.00000000
   0.50000000  0.50000000  0.00000000
   0.25000000  0.25000000  0.00000000
   0.25000000  0.75000000  0.00000000
   0.75000000  0.25000000  0.00000000
   0.75000000  0.75000000  0.00000000
   0.37500000  0.12500000  0.67708873
   0.37500000  0.62500000  0.67708873
   0.87500000  0.12500000  0.67708873
   0.87500000  0.62500000  0.67708873
   0.12500000  0.37500000  0.32291127
   0.12500000  0.87500000  0.32291127
   0.62500000  0.37500000  0.32291127
   0.62500000  0.87500000  0.32291127
 
 position of ions in cartesian coordinates  (Angst):
   0.00000000  0.00000000  0.00000000
   2.40529663  2.84214444  0.00000000
   2.40529663 -2.84214444  0.00000000
   4.81059326  0.00000000  0.00000000
   2.40529663  0.00000000  0.00000000
   4.81059326  2.84214444  0.00000000
   4.81059326 -2.84214444  0.00000000
   7.21588989  0.00000000  0.00000000
   2.40529663 -1.42107222  3.77607531
   4.81059326  1.42107222  3.77607531
   4.81059326 -4.26321666  3.77607531
   7.21588989 -1.42107222  3.77607531
   2.40529663  1.42107222  1.80085303
   4.81059326  4.26321666  1.80085303
   4.81059326 -1.42107222  1.80085303
   7.21588989  1.42107222  1.80085303
 


--------------------------------------------------------------------------------------------------------


 k-point   1 :   0.0000 0.0000 0.0000  plane waves:    8955
 k-point   2 :   0.1429 0.0000 0.0000  plane waves:    8955
 k-point   3 :   0.2857 0.0000 0.0000  plane waves:    8929
 k-point   4 :   0.4286 0.0000 0.0000  plane waves:    8931
 k-point   5 :   0.1429 0.1429 0.0000  plane waves:    8925
 k-point   6 :   0.2857 0.1429 0.0000  plane waves:    8924
 k-point   7 :   0.4286 0.1429 0.0000  plane waves:    8958
 k-point   8 :  -0.4286 0.1429 0.0000  plane waves:    8933
 k-point   9 :  -0.2857 0.1429 0.0000  plane waves:    8935
 k-point  10 :  -0.1429 0.1429 0.0000  plane waves:    8956
 k-point  11 :   0.2857 0.2857 0.0000  plane waves:    8930
 k-point  12 :   0.4286 0.2857 0.0000  plane waves:    8959
 k-point  13 :  -0.4286 0.2857 0.0000  plane waves:    8938
 k-point  14 :  -0.2857 0.2857 0.0000  plane waves:    8940
 k-point  15 :   0.4286 0.4286 0.0000  plane waves:    8952
 k-point  16 :  -0.4286 0.4286 0.0000  plane waves:    8936
 k-point  17 :   0.0000 0.0000 0.1111  plane waves:    8949
 k-point  18 :   0.1429 0.0000 0.1111  plane waves:    8940
 k-point  19 :   0.2857 0.0000 0.1111  plane waves:    8931
 k-point  20 :   0.4286 0.0000 0.1111  plane waves:    8948
 k-point  21 :   0.1429 0.1429 0.1111  plane waves:    8942
 k-point  22 :   0.2857 0.1429 0.1111  plane waves:    8934
 k-point  23 :   0.4286 0.1429 0.1111  plane waves:    8946
 k-point  24 :  -0.4286 0.1429 0.1111  plane waves:    8940
 k-point  25 :  -0.2857 0.1429 0.1111  plane waves:    8935
 k-point  26 :  -0.1429 0.1429 0.1111  plane waves:    8944
 k-point  27 :   0.2857 0.2857 0.1111  plane waves:    8923
 k-point  28 :   0.4286 0.2857 0.1111  plane waves:    8942
 k-point  29 :  -0.4286 0.2857 0.1111  plane waves:    8932
 k-point  30 :  -0.2857 0.2857 0.1111  plane waves:    8944
 k-point  31 :   0.4286 0.4286 0.1111  plane waves:    8950
 k-point  32 :  -0.4286 0.4286 0.1111  plane waves:    8925
 k-point  33 :   0.0000 0.0000 0.2222  plane waves:    8937
 k-point  34 :   0.1429 0.0000 0.2222  plane waves:    8928
 k-point  35 :   0.2857 0.0000 0.2222  plane waves:    8932
 k-point  36 :   0.4286 0.0000 0.2222  plane waves:    8929
 k-point  37 :   0.1429 0.1429 0.2222  plane waves:    8930
 k-point  38 :   0.2857 0.1429 0.2222  plane waves:    8934
 k-point  39 :   0.4286 0.1429 0.2222  plane waves:    8928
 k-point  40 :  -0.4286 0.1429 0.2222  plane waves:    8938
 k-point  41 :  -0.2857 0.1429 0.2222  plane waves:    8937
 k-point  42 :  -0.1429 0.1429 0.2222  plane waves:    8939
 k-point  43 :   0.2857 0.2857 0.2222  plane waves:    8905
 k-point  44 :   0.4286 0.2857 0.2222  plane waves:    8933
 k-point  45 :  -0.4286 0.2857 0.2222  plane waves:    8941
 k-point  46 :  -0.2857 0.2857 0.2222  plane waves:    8946
 k-point  47 :   0.4286 0.4286 0.2222  plane waves:    8930
 k-point  48 :  -0.4286 0.4286 0.2222  plane waves:    8946
 k-point  49 :   0.0000 0.0000 0.3333  plane waves:    8925
 k-point  50 :   0.1429 0.0000 0.3333  plane waves:    8930
 k-point  51 :   0.2857 0.0000 0.3333  plane waves:    8931
 k-point  52 :   0.4286 0.0000 0.3333  plane waves:    8914
 k-point  53 :   0.1429 0.1429 0.3333  plane waves:    8931
 k-point  54 :   0.2857 0.1429 0.3333  plane waves:    8922
 k-point  55 :   0.4286 0.1429 0.3333  plane waves:    8918
 k-point  56 :  -0.4286 0.1429 0.3333  plane waves:    8930
 k-point  57 :  -0.2857 0.1429 0.3333  plane waves:    8930
 k-point  58 :  -0.1429 0.1429 0.3333  plane waves:    8928
 k-point  59 :   0.2857 0.2857 0.3333  plane waves:    8947
 k-point  60 :   0.4286 0.2857 0.3333  plane waves:    8933
 k-point  61 :  -0.4286 0.2857 0.3333  plane waves:    8938
 k-point  62 :  -0.2857 0.2857 0.3333  plane waves:    8921
 k-point  63 :   0.4286 0.4286 0.3333  plane waves:    8925
 k-point  64 :  -0.4286 0.4286 0.3333  plane waves:    8929
 k-point  65 :   0.0000 0.0000 0.4444  plane waves:    8926
 k-point  66 :   0.1429 0.0000 0.4444  plane waves:    8939
 k-point  67 :   0.2857 0.0000 0.4444  plane waves:    8938
 k-point  68 :   0.4286 0.0000 0.4444  plane waves:    8929
 k-point  69 :   0.1429 0.1429 0.4444  plane waves:    8939
 k-point  70 :   0.2857 0.1429 0.4444  plane waves:    8928
 k-point  71 :   0.4286 0.1429 0.4444  plane waves:    8920
 k-point  72 :  -0.4286 0.1429 0.4444  plane waves:    8925
 k-point  73 :  -0.2857 0.1429 0.4444  plane waves:    8931
 k-point  74 :  -0.1429 0.1429 0.4444  plane waves:    8933
 k-point  75 :   0.2857 0.2857 0.4444  plane waves:    8938
 k-point  76 :   0.4286 0.2857 0.4444  plane waves:    8918
 k-point  77 :  -0.4286 0.2857 0.4444  plane waves:    8921
 k-point  78 :  -0.2857 0.2857 0.4444  plane waves:    8916
 k-point  79 :   0.4286 0.4286 0.4444  plane waves:    8944
 k-point  80 :  -0.4286 0.4286 0.4444  plane waves:    8947

 maximum and minimum number of plane-waves per node :      8959     8905

 maximum number of plane-waves:      8959
 maximum index in each direction: 
   IXMAX=   14   IYMAX=   14   IZMAX=   10
   IXMIN=  -14   IYMIN=  -14   IZMIN=  -11


 serial   3D FFT for wavefunctions
 parallel 3D FFT for charge:
    minimum data exchange during FFTs selected (reduces bandwidth)


 total amount of memory used by VASP MPI-rank0   185395. kBytes
=======================================================================

   base      :      30000. kBytes
   nonlr-proj:      14238. kBytes
   fftplans  :       3084. kBytes
   grid      :      19560. kBytes
   one-center:        497. kBytes
   wavefun   :     118016. kBytes
 
     INWAV:  cpu time      0.0000: real time      0.0002
 Broyden mixing: mesh for mixing (old mesh)
   NGX = 29   NGY = 29   NGZ = 21
  (NGX  =120   NGY  =120   NGZ  = 96)
  gives a total of  17661 points

 initial charge density was supplied:
 charge density of overlapping atoms calculated
 number of electron     160.0000000 magnetization      -0.0000000
 keeping initial charge density in first step


--------------------------------------------------------------------------------------------------------


 Maximum index for non-local projection operator         6979
 Maximum index for augmentation-charges         1213 (set IRDMAX)


--------------------------------------------------------------------------------------------------------


 First call to EWALD:  gamma=   0.263
 Maximum number of real-space cells 3x 3x 3
 Maximum number of reciprocal cells 3x 3x 2

    FEWALD:  cpu time      0.0014: real time      0.0014


--------------------------------------- Ionic step        1  -------------------------------------------




--------------------------------------- Iteration      1(   1)  ---------------------------------------


    POTLOK:  cpu time      0.0584: real time      0.0626
    SETDIJ:  cpu time      0.2821: real time      0.2830
     EDDAV:  cpu time     29.2847: real time     29.4048
       DOS:  cpu time      0.0023: real time      0.0024
    --------------------------------------------
      LOOP:  cpu time     29.6275: real time     29.7528

 eigenvalue-minimisations  : 35040
 total energy-change (2. order) : 0.2022972E+04  (-0.8893755E+04)
 number of electron     160.0000000 magnetization      -0.0000000
 augmentation part      160.0000000 magnetization      -0.0000000

 Free energy of the ion-electron system (eV)
  ---------------------------------------------------
  alpha Z        PSCENC =       832.62814846
  Ewald energy   TEWEN  =    -11505.18643247
  -Hartree energ DENC   =     -8891.92684597
  -exchange      EXHF   =         0.00000000
  -V(xc)+E(xc)   XCENC  =       565.72004161
  PAW double counting   =     15528.29922137   -16124.09781968
  entropy T*S    EENTRO =        -0.01006230
  eigenvalues    EBANDS =       -93.29488656
  atomic energy  EATOM  =     21710.84102437
  Solvation  Ediel_sol  =         0.00000000
  ---------------------------------------------------
  free energy    TOTEN  =      2022.97238884 eV

  energy without entropy =     2022.98245114  energy(sigma->0) =     2022.97741999


--------------------------------------------------------------------------------------------------------




--------------------------------------- Iteration      1(   2)  ---------------------------------------


     EDDAV:  cpu time     27.2480: real time     27.3598
       DOS:  cpu time      0.0020: real time      0.0020
    --------------------------------------------
      LOOP:  cpu time     27.2500: real time     27.3619

 eigenvalue-minimisations  : 32000
 total energy-change (2. order) :-0.1901611E+04  (-0.1846977E+04)
 number of electron     160.0000000 magnetization      -0.0000000
 augmentation part      160.0000000 magnetization      -0.0000000

 Free energy of the ion-electron system (eV)
  ---------------------------------------------------
  alpha Z        PSCENC =       832.62814846
  Ewald energy   TEWEN  =    -11505.18643247
  -Hartree energ DENC   =     -8891.92684597
  -exchange      EXHF   =         0.00000000
  -V(xc)+E(xc)   XCENC  =       565.72004161
  PAW double counting   =     15528.29922137   -16124.09781968
  entropy T*S    EENTRO =        -0.01430464
  eigenvalues    EBANDS =     -1994.90170373
  atomic energy  EATOM  =     21710.84102437
  Solvation  Ediel_sol  =         0.00000000
  ---------------------------------------------------
  free energy    TOTEN  =       121.36132932 eV

  energy without entropy =      121.37563396  energy(sigma->0) =      121.36848164


--------------------------------------------------------------------------------------------------------




--------------------------------------- Iteration      1(   3)  ---------------------------------------


     EDDAV:  cpu time     37.2140: real time     37.3726
       DOS:  cpu time      0.0021: real time      0.0021
    --------------------------------------------
      LOOP:  cpu time     37.2161: real time     37.3746

 eigenvalue-minimisations  : 45720
 total energy-change (2. order) :-0.2061241E+03  (-0.1833400E+03)
 number of electron     160.0000000 magnetization      -0.0000000
 augmentation part      160.0000000 magnetization      -0.0000000

 Free energy of the ion-electron system (eV)
  ---------------------------------------------------
  alpha Z        PSCENC =       832.62814846
  Ewald energy   TEWEN  =    -11505.18643247
  -Hartree energ DENC   =     -8891.92684597
  -exchange      EXHF   =         0.00000000
  -V(xc)+E(xc)   XCENC  =       565.72004161
  PAW double counting   =     15528.29922137   -16124.09781968
  entropy T*S    EENTRO =        -0.02494284
  eigenvalues    EBANDS =     -2201.01516930
  atomic energy  EATOM  =     21710.84102437
  Solvation  Ediel_sol  =         0.00000000
  ---------------------------------------------------
  free energy    TOTEN  =       -84.76277444 eV

  energy without entropy =      -84.73783160  energy(sigma->0) =      -84.75030302


--------------------------------------------------------------------------------------------------------




--------------------------------------- Iteration      1(   4)  ---------------------------------------


     EDDAV:  cpu time     36.6287: real time     36.8128
       DOS:  cpu time      0.0021: real time      0.0021
    --------------------------------------------
      LOOP:  cpu time     36.6307: real time     36.8148

 eigenvalue-minimisations  : 47060
 total energy-change (2. order) :-0.1435980E+02  (-0.1402649E+02)
 number of electron     160.0000000 magnetization      -0.0000000
 augmentation part      160.0000000 magnetization      -0.0000000

 Free energy of the ion-electron system (eV)
  ---------------------------------------------------
  alpha Z        PSCENC =       832.62814846
  Ewald energy   TEWEN  =    -11505.18643247
  -Hartree energ DENC   =     -8891.92684597
  -exchange      EXHF   =         0.00000000
  -V(xc)+E(xc)   XCENC  =       565.72004161
  PAW double counting   =     15528.29922137   -16124.09781968
  entropy T*S    EENTRO =        -0.02744645
  eigenvalues    EBANDS =     -2215.37246345
  atomic energy  EATOM  =     21710.84102437
  Solvation  Ediel_sol  =         0.00000000
  ---------------------------------------------------
  free energy    TOTEN  =       -99.12257221 eV

  energy without entropy =      -99.09512575  energy(sigma->0) =      -99.10884898


--------------------------------------------------------------------------------------------------------




--------------------------------------- Iteration      1(   5)  ---------------------------------------


     EDDAV:  cpu time     36.5631: real time     36.7187
       DOS:  cpu time      0.0020: real time      0.0020
    CHARGE:  cpu time      1.0860: real time      1.0908
    MIXING:  cpu time      0.0020: real time      0.0020
    --------------------------------------------
      LOOP:  cpu time     37.6531: real time     37.8135

 eigenvalue-minimisations  : 44820
 total energy-change (2. order) :-0.3284488E+00  (-0.3276973E+00)
 number of electron     160.0000025 magnetization       0.0000000
 augmentation part       53.1342461 magnetization       0.0000000

 Broyden mixing:
  rms(total) = 0.27461E+01    rms(broyden)= 0.27458E+01
  rms(prec ) = 0.43115E+01
  weight for this iteration     100.00

 Free energy of the ion-electron system (eV)
  ---------------------------------------------------
  alpha Z        PSCENC =       832.62814846
  Ewald energy   TEWEN  =    -11505.18643247
  -Hartree energ DENC   =     -8891.92684597
  -exchange      EXHF   =         0.00000000
  -V(xc)+E(xc)   XCENC  =       565.72004161
  PAW double counting   =     15528.29922137   -16124.09781968
  entropy T*S    EENTRO =        -0.02743455
  eigenvalues    EBANDS =     -2215.70092411
  atomic energy  EATOM  =     21710.84102437
  Solvation  Ediel_sol  =         0.00000000
  ---------------------------------------------------
  free energy    TOTEN  =       -99.45102096 eV

  energy without entropy =      -99.42358642  energy(sigma->0) =      -99.43730369


--------------------------------------------------------------------------------------------------------




--------------------------------------- Iteration      1(   6)  ---------------------------------------


    POTLOK:  cpu time      0.0585: real time      0.0941
    SETDIJ:  cpu time      0.2710: real time      0.2718
    EDDIAG:  cpu time      4.3959: real time      4.4140
  RMM-DIIS:  cpu time     16.6040: real time     16.6653
    ORTHCH:  cpu time      0.5658: real time      0.5679
       DOS:  cpu time      0.0020: real time      0.0020
    CHARGE:  cpu time      1.0589: real time      1.0643
    MIXING:  cpu time      0.0019: real time      0.0019
    --------------------------------------------
      LOOP:  cpu time     22.9579: real time     23.0813

 eigenvalue-minimisations  : 32057
 total energy-change (2. order) :-0.1369782E+02  (-0.1691857E+02)
 number of electron     160.0000028 magnetization       0.0000000
 augmentation part       70.0518499 magnetization       0.0000000

 Broyden mixing:
  rms(total) = 0.51625E+01    rms(broyden)= 0.51624E+01
  rms(prec ) = 0.83016E+01
  weight for this iteration     100.00

 eigenvalues of (default mixing * dielectric matrix)
  average eigenvalue GAMMA=   0.3031
  0.3031

 Free energy of the ion-electron system (eV)
  ---------------------------------------------------
  alpha Z        PSCENC =       832.62814846
  Ewald energy   TEWEN  =    -11505.18643247
  -Hartree energ DENC   =     -8435.46595058
  -exchange      EXHF   =         0.00000000
  -V(xc)+E(xc)   XCENC  =       553.63360534
  PAW double counting   =     14991.00497118   -15554.99969899
  entropy T*S    EENTRO =        -0.02848143
  eigenvalues    EBANDS =     -2705.57602599
  atomic energy  EATOM  =     21710.84102437
  Solvation  Ediel_sol  =         0.00000000
  ---------------------------------------------------
  free energy    TOTEN  =      -113.14884010 eV

  energy without entropy =     -113.12035867  energy(sigma->0) =     -113.13459939


--------------------------------------------------------------------------------------------------------




--------------------------------------- Iteration      1(   7)  ---------------------------------------


    POTLOK:  cpu time      0.0532: real time      0.0639
    SETDIJ:  cpu time      0.2729: real time      0.2739
    EDDIAG:  cpu time      4.5082: real time      4.5289
  RMM-DIIS:  cpu time     17.4000: real time     17.4642
    ORTHCH:  cpu time      0.5752: real time      0.5773
       DOS:  cpu time      0.0020: real time      0.0020
    CHARGE:  cpu time      1.0755: real time      1.0802
    MIXING:  cpu time      0.0017: real time      0.0017
    --------------------------------------------
      LOOP:  cpu time     23.8888: real time     23.9922

 eigenvalue-minimisations  : 32009
 total energy-change (2. order) : 0.2232188E+02  (-0.4309870E+01)
 number of electron     160.0000027 magnetization       0.0000000
 augmentation part       57.9678860 magnetization       0.0000000

 Broyden mixing:
  rms(total) = 0.10482E+01    rms(broyden)= 0.10476E+01
  rms(prec ) = 0.12478E+01
  weight for this iteration     100.00

 eigenvalues of (default mixing * dielectric matrix)
  average eigenvalue GAMMA=   0.4405
  0.6128  0.2682

 Free energy of the ion-electron system (eV)
  ---------------------------------------------------
  alpha Z        PSCENC =       832.62814846
  Ewald energy   TEWEN  =    -11505.18643247
  -Hartree energ DENC   =     -8716.03701405
  -exchange      EXHF   =         0.00000000
  -V(xc)+E(xc)   XCENC  =       558.83458985
  PAW double counting   =     15482.91587313   -16079.95673427
  entropy T*S    EENTRO =        -0.03151801
  eigenvalues    EBANDS =     -2374.83489366
  atomic energy  EATOM  =     21710.84102437
  Solvation  Ediel_sol  =         0.00000000
  ---------------------------------------------------
  free energy    TOTEN  =       -90.82695664 eV

  energy without entropy =      -90.79543863  energy(sigma->0) =      -90.81119764


--------------------------------------------------------------------------------------------------------




--------------------------------------- Iteration      1(   8)  ---------------------------------------


    POTLOK:  cpu time      0.0519: real time      0.0522
    SETDIJ:  cpu time      0.2708: real time      0.2718
    EDDIAG:  cpu time      4.5598: real time      4.5773
  RMM-DIIS:  cpu time     21.5966: real time     21.6779
    ORTHCH:  cpu time      0.5621: real time      0.5641
       DOS:  cpu time      0.0019: real time      0.0019
    CHARGE:  cpu time      1.0360: real time      1.0403
    MIXING:  cpu time      0.0017: real time      0.0017
    --------------------------------------------
      LOOP:  cpu time     28.0808: real time     28.1873

 eigenvalue-minimisations  : 41151
 total energy-change (2. order) :-0.5618560E+00  (-0.2923174E+00)
 number of electron     160.0000027 magnetization       0.0000000
 augmentation part       58.4154716 magnetization       0.0000000

 Broyden mixing:
  rms(total) = 0.48492E+00    rms(broyden)= 0.48468E+00
  rms(prec ) = 0.63944E+00
  weight for this iteration     100.00

 eigenvalues of (default mixing * dielectric matrix)
  average eigenvalue GAMMA=   0.6723
  0.3103  0.8533  0.8533

 Free energy of the ion-electron system (eV)
  ---------------------------------------------------
  alpha Z        PSCENC =       832.62814846
  Ewald energy   TEWEN  =    -11505.18643247
  -Hartree energ DENC   =     -8705.11323200
  -exchange      EXHF   =         0.00000000
  -V(xc)+E(xc)   XCENC  =       559.27155363
  PAW double counting   =     15540.99078002   -16144.90674704
  entropy T*S    EENTRO =        -0.02639309
  eigenvalues    EBANDS =     -2379.88751452
  atomic energy  EATOM  =     21710.84102437
  Solvation  Ediel_sol  =         0.00000000
  ---------------------------------------------------
  free energy    TOTEN  =       -91.38881265 eV

  energy without entropy =      -91.36241956  energy(sigma->0) =      -91.37561610


--------------------------------------------------------------------------------------------------------




--------------------------------------- Iteration      1(   9)  ---------------------------------------


    POTLOK:  cpu time      0.0589: real time      0.0961
    SETDIJ:  cpu time      0.2708: real time      0.2717
    EDDIAG:  cpu time      4.4129: real time      4.4299
  RMM-DIIS:  cpu time     23.0981: real time     23.1883
    ORTHCH:  cpu time      0.5747: real time      0.5769
       DOS:  cpu time      0.0020: real time      0.0020
    CHARGE:  cpu time      1.0648: real time      1.0691
    MIXING:  cpu time      0.0020: real time      0.0020
    --------------------------------------------
      LOOP:  cpu time     29.4842: real time     29.6359

 eigenvalue-minimisations  : 45150
 total energy-change (2. order) :-0.6450916E-01  (-0.8304694E-01)
 number of electron     160.0000027 magnetization       0.0000000
 augmentation part       58.7850799 magnetization       0.0000000

 Broyden mixing:
  rms(total) = 0.25113E+00    rms(broyden)= 0.25080E+00
  rms(prec ) = 0.30919E+00
  weight for this iteration     100.00

 eigenvalues of (default mixing * dielectric matrix)
  average eigenvalue GAMMA=   0.8978
  0.3067  1.2822  1.2822  0.7201

 Free energy of the ion-electron system (eV)
  ---------------------------------------------------
  alpha Z        PSCENC =       832.62814846
  Ewald energy   TEWEN  =    -11505.18643247
  -Hartree energ DENC   =     -8689.52515015
  -exchange      EXHF   =         0.00000000
  -V(xc)+E(xc)   XCENC  =       559.45686519
  PAW double counting   =     15628.79386571   -16239.15076917
  entropy T*S    EENTRO =        -0.02120636
  eigenvalues    EBANDS =     -2389.28966739
  atomic energy  EATOM  =     21710.84102437
  Solvation  Ediel_sol  =         0.00000000
  ---------------------------------------------------
  free energy    TOTEN  =       -91.45332181 eV

  energy without entropy =      -91.43211545  energy(sigma->0) =      -91.44271863


--------------------------------------------------------------------------------------------------------




--------------------------------------- Iteration      1(  10)  ---------------------------------------


    POTLOK:  cpu time      0.0537: real time      0.0723
    SETDIJ:  cpu time      0.2699: real time      0.2706
    EDDIAG:  cpu time      4.5689: real time      4.5866
  RMM-DIIS:  cpu time     24.9899: real time     25.0844
    ORTHCH:  cpu time      0.5771: real time      0.5792
       DOS:  cpu time      0.0020: real time      0.0020
    CHARGE:  cpu time      1.0774: real time      1.0820
    MIXING:  cpu time      0.0024: real time      0.0024
    --------------------------------------------
      LOOP:  cpu time     31.5414: real time     31.6795

 eigenvalue-minimisations  : 45874
 total energy-change (2. order) :-0.1126576E-01  (-0.2599481E-01)
 number of electron     160.0000027 magnetization       0.0000000
 augmentation part       58.9803848 magnetization       0.0000000

 Broyden mixing:
  rms(total) = 0.11344E+00    rms(broyden)= 0.11322E+00
  rms(prec ) = 0.12841E+00
  weight for this iteration     100.00

 eigenvalues of (default mixing * dielectric matrix)
  average eigenvalue GAMMA=   1.0572
  2.2182  0.3067  1.0532  1.0080  0.7000

 Free energy of the ion-electron system (eV)
  ---------------------------------------------------
  alpha Z        PSCENC =       832.62814846
  Ewald energy   TEWEN  =    -11505.18643247
  -Hartree energ DENC   =     -8681.80489843
  -exchange      EXHF   =         0.00000000
  -V(xc)+E(xc)   XCENC  =       559.52385351
  PAW double counting   =     15699.24505214   -16314.08257444
  entropy T*S    EENTRO =        -0.01866088
  eigenvalues    EBANDS =     -2392.61009983
  atomic energy  EATOM  =     21710.84102437
  Solvation  Ediel_sol  =         0.00000000
  ---------------------------------------------------
  free energy    TOTEN  =       -91.46458758 eV

  energy without entropy =      -91.44592669  energy(sigma->0) =      -91.45525713


--------------------------------------------------------------------------------------------------------




--------------------------------------- Iteration      1(  11)  ---------------------------------------


    POTLOK:  cpu time      0.0590: real time      0.0966
    SETDIJ:  cpu time      0.2693: real time      0.2701
    EDDIAG:  cpu time      4.3548: real time      4.3713
  RMM-DIIS:  cpu time     22.5681: real time     22.6543
    ORTHCH:  cpu time      0.5802: real time      0.5825
       DOS:  cpu time      0.0020: real time      0.0020
    CHARGE:  cpu time      1.0636: real time      1.0676
    MIXING:  cpu time      0.0019: real time      0.0019
    --------------------------------------------
      LOOP:  cpu time     28.8989: real time     29.0463

 eigenvalue-minimisations  : 43127
 total energy-change (2. order) :-0.6041646E-02  (-0.5186578E-02)
 number of electron     160.0000027 magnetization       0.0000000
 augmentation part       58.9788779 magnetization       0.0000000

 Broyden mixing:
  rms(total) = 0.38424E-01    rms(broyden)= 0.38385E-01
  rms(prec ) = 0.40920E-01
  weight for this iteration     100.00

 eigenvalues of (default mixing * dielectric matrix)
  average eigenvalue GAMMA=   1.1030
  1.9107  1.9107  0.3067  0.9127  0.9127  0.6647

 Free energy of the ion-electron system (eV)
  ---------------------------------------------------
  alpha Z        PSCENC =       832.62814846
  Ewald energy   TEWEN  =    -11505.18643247
  -Hartree energ DENC   =     -8679.84871834
  -exchange      EXHF   =         0.00000000
  -V(xc)+E(xc)   XCENC  =       559.60638579
  PAW double counting   =     15742.90672871   -16359.95219639
  entropy T*S    EENTRO =        -0.01881112
  eigenvalues    EBANDS =     -2392.44675823
  atomic energy  EATOM  =     21710.84102437
  Solvation  Ediel_sol  =         0.00000000
  ---------------------------------------------------
  free energy    TOTEN  =       -91.47062922 eV

  energy without entropy =      -91.45181810  energy(sigma->0) =      -91.46122366


--------------------------------------------------------------------------------------------------------




--------------------------------------- Iteration      1(  12)  ---------------------------------------


    POTLOK:  cpu time      0.0531: real time      0.0608
    SETDIJ:  cpu time      0.2711: real time      0.2718
    EDDIAG:  cpu time      4.5687: real time      4.5860
  RMM-DIIS:  cpu time     23.2250: real time     23.3118
    ORTHCH:  cpu time      0.5714: real time      0.5736
       DOS:  cpu time      0.0020: real time      0.0020
    CHARGE:  cpu time      1.0787: real time      1.0836
    MIXING:  cpu time      0.0020: real time      0.0020
    --------------------------------------------
      LOOP:  cpu time     29.7719: real time     29.8915

 eigenvalue-minimisations  : 43281
 total energy-change (2. order) :-0.5026938E-02  (-0.1286414E-02)
 number of electron     160.0000027 magnetization       0.0000000
 augmentation part       58.9794058 magnetization       0.0000000

 Broyden mixing:
  rms(total) = 0.20992E-01    rms(broyden)= 0.20972E-01
  rms(prec ) = 0.24678E-01
  weight for this iteration     100.00

 eigenvalues of (default mixing * dielectric matrix)
  average eigenvalue GAMMA=   1.0895
  2.4213  0.3067  1.3145  1.0867  1.0867  0.7611  0.6494

 Free energy of the ion-electron system (eV)
  ---------------------------------------------------
  alpha Z        PSCENC =       832.62814846
  Ewald energy   TEWEN  =    -11505.18643247
  -Hartree energ DENC   =     -8680.24050712
  -exchange      EXHF   =         0.00000000
  -V(xc)+E(xc)   XCENC  =       559.61402705
  PAW double counting   =     15745.23160346   -16362.18801091
  entropy T*S    EENTRO =        -0.01919588
  eigenvalues    EBANDS =     -2392.15631312
  atomic energy  EATOM  =     21710.84102437
  Solvation  Ediel_sol  =         0.00000000
  ---------------------------------------------------
  free energy    TOTEN  =       -91.47565616 eV

  energy without entropy =      -91.45646028  energy(sigma->0) =      -91.46605822


--------------------------------------------------------------------------------------------------------




--------------------------------------- Iteration      1(  13)  ---------------------------------------


    POTLOK:  cpu time      0.0531: real time      0.0535
    SETDIJ:  cpu time      0.2702: real time      0.2709
    EDDIAG:  cpu time      4.5798: real time      4.5975
  RMM-DIIS:  cpu time     17.7688: real time     17.8378
    ORTHCH:  cpu time      0.5611: real time      0.5632
       DOS:  cpu time      0.0021: real time      0.0021
    CHARGE:  cpu time      1.0158: real time      1.0199
    MIXING:  cpu time      0.0018: real time      0.0018
    --------------------------------------------
      LOOP:  cpu time     24.2526: real time     24.3467

 eigenvalue-minimisations  : 33228
 total energy-change (2. order) :-0.4072347E-04  (-0.2803646E-03)
 number of electron     160.0000027 magnetization       0.0000000
 augmentation part       58.9780151 magnetization       0.0000000

 Broyden mixing:
  rms(total) = 0.11339E-01    rms(broyden)= 0.11327E-01
  rms(prec ) = 0.13553E-01
  weight for this iteration     100.00

 eigenvalues of (default mixing * dielectric matrix)
  average eigenvalue GAMMA=   1.1257
  2.6140  1.3220  1.2816  1.2816  0.3067  0.8251  0.7318  0.6425

 Free energy of the ion-electron system (eV)
  ---------------------------------------------------
  alpha Z        PSCENC =       832.62814846
  Ewald energy   TEWEN  =    -11505.18643247
  -Hartree energ DENC   =     -8680.45079480
  -exchange      EXHF   =         0.00000000
  -V(xc)+E(xc)   XCENC  =       559.63884961
  PAW double counting   =     15746.75210992   -16363.65484974
  entropy T*S    EENTRO =        -0.01909621
  eigenvalues    EBANDS =     -2392.02465602
  atomic energy  EATOM  =     21710.84102437
  Solvation  Ediel_sol  =         0.00000000
  ---------------------------------------------------
  free energy    TOTEN  =       -91.47569688 eV

  energy without entropy =      -91.45660067  energy(sigma->0) =      -91.46614878


--------------------------------------------------------------------------------------------------------




--------------------------------------- Iteration      1(  14)  ---------------------------------------


    POTLOK:  cpu time      0.0578: real time      0.1021
    SETDIJ:  cpu time      0.2692: real time      0.2701
    EDDIAG:  cpu time      4.3712: real time      4.3884
  RMM-DIIS:  cpu time     12.3817: real time     12.4295
    ORTHCH:  cpu time      0.5610: real time      0.5631
       DOS:  cpu time      0.0020: real time      0.0020
    --------------------------------------------
      LOOP:  cpu time     17.6429: real time     17.7553

 eigenvalue-minimisations  : 22909
 total energy-change (2. order) : 0.1634453E-05  (-0.8669506E-04)
 number of electron     160.0000027 magnetization       0.0000000
 augmentation part       58.9780151 magnetization       0.0000000

 Free energy of the ion-electron system (eV)
  ---------------------------------------------------
  alpha Z        PSCENC =       832.62814846
  Ewald energy   TEWEN  =    -11505.18643247
  -Hartree energ DENC   =     -8680.54664437
  -exchange      EXHF   =         0.00000000
  -V(xc)+E(xc)   XCENC  =       559.65150478
  PAW double counting   =     15747.97027891   -16364.80583941
  entropy T*S    EENTRO =        -0.01900300
  eigenvalues    EBANDS =     -2392.00873252
  atomic energy  EATOM  =     21710.84102437
  Solvation  Ediel_sol  =         0.00000000
  ---------------------------------------------------
  free energy    TOTEN  =       -91.47569525 eV

  energy without entropy =      -91.45669225  energy(sigma->0) =      -91.46619375


--------------------------------------------------------------------------------------------------------




 average (electrostatic) potential at core
  the test charge radii are     0.9500  1.0808
  (the norm of the test charge is              1.0000)
       1 -47.1484       2 -47.1484       3 -47.1484       4 -47.1484       5 -47.1484
       6 -47.1484       7 -47.1484       8 -47.1484       9 -54.7898      10 -54.7898
      11 -54.7898      12 -54.7898      13 -54.7898      14 -54.7898      15 -54.7898
      16 -54.7898
 
 
 
 E-fermi :   4.0059     XC(G=0): -10.5597     alpha+bet : -9.5401

 Fermi energy:         4.0058869433

 spin component 1

 k-point     1 :       0.0000    0.0000    0.0000
  band No.  band energies     occupation 
      1     -50.7516      1.00000
      2     -50.7409      1.00000
      3     -50.7409      1.00000
      4     -50.7331      1.00000
      5     -50.6336      1.00000
      6     -50.5897      1.00000
      7     -50.5815      1.00000
      8     -50.5815      1.00000
      9     -50.5709      1.00000
     10     -50.4648      1.00000
     11     -50.4648      1.00000
     12     -50.2932      1.00000
     13     -47.9659      1.00000
     14     -47.9634      1.00000
     15     -47.9634      1.00000
     16     -47.9625      1.00000
     17     -47.9412      1.00000
     18     -47.7544      1.00000
     19     -47.7544      1.00000
     20     -47.6241      1.00000
     21     -47.6239      1.00000
     22     -47.6239      1.00000
     23     -47.6209      1.00000
     24     -47.5642      1.00000
     25     -10.4334      1.00000
     26      -9.2005      1.00000
     27      -9.2005      1.00000
     28      -9.1855      1.00000
     29      -9.1855      1.00000
     30      -8.9445      1.00000
     31      -8.6871      1.00000
     32      -8.5158      1.00000
     33      -2.1974      1.00000
     34      -1.9108      1.00000
     35      -0.9803      1.00000
     36      -0.9803      1.00000
     37      -0.9202      1.00000
     38      -0.9202      1.00000
     39      -0.5601      1.00000
     40      -0.4739      1.00000
     41      -0.2473      1.00000
     42      -0.0846      1.00000
     43      -0.0846      1.00000
     44      -0.0642      1.00000
     45      -0.0042      1.00000
     46       0.0136      1.00000
     47       0.0136      1.00000
     48       0.2552      1.00000
     49       0.5205      1.00000
     50       0.5708      1.00000
     51       0.5708      1.00000
     52       0.9962      1.00000
     53       0.9962      1.00000
     54       1.2195      1.00000
     55       1.3211      1.00000
     56       1.3551      1.00000
     57       1.5851      1.00000
     58       1.5851      1.00000
     59       1.6568      1.00000
     60       1.6568      1.00000
     61       1.7043      1.00000
     62       1.8285      1.00000
     63       1.9318      1.00000
     64       1.9332      1.00000
     65       2.1632      1.00000
     66       2.1632      1.00000
     67       2.2198      1.00000
     68       2.3652      1.00000
     69       2.4173      1.00000
     70       2.5765      1.00000
     71       2.5765      1.00000
     72       2.6388      1.00000
     73       3.2704      1.00000
     74       3.2704      1.00000
     75       3.3272      1.00000
     76       3.3272      1.00000
     77       3.3287      1.00000
     78       3.7226      1.00000
     79       3.7517      1.00000
     80       3.7929      1.00000
     81       4.0223      0.32140
     82       4.4639      0.00000
     83       4.4639      0.00000
     84       4.4999      0.00000
     85       4.4999      0.00000
     86       4.5501      0.00000
     87       4.6290      0.00000
     88       4.8172      0.00000
     89       4.8172      0.00000
     90       4.8529      0.00000
     91       4.8530      0.00000
     92       5.0185      0.00000
[...]


--------------------------------------------------------------------------------------------------------


 soft charge-density along one line, spin component           1
         0         1         2         3         4         5         6         7         8         9
 total charge-density along one line
 
 soft charge-density along one line, spin component           2
         0         1         2         3         4         5         6         7         8         9
 total charge-density along one line
 
 pseudopotential strength for first ion, spin component:           1
-55.013   0.038  -0.000  28.228  -0.031   0.000  -0.000   0.000
  0.038 -55.079  -0.000  -0.031  28.278   0.000  -0.000   0.000
 -0.000  -0.000 -54.906   0.000   0.000  28.143   0.000  -0.000
 28.228  -0.031   0.000 -10.034   0.023  -0.000   0.000  -0.000
 -0.031  28.278   0.000   0.023 -10.068  -0.000   0.000  -0.000
  0.000   0.000  28.143  -0.000  -0.000  -9.977  -0.000   0.000
 -0.000  -0.000   0.000   0.000   0.000  -0.000  -8.757  -0.000
  0.000   0.000  -0.000  -0.000  -0.000   0.000  -0.000  -8.566
 -0.000   0.000   0.000   0.000  -0.000  -0.000   0.000  -0.029
 -0.000  -0.000   0.000   0.000   0.000  -0.000  -0.037  -0.000
 -0.000  -0.000  -0.000   0.000   0.000   0.000  -0.000  -0.098
  0.000   0.000  -0.000  -0.000  -0.000   0.000  -0.100   0.000
 -0.000  -0.000   0.000   0.000   0.000  -0.000   0.000  -0.146
  0.000  -0.000  -0.000  -0.000   0.000   0.000  -0.000   0.007
  0.000   0.000  -0.000  -0.000  -0.000   0.000   0.008   0.000
  0.000   0.000   0.000  -0.000  -0.000  -0.000   0.000   0.023
 -0.000  -0.000   0.000   0.000   0.000  -0.000   0.000  -0.010
  0.000   0.000  -0.000  -0.000  -0.000   0.000  -0.000   0.002
 pseudopotential strength for first ion, spin component:           2
-52.868   0.101  -0.000  26.588  -0.073   0.000  -0.000   0.000
  0.101 -52.889  -0.000  -0.073  26.602   0.000  -0.000   0.000
 -0.000  -0.000 -52.846   0.000   0.000  26.564   0.000  -0.000
 26.588  -0.073   0.000  -8.874   0.054  -0.000   0.000  -0.000
 -0.073  26.602   0.000   0.054  -8.885  -0.000   0.000  -0.000
  0.000   0.000  26.564  -0.000  -0.000  -8.860  -0.000   0.000
 -0.000  -0.000   0.000   0.000   0.000  -0.000  -6.639  -0.000
  0.000   0.000  -0.000  -0.000  -0.000   0.000  -0.000  -7.009
 -0.000   0.000   0.000   0.000  -0.000  -0.000   0.000   0.097
 -0.000  -0.000   0.000   0.000   0.000  -0.000   0.114  -0.000
 -0.000  -0.000  -0.000   0.000   0.000   0.000  -0.000   0.019
  0.000   0.000  -0.000  -0.000  -0.000   0.000  -0.594   0.000
 -0.000  -0.000   0.000   0.000   0.000  -0.000   0.000  -0.508
  0.000  -0.000  -0.000  -0.000   0.000   0.000  -0.000  -0.021
  0.000   0.000  -0.000  -0.000  -0.000   0.000  -0.025   0.000
  0.000   0.000   0.000  -0.000  -0.000  -0.000   0.000  -0.006
 -0.000  -0.000   0.000   0.000   0.000  -0.000   0.000  -0.012
  0.000   0.000  -0.000  -0.000  -0.000   0.000  -0.000   0.003
 total augmentation occupancy for first ion, spin component:           1
  2.010  -0.019   0.000   0.056  -0.045   0.000  -0.000  -0.000   0.000   0.000   0.000   0.000  -0.000   0.000   0.000  -0.000
 -0.019   2.013   0.000  -0.045   0.065   0.000  -0.000  -0.000   0.000   0.000   0.000  -0.000   0.000   0.000  -0.000   0.000
 -0.000   0.000   2.009   0.000  -0.000   0.052  -0.000   0.000   0.000   0.000   0.000  -0.000   0.000  -0.000   0.000  -0.000
  0.056  -0.045   0.000   0.194  -0.109   0.000  -0.000   0.000   0.000  -0.000   0.000   0.000   0.000  -0.000   0.000   0.000
 -0.045   0.065  -0.000  -0.109   0.216  -0.000  -0.000   0.000   0.000   0.000   0.000  -0.000   0.000  -0.000  -0.000  -0.000
  0.000  -0.000   0.052   0.000   0.000   0.177   0.000  -0.000  -0.000   0.000   0.000   0.000   0.000   0.000   0.000   0.000
 -0.000  -0.000   0.000  -0.000  -0.000  -0.000   1.250   0.000   0.000  -0.100  -0.000  -0.071   0.000   0.000  -0.057  -0.000
  0.000  -0.000   0.000   0.000   0.000  -0.000  -0.000   1.465  -0.012  -0.000  -0.093  -0.000   0.089  -0.142   0.000   0.097
  0.000   0.000   0.000   0.000  -0.000  -0.000  -0.000  -0.012   1.298   0.000  -0.154   0.000  -0.144   0.058  -0.000  -0.085
  0.000   0.000   0.000  -0.000   0.000  -0.000  -0.100  -0.000   0.000   1.243  -0.000  -0.058   0.000  -0.000  -0.046   0.000
  0.000   0.000   0.000  -0.000   0.000   0.000   0.000  -0.093  -0.154   0.000   1.506  -0.000   0.101  -0.083   0.000   0.150
  0.000  -0.000   0.000   0.000  -0.000   0.000  -0.071  -0.000  -0.000  -0.058  -0.000   0.164  -0.000  -0.000  -0.026  -0.000
 -0.000  -0.000   0.000  -0.000   0.000   0.000   0.000   0.089  -0.144   0.000   0.101   0.000   0.247  -0.071  -0.000   0.090
 -0.000   0.000  -0.000   0.000  -0.000   0.000  -0.000  -0.142   0.058   0.000  -0.083  -0.000  -0.071   0.169  -0.000  -0.012
  0.000  -0.000  -0.000   0.000  -0.000   0.000  -0.057   0.000   0.000  -0.046   0.000  -0.026   0.000   0.000   0.159  -0.000
 -0.000  -0.000  -0.000  -0.000  -0.000   0.000  -0.000   0.097  -0.085   0.000   0.150  -0.000   0.090  -0.012   0.000   0.139
 -0.000   0.000   0.000   0.000  -0.000   0.000  -0.000  -0.009  -0.039   0.000   0.091   0.000  -0.324   0.029   0.000  -0.008
  0.000  -0.000   0.000   0.000   0.000   0.000  -0.000   0.004   0.022  -0.000  -0.019   0.000   0.021  -0.005   0.000   0.003
 total augmentation occupancy for first ion, spin component:           2
 -0.006   0.000   0.000  -0.002  -0.000  -0.000  -0.000   0.000   0.000   0.000  -0.000   0.000  -0.000  -0.000   0.000   0.000
  0.000  -0.008  -0.000  -0.000  -0.008  -0.000   0.000   0.000  -0.000   0.000   0.000  -0.000   0.000   0.000   0.000   0.000
  0.000  -0.000  -0.007  -0.000   0.000  -0.005  -0.000   0.000   0.000   0.000   0.000   0.000   0.000  -0.000   0.000  -0.000
 -0.002  -0.000   0.000   0.014  -0.002   0.000   0.000   0.000   0.000  -0.000   0.000  -0.000  -0.000   0.000   0.000   0.000
 -0.000  -0.008   0.000  -0.002   0.002   0.000   0.000   0.000   0.000  -0.000   0.000   0.000  -0.000   0.000   0.000   0.000
 -0.000  -0.000  -0.005  -0.000   0.000   0.011   0.000  -0.000  -0.000  -0.000  -0.000  -0.000  -0.000   0.000  -0.000  -0.000
 -0.000   0.000   0.000   0.000   0.000  -0.000   0.703   0.000   0.000   0.118   0.000  -0.271  -0.000   0.000   0.006  -0.000
  0.000   0.000   0.000  -0.000  -0.000  -0.000   0.000   0.380   0.103  -0.000   0.043  -0.000  -0.198  -0.006   0.000  -0.031
  0.000   0.000   0.000   0.000  -0.000  -0.000   0.000   0.103   0.548   0.000   0.198   0.000  -0.006  -0.217  -0.000  -0.027
  0.000   0.000  -0.000  -0.000  -0.000  -0.000   0.118  -0.000  -0.000   0.683   0.000   0.008   0.000   0.000  -0.267  -0.000
  0.000   0.000   0.000   0.000  -0.000  -0.000  -0.000   0.043   0.198   0.000   0.253   0.000  -0.017  -0.021  -0.000  -0.154
  0.000   0.000  -0.000  -0.000   0.000   0.000  -0.271   0.000  -0.000   0.008   0.000   0.054   0.000   0.000   0.006   0.000
 -0.000   0.000   0.000  -0.000   0.000  -0.000   0.000  -0.198  -0.006   0.000  -0.017  -0.000   0.008   0.024   0.000  -0.002
  0.000   0.000   0.000   0.000   0.000   0.000   0.000  -0.006  -0.217   0.000  -0.021   0.000   0.024   0.013   0.000   0.010
 -0.000   0.000   0.000   0.000   0.000  -0.000   0.006   0.000   0.000  -0.267   0.000   0.006  -0.000   0.000   0.039   0.000
  0.000   0.000  -0.000  -0.000   0.000  -0.000   0.000  -0.031  -0.027   0.000  -0.154   0.000  -0.002   0.010   0.000  -0.013
  0.000   0.000   0.000   0.000  -0.000   0.000   0.000   0.124   0.024  -0.000  -0.049  -0.000  -0.034   0.004  -0.000  -0.026
 -0.000   0.000   0.000  -0.000  -0.000   0.000   0.000   0.016   0.018   0.000  -0.020   0.000  -0.003  -0.002   0.000   0.000


------------------------ aborting loop because EDIFF is reached ----------------------------------------





 total charge

# of ion       s       p       d       tot
------------------------------------------
    1        0.343   6.296   6.075  12.713
    2        0.343   6.296   6.075  12.713
    3        0.343   6.296   6.075  12.713
    4        0.343   6.296   6.075  12.713
    5        0.343   6.296   6.075  12.713
    6        0.343   6.296   6.075  12.713
    7        0.343   6.296   6.075  12.713
    8        0.343   6.296   6.075  12.713
    9        1.490   2.260   0.055   3.806
   10        1.490   2.260   0.055   3.806
   11        1.490   2.260   0.055   3.806
   12        1.490   2.260   0.055   3.806
   13        1.490   2.260   0.055   3.806
   14        1.490   2.260   0.055   3.806
   15        1.490   2.260   0.055   3.806
   16        1.490   2.260   0.055   3.806
--------------------------------------------------
tot         14.666  68.447  49.041 132.153



 magnetization (x)

# of ion       s       p       d       tot
------------------------------------------
    1        0.027   0.013   2.502   2.543
    2       -0.027  -0.013  -2.502  -2.543
    3       -0.027  -0.013  -2.502  -2.543
    4        0.027   0.013   2.502   2.543
    5        0.027   0.013   2.502   2.543
    6       -0.027  -0.013  -2.502  -2.543
    7       -0.027  -0.013  -2.502  -2.543
    8        0.027   0.013   2.502   2.543
    9        0.000   0.000   0.000   0.000
   10        0.000   0.000   0.000   0.000
   11        0.000   0.000   0.000   0.000
   12        0.000   0.000   0.000   0.000
   13        0.000   0.000   0.000   0.000
   14        0.000   0.000   0.000   0.000
   15        0.000   0.000   0.000   0.000
   16        0.000   0.000   0.000   0.000
--------------------------------------------------
tot          0.000   0.000   0.000   0.000
 
    CHARGE:  cpu time      1.0618: real time      1.0660
    FORLOC:  cpu time      0.0031: real time      0.0032
    FORNL :  cpu time      7.2238: real time      7.2507
    STRESS:  cpu time     21.6329: real time     21.7161
    FORCOR:  cpu time      0.0517: real time      0.0519
    FORHAR:  cpu time      0.0071: real time      0.0071
    MIXING:  cpu time      0.0018: real time      0.0018
    OFIELD:  cpu time      0.0000: real time      0.0000
    FORVDW:  cpu time      0.7811: real time      0.7834

  FORCE on cell =-STRESS in cart. coord.  units (eV):
  Direction    XX          YY          ZZ          XY          YZ          ZX
  --------------------------------------------------------------------------------------
  Alpha Z   832.62815   832.62815   832.62815
  Ewald   -1212.53589 -2023.92746 -8268.74654     0.00000     0.00000     0.00000
  Hartree  5287.73431  4544.52583 -1150.93108     0.00000     0.00000    -0.00000
  E(xc)    -896.94196  -899.15327  -898.24716    -0.00000     0.00000    -0.00000
  Local   -5961.92872 -4413.65155  7553.15270    -0.00000     0.00000    -0.00000
  n-local  -276.63326  -248.93644  -241.29620    -0.80452    -0.30588    -0.79787
  augment   530.43826   515.72044   513.05307     0.00000    -0.00000     0.00000
  Kinetic  1702.59021  1697.99244  1665.78469     3.74740    -0.33426     0.33344
  Fock        0.00000     0.00000     0.00000     0.00000     0.00000     0.00000
  vdW        -6.39032    -6.44809    -6.69641    -0.00000    -0.00000     0.00000
  -------------------------------------------------------------------------------------
  Total      -1.03922    -1.24995    -1.29879     0.00000     0.00000     0.00000
  in kB      -5.45908    -6.56603    -6.82261     0.00000     0.00000     0.00000
  external pressure =       -6.28 kB  Pullay stress =        0.00 kB


 VOLUME and BASIS-vectors are now :
 -----------------------------------------------------------------------------
  energy-cutoff  :      550.00
  volume of cell :      305.00
      direct lattice vectors                 reciprocal lattice vectors
     4.810593261 -5.684288877  0.000000000     0.103937284 -0.087961750  0.000000000
     4.810593261  5.684288877  0.000000000     0.103937284  0.087961750  0.000000000
     0.000000000  0.000000000  5.576928343     0.000000000  0.000000000  0.179310176

  length of vectors
     7.446673591  7.446673591  5.576928343     0.136162508  0.136162508  0.179310176


 FORCES acting on ions
    electron-ion (+dipol)            ewald-force                    non-local-force                 convergence-correction
 -----------------------------------------------------------------------------------------------
   0.253E-13 -.968E-13 0.236E-13   -.568E-13 -.391E-13 -.711E-14   0.344E-21 0.298E-21 0.422E-21   0.295E-12 -.263E-12 -.261E-12
   0.702E-12 0.742E-12 0.411E-13   -.543E-13 -.462E-13 -.799E-14   0.183E-21 0.526E-21 -.205E-21   -.114E-12 -.118E-14 -.306E-12
   0.632E-12 -.157E-11 -.117E-10   -.589E-13 -.284E-13 -.284E-13   -.220E-20 -.108E-21 -.361E-21   0.273E-12 0.610E-12 -.281E-12
   -.506E-11 -.965E-11 -.878E-11   -.568E-13 -.355E-13 -.249E-13   -.196E-20 0.167E-21 0.636E-22   -.194E-12 -.372E-12 -.230E-12
   -.264E-11 -.402E-11 -.373E-11   0.534E-13 0.128E-12 -.977E-14   0.242E-20 -.418E-21 0.400E-21   0.245E-12 0.105E-12 -.130E-12
   0.439E-11 0.570E-11 -.435E-11   0.711E-13 0.128E-12 -.107E-13   0.165E-20 0.546E-21 -.253E-21   -.264E-12 0.339E-12 -.102E-12
   -.149E-10 -.292E-10 0.368E-10   0.711E-13 0.131E-12 0.320E-13   -.581E-21 -.383E-21 -.832E-22   0.432E-12 0.584E-12 -.547E-12
   0.806E-12 -.611E-11 0.350E-10   0.885E-13 0.142E-12 0.284E-13   -.704E-22 -.501E-21 -.638E-22   -.112E-12 -.508E-12 -.458E-12
   -.579E-07 0.257E-11 0.316E+03   -.790E-14 -.497E-13 -.317E+03   0.312E-17 0.462E-17 0.109E+01   0.189E-12 0.629E-13 -.131E-01
   -.579E-07 -.404E-12 0.316E+03   -.711E-14 -.247E-13 -.317E+03   -.418E-17 -.605E-17 0.109E+01   -.366E-13 -.209E-12 -.131E-01
   -.579E-07 -.232E-11 0.316E+03   -.711E-14 -.497E-13 -.317E+03   0.317E-17 0.437E-17 0.109E+01   0.373E-13 0.128E-12 -.131E-01
   -.579E-07 -.129E-12 0.316E+03   -.696E-14 -.284E-13 -.317E+03   -.380E-17 -.129E-16 0.109E+01   -.169E-12 0.144E-13 -.131E-01
   0.579E-07 -.539E-14 -.316E+03   -.796E-14 -.597E-13 0.317E+03   -.189E-18 -.129E-17 -.109E+01   0.151E-13 -.209E-13 0.131E-01
   0.579E-07 0.864E-13 -.316E+03   -.611E-14 -.499E-13 0.317E+03   -.211E-19 -.117E-17 -.109E+01   -.431E-13 0.253E-13 0.131E-01
   0.579E-07 -.720E-12 -.316E+03   -.844E-14 -.463E-13 0.317E+03   -.634E-18 -.935E-18 -.109E+01   0.140E-13 0.750E-13 0.131E-01
   0.579E-07 0.442E-12 -.316E+03   -.617E-14 -.469E-13 0.317E+03   -.228E-19 -.140E-17 -.109E+01   -.222E-13 -.677E-13 0.131E-01
 -----------------------------------------------------------------------------------------------
   -.172E-10 -.447E-10 0.415E-10   -.669E-15 0.249E-13 0.114E-12   -.256E-17 -.147E-16 0.444E-15   0.547E-12 0.503E-12 -.201E-11
 
 
 POSITION                                       TOTAL-FORCE (eV/Angst)
 -----------------------------------------------------------------------------------
      0.00000      0.00000      0.00000         0.000000     -0.000000     -0.000000
      2.40530      2.84214      0.00000         0.000000     -0.000000     -0.000000
      2.40530     -2.84214      0.00000         0.000000     -0.000000     -0.000000
      4.81059      0.00000      0.00000         0.000000     -0.000000     -0.000000
      2.40530      0.00000      0.00000         0.000000     -0.000000     -0.000000
      4.81059      2.84214      0.00000         0.000000     -0.000000     -0.000000
      4.81059     -2.84214      0.00000         0.000000     -0.000000     -0.000000
      7.21589      0.00000      0.00000         0.000000     -0.000000     -0.000000
      2.40530     -1.42107      3.77608        -0.000000      0.000000     -0.006694
      4.81059      1.42107      3.77608         0.000000     -0.000000     -0.006694
      4.81059     -4.26322      3.77608        -0.000000     -0.000000     -0.006694
      7.21589     -1.42107      3.77608         0.000000      0.000000     -0.006694
      2.40530      1.42107      1.80085         0.000000     -0.000000      0.006694
      4.81059      4.26322      1.80085        -0.000000      0.000000      0.006694
      4.81059     -1.42107      1.80085        -0.000000      0.000000      0.006694
      7.21589      1.42107      1.80085        -0.000000     -0.000000      0.006694
 -----------------------------------------------------------------------------------
    total drift:                               -0.000000     -0.000000      0.000000


--------------------------------------------------------------------------------------------------------



  FREE ENERGIE OF THE ION-ELECTRON SYSTEM (eV)
  ---------------------------------------------------
  free  energy   TOTEN  =       -98.39408722 eV

  energy  without entropy=      -98.37508422  energy(sigma->0) =      -98.38458572
 


--------------------------------------------------------------------------------------------------------


    POTLOK:  cpu time      0.3339: real time      0.3428


--------------------------------------------------------------------------------------------------------




--------------------------------------------------------------------------------------------------------


  
 reached required accuracy - stopping structural energy minimisation
     LOOP+:  cpu time    437.7472: real time    439.8774
    4ORBIT:  cpu time      0.0000: real time      0.0000



 total charge

# of ion       s       p       d       tot
------------------------------------------
    1        0.343   6.296   6.075  12.713
    2        0.343   6.296   6.075  12.713
    3        0.343   6.296   6.075  12.713
    4        0.343   6.296   6.075  12.713
    5        0.343   6.296   6.075  12.713
    6        0.343   6.296   6.075  12.713
    7        0.343   6.296   6.075  12.713
    8        0.343   6.296   6.075  12.713
    9        1.490   2.260   0.055   3.806
   10        1.490   2.260   0.055   3.806
   11        1.490   2.260   0.055   3.806
   12        1.490   2.260   0.055   3.806
   13        1.490   2.260   0.055   3.806
   14        1.490   2.260   0.055   3.806
   15        1.490   2.260   0.055   3.806
   16        1.490   2.260   0.055   3.806
--------------------------------------------------
tot         14.666  68.447  49.041 132.153



 magnetization (x)

# of ion       s       p       d       tot
------------------------------------------
    1        0.027   0.013   2.502   2.543
    2       -0.027  -0.013  -2.502  -2.543
    3       -0.027  -0.013  -2.502  -2.543
    4        0.027   0.013   2.502   2.543
    5        0.027   0.013   2.502   2.543
    6       -0.027  -0.013  -2.502  -2.543
    7       -0.027  -0.013  -2.502  -2.543
    8        0.027   0.013   2.502   2.543
    9        0.000   0.000   0.000   0.000
   10        0.000   0.000   0.000   0.000
   11        0.000   0.000   0.000   0.000
   12        0.000   0.000   0.000   0.000
   13        0.000   0.000   0.000   0.000
   14        0.000   0.000   0.000   0.000
   15        0.000   0.000   0.000   0.000
   16        0.000   0.000   0.000   0.000
--------------------------------------------------
tot          0.000   0.000   0.000   0.000
 

 total amount of memory used by VASP MPI-rank0   185395. kBytes
=======================================================================

   base      :      30000. kBytes
   nonlr-proj:      14238. kBytes
   fftplans  :       3084. kBytes
   grid      :      19560. kBytes
   one-center:        497. kBytes
   wavefun   :     118016. kBytes
 
  
  
 General timing and accounting informations for this job:
 ========================================================
  
                  Total CPU time used (sec):      456.923
                            User time (sec):      455.076
                          System time (sec):        1.847
                         Elapsed time (sec):      460.171
  
                   Maximum memory used (kb):      459800.
                   Average memory used (kb):          N/A
  
                          Minor page faults:       176150
                          Major page faults:            0
                 Voluntary context switches:        36076
