 vasp.6.4.1 05Apr23 (build Jun 01 2023 13:46:15) complex                        
  
 executed on             LinuxIFC date 2023.12.16  22:50:52
 running   20 mpi-ranks, on    5 nodes
 distrk:  each k-point on   20 cores,    1 groups
 distr:  one band on NCORE=   1 cores,   20 groups


--------------------------------------------------------------------------------------------------------


 INCAR:
   ALGO = Fast
   EDIFF = 0.0002
   ENCUT = 550
   IBRION = 2
   ISIF = 4
   ISMEAR = 0
   ISPIN = 2
   IVDW = 13
   LASPH = True
   LMAXMIX = 4
   LORBIT = 11
   LREAL = Auto
   LWAVE = False
   MAGMOM = 1*2.562 2*-2.562 2*2.562 2*-2.562 1*2.562 8*0.0
   NELM = 100
   NSW = 99
   PREC = Accurate
   SIGMA = 0.05

 POTCAR:   PAW_PBE Fe_pv 06Sep2000                
 POTCAR:   PAW_PBE Se 06Sep2000                   
 -----------------------------------------------------------------------------
|                                                                             |
|           W    W    AA    RRRRR   N    N  II  N    N   GGGG   !!!           |
|           W    W   A  A   R    R  NN   N  II  NN   N  G    G  !!!           |
|           W    W  A    A  R    R  N N  N  II  N N  N  G       !!!           |
|           W WW W  AAAAAA  RRRRR   N  N N  II  N  N N  G  GGG   !            |
|           WW  WW  A    A  R   R   N   NN  II  N   NN  G    G                |
|           W    W  A    A  R    R  N    N  II  N    N   GGGG   !!!           |
|                                                                             |
|     For optimal performance we recommend to set                             |
|       NCORE = 2 up to number-of-cores-per-socket                            |
|     NCORE specifies how many cores store one orbital (NPAR=cpu/NCORE).      |
|     This setting can greatly improve the performance of VASP for DFT.       |
|     The default, NCORE=1 might be grossly inefficient on modern             |
|     multi-core architectures or massively parallel machines. Do your        |
|     own testing! More info at https://www.vasp.at/wiki/index.php/NCORE      |
|     Unfortunately you need to use the default for GW and RPA                |
|     calculations (for HF NCORE is supported but not extensively tested      |
|     yet).                                                                   |
|                                                                             |
 -----------------------------------------------------------------------------

 POTCAR:   PAW_PBE Fe_pv 06Sep2000                
   VRHFIN =Fe:  3pd7s1                                                                              
   LEXCH  = PE                                                                                      
   EATOM  =  2456.8974 eV,  180.5769 Ry                                                             
                                                                                                    
   TITEL  = PAW_PBE Fe_pv 06Sep2000                                                                 
   LULTRA =        F    use ultrasoft PP ?                                                          
   IUNSCR =        1    unscreen: 0-lin 1-nonlin 2-no                                               
   RPACOR =    1.750    partial core radius                                                         
   POMASS =   55.847; ZVAL   =   14.000    mass and valenz                                          
   RCORE  =    2.200    outmost cutoff radius                                                       
   RWIGS  =    2.200; RWIGS  =    1.164    wigner-seitz radius (au A)                               
   ENMAX  =  293.238; ENMIN  =  219.929 eV                                                          
   RCLOC  =    1.701    cutoff for local pot                                                        
   LCOR   =        T    correct aug charges                                                         
   LPAW   =        T    paw PP                                                                      
   EAUG   =  578.342                                                                                
   DEXC   =    -.002                                                                                
   RMAX   =    2.693    core radius for proj-oper                                                   
   RAUG   =    1.300    factor for augmentation sphere                                              
   RDEP   =    2.296    radius for radial grids                                                     
   QCUT   =   -4.642; QGAM   =    9.285    optimization parameters                                  
                                                                                                    
   Description                                                                                      
     l     E      TYP  RCUT    TYP  RCUT                                                            
     1   .000     23  2.000                                                                         
     1  -.400     23  2.000                                                                         
     2   .000     23  2.200                                                                         
     2   .000     23  2.200                                                                         
     0   .000     23  2.000                                                                         
     0  2.000     23  2.000                                                                         
     3   .000      7   .000                                                                         
  local pseudopotential read in
  partial core-charges read in
  atomic valenz-charges read in
  non local Contribution for L=           1  read in
    real space projection operators read in
  non local Contribution for L=           1  read in
    real space projection operators read in
  non local Contribution for L=           2  read in
    real space projection operators read in
  non local Contribution for L=           2  read in
    real space projection operators read in
  non local Contribution for L=           0  read in
    real space projection operators read in
  non local Contribution for L=           0  read in
    real space projection operators read in
    PAW grid and wavefunctions read in
 
   number of l-projection  operators is LMAX  =           6
   number of lm-projection operators is LMMAX =          18
 
 POTCAR:   PAW_PBE Se 06Sep2000                   
   VRHFIN =Se: s2p4                                                                                 
   LEXCH  = PE                                                                                      
   EATOM  =   256.9644 eV,   18.8864 Ry                                                             
                                                                                                    
   TITEL  = PAW_PBE Se 06Sep2000                                                                    
   LULTRA =        F    use ultrasoft PP ?                                                          
   IUNSCR =        1    unscreen: 0-lin 1-nonlin 2-no                                               
   RPACOR =    1.900    partial core radius                                                         
   POMASS =   78.960; ZVAL   =    6.000    mass and valenz                                          
   RCORE  =    2.100    outmost cutoff radius                                                       
   RWIGS  =    2.200; RWIGS  =    1.164    wigner-seitz radius (au A)                               
   ENMAX  =  211.534; ENMIN  =  158.651 eV                                                          
   ICORE  =        3    local potential                                                             
   LCOR   =        T    correct aug charges                                                         
   LPAW   =        T    paw PP                                                                      
   EAUG   =  446.842                                                                                
   DEXC   =    -.031                                                                                
   RMAX   =    3.170    core radius for proj-oper                                                   
   RAUG   =    1.300    factor for augmentation sphere                                              
   RDEP   =    2.177    radius for radial grids                                                     
   QCUT   =   -3.943; QGAM   =    7.886    optimization parameters                                  
                                                                                                    
   Description                                                                                      
     l     E      TYP  RCUT    TYP  RCUT                                                            
     0   .000     23  2.100                                                                         
     0   .000     23  2.100                                                                         
     1   .000     23  2.100                                                                         
     1   .000     23  2.100                                                                         
     2   .000     23  2.100                                                                         
     3  -.100      7  2.100                                                                         
  local pseudopotential read in
  partial core-charges read in
  atomic valenz-charges read in
  non local Contribution for L=           0  read in
    real space projection operators read in
  non local Contribution for L=           0  read in
    real space projection operators read in
  non local Contribution for L=           1  read in
    real space projection operators read in
  non local Contribution for L=           1  read in
    real space projection operators read in
  non local Contribution for L=           2  read in
    real space projection operators read in
    PAW grid and wavefunctions read in
 
   number of l-projection  operators is LMAX  =           5
   number of lm-projection operators is LMMAX =          13
 
 Optimization of the real space projectors (new method)

 maximal supplied QI-value         = 17.01
 optimisation between [QCUT,QGAM] = [ 11.91, 23.98] = [ 39.69,161.04] Ry 
 Optimized for a Real-space Cutoff    1.45 Angstroem

   l    n(q)    QCUT    max X(q) W(low)/X(q) W(high)/X(q)  e(spline) 
   1     10    11.905     4.550    0.27E-05    0.11E-05    0.28E-07
   1     10    11.905     5.234    0.10E-04    0.61E-04    0.17E-06
   2      9    11.905     3.960    0.19E-04    0.73E-05    0.50E-07
   2      9    11.905    29.565    0.24E-03    0.51E-04    0.27E-06
   0     10    11.905    23.582    0.17E-04    0.10E-05    0.14E-07
   0     10    11.905    39.747    0.23E-04    0.68E-05    0.74E-07
 Optimization of the real space projectors (new method)

 maximal supplied QI-value         = 17.95
 optimisation between [QCUT,QGAM] = [ 11.85, 23.88] = [ 39.31,159.64] Ry 
 Optimized for a Real-space Cutoff    1.18 Angstroem

   l    n(q)    QCUT    max X(q) W(low)/X(q) W(high)/X(q)  e(spline) 
   0      8    11.849     6.499    0.17E-04    0.94E-05    0.89E-08
   0      8    11.849    52.623    0.21E-03    0.78E-04    0.81E-07
   1      8    11.849     4.229    0.79E-04    0.83E-04    0.23E-07
   1      8    11.849    29.991    0.12E-03    0.43E-03    0.14E-06
   2      7    11.849     3.719    0.22E-03    0.64E-04    0.38E-07
 PAW_PBE Fe_pv 06Sep2000                :
 energy of atom  1       EATOM=-2456.8974
 kinetic energy error for atom=    0.0060 (will be added to EATOM!!)
 PAW_PBE Se 06Sep2000                   :
 energy of atom  2       EATOM= -256.9644
 kinetic energy error for atom=    0.0007 (will be added to EATOM!!)
 
 
 POSCAR: Fe8 Se8
  positions in direct lattice
  No initial velocities read in
 exchange correlation table for  LEXCH =        8
   RHO(1)=    0.500       N(1)  =     2000
   RHO(2)=  100.500       N(2)  =     4000
 


--------------------------------------------------------------------------------------------------------


 ion  position               nearest neighbor table
   1  0.000  0.000  0.000-  11 2.28  14 2.28   5 2.40   8 2.40
   2  0.000  0.500  0.000-  12 2.28  13 2.28   6 2.40   7 2.40
   3  0.500  0.000  0.000-   9 2.28  16 2.28   6 2.40   7 2.40
   4  0.500  0.500  0.000-  10 2.28  15 2.28   5 2.40   8 2.40
   5  0.250  0.250  0.000-   9 2.28  13 2.28   1 2.40   4 2.40
   6  0.250  0.750  0.000-  10 2.28  14 2.28   2 2.40   3 2.40
   7  0.750  0.250  0.000-  11 2.28  15 2.28   2 2.40   3 2.40
   8  0.750  0.750  0.000-  12 2.28  16 2.28   1 2.40   4 2.40
   9  0.375  0.125  0.682-   3 2.28   5 2.28
  10  0.375  0.625  0.682-   4 2.28   6 2.28
  11  0.875  0.125  0.682-   1 2.28   7 2.28
  12  0.875  0.625  0.682-   2 2.28   8 2.28
  13  0.125  0.375  0.318-   2 2.28   5 2.28
  14  0.125  0.875  0.318-   1 2.28   6 2.28
  15  0.625  0.375  0.318-   4 2.28   7 2.28
  16  0.625  0.875  0.318-   3 2.28   8 2.28
 
  LATTYP: Found a base centered orthorhombic cell.
 ALAT       =     9.5863414138
 B/A-ratio  =     1.1869149923
 C/A-ratio  =     0.5833800091
  
  Lattice vectors:
  
 A1 = (   4.7931707069,  -5.6890861728,   0.0000000000)
 A2 = (   4.7931707069,   5.6890861728,   0.0000000000)
 A3 = (   0.0000000000,   0.0000000000,   5.5924799416)


Analysis of symmetry for initial positions (statically):
=====================================================================
 Subroutine PRICEL returns following result:
 
  LATTYP: Found a base centered orthorhombic cell.
 ALAT       =     4.7931707069
 B/A-ratio  =     1.1869149923
 C/A-ratio  =     1.1667600183
  
  Lattice vectors:
  
 A1 = (   2.3965853535,  -2.8445430864,   0.0000000000)
 A2 = (   2.3965853535,   2.8445430864,   0.0000000000)
 A3 = (   0.0000000000,   0.0000000000,   5.5924799416)
 
   4 primitive cells build up your supercell.
 

 Routine SETGRP: Setting up the symmetry group for a 
 base centered orthorhombic supercell.


 Subroutine GETGRP returns: Found  8 space group operations
 (whereof  4 operations were pure point group operations)
 out of a pool of  8 trial point group operations.


The static configuration has the point symmetry C_2h.
 The point group associated with its full space group is D_2h.


Analysis of symmetry for dynamics (positions and initial velocities):
=====================================================================
 Subroutine PRICEL returns following result:
 
  LATTYP: Found a base centered orthorhombic cell.
 ALAT       =     4.7931707069
 B/A-ratio  =     1.1869149923
 C/A-ratio  =     1.1667600183
  
  Lattice vectors:
  
 A1 = (   2.3965853535,  -2.8445430864,   0.0000000000)
 A2 = (   2.3965853535,   2.8445430864,   0.0000000000)
 A3 = (   0.0000000000,   0.0000000000,   5.5924799416)
 
   4 primitive cells build up your supercell.
 

 Routine SETGRP: Setting up the symmetry group for a 
 base centered orthorhombic supercell.


 Subroutine GETGRP returns: Found  8 space group operations
 (whereof  4 operations were pure point group operations)
 out of a pool of  8 trial point group operations.


The dynamic configuration has the point symmetry C_2h.
 The point group associated with its full space group is D_2h.


Analysis of structural, dynamic, and magnetic symmetry:
=====================================================================
 Subroutine PRICEL returns following result:
 
  LATTYP: Found a base centered orthorhombic cell.
 ALAT       =     4.7931707069
 B/A-ratio  =     1.1869149923
 C/A-ratio  =     1.1667600183
  
  Lattice vectors:
  
 A1 = (   2.3965853535,  -2.8445430864,   0.0000000000)
 A2 = (   2.3965853535,   2.8445430864,   0.0000000000)
 A3 = (   0.0000000000,   0.0000000000,   5.5924799416)
 
   4 primitive cells build up your supercell.
 

 Routine SETGRP: Setting up the symmetry group for a 
 base centered orthorhombic supercell.


 Subroutine GETGRP returns: Found  8 space group operations
 (whereof  4 operations were pure point group operations)
 out of a pool of  8 trial point group operations.


The overall configuration has the point symmetry C_2h.
 The point group associated with its full space group is D_2h.


 Subroutine INISYM returns: Found  8 space group operations
 (whereof  4 operations are pure point group operations),
 and found     4 'primitive' translations


----------------------------------------------------------------------------------------

                                     Primitive cell                                     

  volume of cell :      76.2500

  direct lattice vectors                    reciprocal lattice vectors
     2.396585353 -2.844543086  0.000000000     0.208630166 -0.175775154  0.000000000
     2.396585353  2.844543086  0.000000000     0.208630166  0.175775154  0.000000000
     0.000000000  0.000000000  5.592479942     0.000000000  0.000000000  0.178811549

  length of vectors
     3.719549264  3.719549264  5.592479942     0.272806618  0.272806618  0.178811549

  position of ions in fractional coordinates (direct lattice)
     0.000000000  0.000000000  0.000000000
     0.500000000  0.500000000  0.000000000
     0.750000000  0.250000000  0.681975391
     0.250000000  0.750000000  0.318024609

  ion indices of the primitive-cell ions
   primitive index   ion index
                 1           1
                 2           5
                 3          11
                 4          14

----------------------------------------------------------------------------------------

 
 
 KPOINTS: KPOINTS                                 

Automatic generation of k-mesh.
 Grid dimensions read from file:
 generate k-points for:    7    7    9

 Generating k-lattice:

  Cartesian coordinates                     Fractional coordinates (reciprocal lattice)
     0.014902155 -0.012555368  0.000000000     0.142857143  0.000000000  0.000000000
     0.014902155  0.012555368  0.000000000     0.000000000  0.142857143  0.000000000
     0.000000000  0.000000000  0.019867950     0.000000000  0.000000000  0.111111111

  Length of vectors
     0.019486187  0.019486187  0.019867950

  Shift w.r.t. Gamma in fractional coordinates (k-lattice)
     0.000000000  0.000000000  0.000000000

 
 Subroutine IBZKPT returns following result:
 ===========================================
 
 Found     80 irreducible k-points:
 
 Following reciprocal coordinates:
            Coordinates               Weight
  0.000000  0.000000  0.000000      1.000000
  0.142857 -0.000000  0.000000      4.000000
  0.285714  0.000000  0.000000      4.000000
  0.428571  0.000000  0.000000      4.000000
  0.142857  0.142857  0.000000      2.000000
  0.285714  0.142857  0.000000      4.000000
  0.428571  0.142857  0.000000      4.000000
 -0.428571  0.142857  0.000000      4.000000
 -0.285714  0.142857  0.000000      4.000000
 -0.142857  0.142857  0.000000      2.000000
  0.285714  0.285714  0.000000      2.000000
  0.428571  0.285714  0.000000      4.000000
 -0.428571  0.285714  0.000000      4.000000
 -0.285714  0.285714  0.000000      2.000000
  0.428571  0.428571  0.000000      2.000000
 -0.428571  0.428571  0.000000      2.000000
  0.000000  0.000000  0.111111      2.000000
  0.142857 -0.000000  0.111111      8.000000
  0.285714  0.000000  0.111111      8.000000
  0.428571  0.000000  0.111111      8.000000
  0.142857  0.142857  0.111111      4.000000
  0.285714  0.142857  0.111111      8.000000
  0.428571  0.142857  0.111111      8.000000
 -0.428571  0.142857  0.111111      8.000000
 -0.285714  0.142857  0.111111      8.000000
 -0.142857  0.142857  0.111111      4.000000
  0.285714  0.285714  0.111111      4.000000
  0.428571  0.285714  0.111111      8.000000
 -0.428571  0.285714  0.111111      8.000000
 -0.285714  0.285714  0.111111      4.000000
  0.428571  0.428571  0.111111      4.000000
 -0.428571  0.428571  0.111111      4.000000
  0.000000  0.000000  0.222222      2.000000
  0.142857 -0.000000  0.222222      8.000000
  0.285714  0.000000  0.222222      8.000000
  0.428571  0.000000  0.222222      8.000000
  0.142857  0.142857  0.222222      4.000000
  0.285714  0.142857  0.222222      8.000000
  0.428571  0.142857  0.222222      8.000000
 -0.428571  0.142857  0.222222      8.000000
 -0.285714  0.142857  0.222222      8.000000
 -0.142857  0.142857  0.222222      4.000000
  0.285714  0.285714  0.222222      4.000000
  0.428571  0.285714  0.222222      8.000000
 -0.428571  0.285714  0.222222      8.000000
 -0.285714  0.285714  0.222222      4.000000
  0.428571  0.428571  0.222222      4.000000
 -0.428571  0.428571  0.222222      4.000000
  0.000000  0.000000  0.333333      2.000000
  0.142857 -0.000000  0.333333      8.000000
  0.285714  0.000000  0.333333      8.000000
  0.428571  0.000000  0.333333      8.000000
  0.142857  0.142857  0.333333      4.000000
  0.285714  0.142857  0.333333      8.000000
  0.428571  0.142857  0.333333      8.000000
 -0.428571  0.142857  0.333333      8.000000
 -0.285714  0.142857  0.333333      8.000000
 -0.142857  0.142857  0.333333      4.000000
  0.285714  0.285714  0.333333      4.000000
  0.428571  0.285714  0.333333      8.000000
 -0.428571  0.285714  0.333333      8.000000
 -0.285714  0.285714  0.333333      4.000000
  0.428571  0.428571  0.333333      4.000000
 -0.428571  0.428571  0.333333      4.000000
  0.000000  0.000000  0.444444      2.000000
  0.142857 -0.000000  0.444444      8.000000
  0.285714  0.000000  0.444444      8.000000
  0.428571  0.000000  0.444444      8.000000
  0.142857  0.142857  0.444444      4.000000
  0.285714  0.142857  0.444444      8.000000
  0.428571  0.142857  0.444444      8.000000
 -0.428571  0.142857  0.444444      8.000000
 -0.285714  0.142857  0.444444      8.000000
 -0.142857  0.142857  0.444444      4.000000
  0.285714  0.285714  0.444444      4.000000
  0.428571  0.285714  0.444444      8.000000
 -0.428571  0.285714  0.444444      8.000000
 -0.285714  0.285714  0.444444      4.000000
  0.428571  0.428571  0.444444      4.000000
 -0.428571  0.428571  0.444444      4.000000
 
 Following cartesian coordinates:
            Coordinates               Weight
  0.000000  0.000000  0.000000      1.000000
  0.014902 -0.012555  0.000000      4.000000
  0.029804 -0.025111  0.000000      4.000000
  0.044706 -0.037666  0.000000      4.000000
  0.029804 -0.000000  0.000000      2.000000
  0.044706 -0.012555  0.000000      4.000000
  0.059609 -0.025111  0.000000      4.000000
 -0.029804  0.050221  0.000000      4.000000
 -0.014902  0.037666  0.000000      4.000000
 -0.000000  0.025111  0.000000      2.000000
  0.059609 -0.000000  0.000000      2.000000
  0.074511 -0.012555  0.000000      4.000000
 -0.014902  0.062777  0.000000      4.000000
 -0.000000  0.050221  0.000000      2.000000
  0.089413  0.000000  0.000000      2.000000
 -0.000000  0.075332  0.000000      2.000000
  0.000000  0.000000  0.019868      2.000000
  0.014902 -0.012555  0.019868      8.000000
  0.029804 -0.025111  0.019868      8.000000
  0.044706 -0.037666  0.019868      8.000000
  0.029804 -0.000000  0.019868      4.000000
  0.044706 -0.012555  0.019868      8.000000
  0.059609 -0.025111  0.019868      8.000000
 -0.029804  0.050221  0.019868      8.000000
 -0.014902  0.037666  0.019868      8.000000
 -0.000000  0.025111  0.019868      4.000000
  0.059609 -0.000000  0.019868      4.000000
  0.074511 -0.012555  0.019868      8.000000
 -0.014902  0.062777  0.019868      8.000000
 -0.000000  0.050221  0.019868      4.000000
  0.089413  0.000000  0.019868      4.000000
 -0.000000  0.075332  0.019868      4.000000
  0.000000  0.000000  0.039736      2.000000
  0.014902 -0.012555  0.039736      8.000000
  0.029804 -0.025111  0.039736      8.000000
  0.044706 -0.037666  0.039736      8.000000
  0.029804 -0.000000  0.039736      4.000000
  0.044706 -0.012555  0.039736      8.000000
  0.059609 -0.025111  0.039736      8.000000
 -0.029804  0.050221  0.039736      8.000000
 -0.014902  0.037666  0.039736      8.000000
 -0.000000  0.025111  0.039736      4.000000
  0.059609 -0.000000  0.039736      4.000000
  0.074511 -0.012555  0.039736      8.000000
 -0.014902  0.062777  0.039736      8.000000
 -0.000000  0.050221  0.039736      4.000000
  0.089413  0.000000  0.039736      4.000000
 -0.000000  0.075332  0.039736      4.000000
  0.000000  0.000000  0.059604      2.000000
  0.014902 -0.012555  0.059604      8.000000
  0.029804 -0.025111  0.059604      8.000000
  0.044706 -0.037666  0.059604      8.000000
  0.029804 -0.000000  0.059604      4.000000
  0.044706 -0.012555  0.059604      8.000000
  0.059609 -0.025111  0.059604      8.000000
 -0.029804  0.050221  0.059604      8.000000
 -0.014902  0.037666  0.059604      8.000000
 -0.000000  0.025111  0.059604      4.000000
  0.059609 -0.000000  0.059604      4.000000
  0.074511 -0.012555  0.059604      8.000000
 -0.014902  0.062777  0.059604      8.000000
 -0.000000  0.050221  0.059604      4.000000
  0.089413  0.000000  0.059604      4.000000
 -0.000000  0.075332  0.059604      4.000000
  0.000000  0.000000  0.079472      2.000000
  0.014902 -0.012555  0.079472      8.000000
  0.029804 -0.025111  0.079472      8.000000
  0.044706 -0.037666  0.079472      8.000000
  0.029804 -0.000000  0.079472      4.000000
  0.044706 -0.012555  0.079472      8.000000
  0.059609 -0.025111  0.079472      8.000000
 -0.029804  0.050221  0.079472      8.000000
 -0.014902  0.037666  0.079472      8.000000
 -0.000000  0.025111  0.079472      4.000000
  0.059609 -0.000000  0.079472      4.000000
  0.074511 -0.012555  0.079472      8.000000
 -0.014902  0.062777  0.079472      8.000000
 -0.000000  0.050221  0.079472      4.000000
  0.089413  0.000000  0.079472      4.000000
 -0.000000  0.075332  0.079472      4.000000
 


--------------------------------------------------------------------------------------------------------




 Dimension of arrays:
   k-points           NKPTS =     80   k-points in BZ     NKDIM =     80   number of bands    NBANDS=    100
   number of dos      NEDOS =    301   number of ions     NIONS =     16
   non local maximal  LDIM  =      6   non local SUM 2l+1 LMDIM =     18
   total plane-waves  NPLWV = 172800
   max r-space proj   IRMAX =   7254   max aug-charges    IRDMAX=  24904
   dimension x,y,z NGX =    60 NGY =   60 NGZ =   48
   dimension x,y,z NGXF=   120 NGYF=  120 NGZF=   96
   support grid    NGXF=   120 NGYF=  120 NGZF=   96
   ions per type =               8   8
   NGX,Y,Z   is equivalent  to a cutoff of  13.41, 13.41, 14.27 a.u.
   NGXF,Y,Z  is equivalent  to a cutoff of  26.82, 26.82, 28.54 a.u.

 SYSTEM =  unknown system                          
 POSCAR =  Fe8 Se8                                 

 Startparameter for this run:
   NWRITE =      2    write-flag & timer
   PREC   = accura    normal or accurate (medium, high low for compatibility)
   ISTART =      0    job   : 0-new  1-cont  2-samecut
   ICHARG =      2    charge: 1-file 2-atom 10-const
   ISPIN  =      2    spin polarized calculation?
   LNONCOLLINEAR =      F non collinear calculations
   LSORBIT =      F    spin-orbit coupling
   INIWAV =      1    electr: 0-lowe 1-rand  2-diag
   LASPH  =      T    aspherical Exc in radial PAW
 Electronic Relaxation 1
   ENCUT  =  550.0 eV  40.42 Ry    6.36 a.u.  14.23 14.23 10.69*2*pi/ulx,y,z
   ENINI  =  550.0     initial cutoff
   ENAUG  =  578.3 eV  augmentation charge cutoff
   NELM   =    100;   NELMIN=  2; NELMDL=  0     # of ELM steps 
   EDIFF  = 0.2E-03   stopping-criterion for ELM
   LREAL  =      T    real-space projection
   NLSPLINE    = F    spline interpolate recip. space projectors
   LCOMPAT=      F    compatible to vasp.4.4
   GGA_COMPAT  = T    GGA compatible to vasp.4.4-vasp.4.6
   LMAXPAW     = -100 max onsite density
   LMAXMIX     =    4 max onsite mixed and CHGCAR
   VOSKOWN=      0    Vosko Wilk Nusair interpolation
   ROPT   =   -0.00025  -0.00025
 Ionic relaxation
   EDIFFG = 0.2E-02   stopping-criterion for IOM
   NSW    =     99    number of steps for IOM
   NBLOCK =      1;   KBLOCK =     99    inner block; outer block 
   IBRION =      2    ionic relax: 0-MD 1-quasi-New 2-CG
   NFREE  =      1    steps in history (QN), initial steepest desc. (CG)
   ISIF   =      4    stress and relaxation
   IWAVPR =     11    prediction:  0-non 1-charg 2-wave 3-comb
   ISYM   =      2    0-nonsym 1-usesym 2-fastsym
   LCORR  =      T    Harris-Foulkes like correction to forces

   POTIM  = 0.5000    time-step for ionic-motion
   TEIN   =    0.0    initial temperature
   TEBEG  =    0.0;   TEEND  =   0.0 temperature during run
   SMASS  =  -3.00    Nose mass-parameter (am)
   estimated Nose-frequenzy (Omega)   =  0.10E-29 period in steps = 0.13E+47 mass=  -0.126E-26a.u.
   SCALEE = 1.0000    scale energy and forces
   NPACO  =    256;   APACO  = 10.0  distance and # of slots for P.C.
   PSTRESS=    0.0 pullay stress

  Mass of Ions in am
   POMASS =  55.85 78.96
  Ionic Valenz
   ZVAL   =  14.00  6.00
  Atomic Wigner-Seitz radii
   RWIGS  =  -1.00 -1.00
  virtual crystal weights 
   VCA    =   1.00  1.00
   NELECT =     160.0000    total number of electrons
   NUPDOWN=      -1.0000    fix difference up-down

 DOS related values:
   EMIN   =  10.00;   EMAX   =-10.00  energy-range for DOS
   EFERMI =   0.00;   METHOD = LEGACY      
   ISMEAR =     0;   SIGMA  =   0.05  broadening in eV -4-tet -1-fermi 0-gaus

 Electronic relaxation 2 (details)
   IALGO  =     68    algorithm
   LDIAG  =      T    sub-space diagonalisation (order eigenvalues)
   LSUBROT=      F    optimize rotation matrix (better conditioning)
   TURBO    =      0    0=normal 1=particle mesh
   IRESTART =      0    0=no restart 2=restart with 2 vectors
   NREBOOT  =      0    no. of reboots
   NMIN     =      0    reboot dimension
   EREF     =   0.00    reference energy to select bands
   IMIX   =      4    mixing-type and parameters
     AMIX     =   0.40;   BMIX     =  1.00
     AMIX_MAG =   1.60;   BMIX_MAG =  1.00
     AMIN     =   0.10
     WC   =   100.;   INIMIX=   1;  MIXPRE=   1;  MAXMIX= -45

 Intra band minimization:
   WEIMIN = 0.0010     energy-eigenvalue tresh-hold
   EBREAK =  0.50E-06  absolut break condition
   DEPER  =   0.30     relativ break condition  

   TIME   =   0.40     timestep for ELM

  volume/ion in A,a.u.               =      19.06       128.64
  Fermi-wavevector in a.u.,A,eV,Ry     =   1.320327  2.495056 23.718543  1.743264
  Thomas-Fermi vector in A             =   2.450161
 
 Write flags
   LWAVE        =      F    write WAVECAR
   LDOWNSAMPLE  =      F    k-point downsampling of WAVECAR
   LCHARG       =      T    write CHGCAR
   LVTOT        =      F    write LOCPOT, total local potential
   LVHAR        =      F    write LOCPOT, Hartree potential only
   LELF         =      F    write electronic localiz. function (ELF)
   LORBIT       =     11    0 simple, 1 ext, 2 COOP (PROOUT), +10 PAW based schemes


 Dipole corrections
   LMONO  =      F    monopole corrections only (constant potential shift)
   LDIPOL =      F    correct potential (dipole corrections)
   IDIPOL =      0    1-x, 2-y, 3-z, 4-all directions 
   EPSILON=  1.0000000 bulk dielectric constant

 Exchange correlation treatment:
   GGA     =    --    GGA type
   LEXCH   =     8    internal setting for exchange type
   LIBXC   =     F    Libxc                    
   VOSKOWN =     0    Vosko Wilk Nusair interpolation
   LHFCALC =     F    Hartree Fock is set to
   LHFONE  =     F    Hartree Fock one center treatment
   AEXX    =    0.0000 exact exchange contribution

 Linear response parameters
   LEPSILON=     F    determine dielectric tensor
   LRPA    =     F    only Hartree local field effects (RPA)
   LNABLA  =     F    use nabla operator in PAW spheres
   LVEL    =     F    velocity operator in full k-point grid
   CSHIFT  =0.1000    complex shift for real part using Kramers Kronig
   OMEGAMAX=  -1.0    maximum frequency
   DEG_THRESHOLD= 0.2000000E-02 threshold for treating states as degnerate
   RTIME   =   -0.100 relaxation time in fs
  (WPLASMAI=    0.000 imaginary part of plasma frequency in eV, 0.658/RTIME)
   DFIELD  = 0.0000000 0.0000000 0.0000000 field for delta impulse in time
 
  Optional k-point grid parameters
   LKPOINTS_OPT  =     F    use optional k-point grid
   KPOINTS_OPT_MODE=     1    mode for optional k-point grid
 
 Orbital magnetization related:
   ORBITALMAG=     F  switch on orbital magnetization
   LCHIMAG   =     F  perturbation theory with respect to B field
   DQ        =  0.001000  dq finite difference perturbation B field
   LLRAUG    =     F  two centre corrections for induced B field
   LBONE     =     F  B-component reconstruction in AE one-centre
   LVGVCALC  =     T  calculate vGv susceptibility
   LVGVAPPL  =     F  apply vGv susceptibility instead of pGv for G=0

 Random number generation:
   RANDOM_GENERATOR = DEFAULT
   PCG_SEED         = not used


--------------------------------------------------------------------------------------------------------


 conjugate gradient relaxation of ions
 charge density and potential will be updated during run
 spin polarized calculation
 RMM-DIIS sequential band-by-band and
  variant of blocked Davidson during initial phase
 perform sub-space diagonalisation
    before iterative eigenvector-optimisation
 modified Broyden-mixing scheme, WC =      100.0
 initial mixing is a Kerker type mixing with AMIX =  0.4000 and BMIX =      1.0000
 Hartree-type preconditioning will be used
 using additional bands           20
 real space projection scheme for non local part
 use partial core corrections
 calculate Harris-corrections to forces 
   (improved forces if not selfconsistent)
 use gradient corrections 
 use of overlap-Matrix (Vanderbilt PP)
 Gauss-broadening in eV      SIGMA  =   0.05


--------------------------------------------------------------------------------------------------------


  energy-cutoff  :      550.00
  volume of cell :      305.00
      direct lattice vectors                 reciprocal lattice vectors
     4.793170707 -5.689086173  0.000000000     0.104315083 -0.087887577  0.000000000
     4.793170707  5.689086173  0.000000000     0.104315083  0.087887577  0.000000000
     0.000000000  0.000000000  5.592479942     0.000000000  0.000000000  0.178811549

  length of vectors
     7.439098528  7.439098528  5.592479942     0.136403309  0.136403309  0.178811549


 
 k-points in units of 2pi/SCALE and weight: KPOINTS                                 
   0.00000000  0.00000000  0.00000000       0.002
   0.01490215 -0.01255537  0.00000000       0.009
   0.02980431 -0.02511074  0.00000000       0.009
   0.04470646 -0.03766610  0.00000000       0.009
   0.02980431  0.00000000  0.00000000       0.005
   0.04470646 -0.01255537  0.00000000       0.009
   0.05960862 -0.02511074  0.00000000       0.009
  -0.02980431  0.05022147  0.00000000       0.009
  -0.01490215  0.03766610  0.00000000       0.009
  -0.00000000  0.02511074  0.00000000       0.005
   0.05960862 -0.00000000  0.00000000       0.005
   0.07451077 -0.01255537  0.00000000       0.009
  -0.01490215  0.06277684  0.00000000       0.009
   0.00000000  0.05022147  0.00000000       0.005
   0.08941293  0.00000000  0.00000000       0.005
   0.00000000  0.07533221  0.00000000       0.005
   0.00000000  0.00000000  0.01986795       0.005
   0.01490215 -0.01255537  0.01986795       0.018
   0.02980431 -0.02511074  0.01986795       0.018
   0.04470646 -0.03766610  0.01986795       0.018
   0.02980431  0.00000000  0.01986795       0.009
   0.04470646 -0.01255537  0.01986795       0.018
   0.05960862 -0.02511074  0.01986795       0.018
  -0.02980431  0.05022147  0.01986795       0.018
  -0.01490215  0.03766610  0.01986795       0.018
  -0.00000000  0.02511074  0.01986795       0.009
   0.05960862 -0.00000000  0.01986795       0.009
   0.07451077 -0.01255537  0.01986795       0.018
  -0.01490215  0.06277684  0.01986795       0.018
   0.00000000  0.05022147  0.01986795       0.009
   0.08941293  0.00000000  0.01986795       0.009
   0.00000000  0.07533221  0.01986795       0.009
   0.00000000  0.00000000  0.03973590       0.005
   0.01490215 -0.01255537  0.03973590       0.018
   0.02980431 -0.02511074  0.03973590       0.018
   0.04470646 -0.03766610  0.03973590       0.018
   0.02980431  0.00000000  0.03973590       0.009
   0.04470646 -0.01255537  0.03973590       0.018
   0.05960862 -0.02511074  0.03973590       0.018
  -0.02980431  0.05022147  0.03973590       0.018
  -0.01490215  0.03766610  0.03973590       0.018
  -0.00000000  0.02511074  0.03973590       0.009
   0.05960862 -0.00000000  0.03973590       0.009
   0.07451077 -0.01255537  0.03973590       0.018
  -0.01490215  0.06277684  0.03973590       0.018
   0.00000000  0.05022147  0.03973590       0.009
   0.08941293  0.00000000  0.03973590       0.009
   0.00000000  0.07533221  0.03973590       0.009
   0.00000000  0.00000000  0.05960385       0.005
   0.01490215 -0.01255537  0.05960385       0.018
   0.02980431 -0.02511074  0.05960385       0.018
   0.04470646 -0.03766610  0.05960385       0.018
   0.02980431  0.00000000  0.05960385       0.009
   0.04470646 -0.01255537  0.05960385       0.018
   0.05960862 -0.02511074  0.05960385       0.018
  -0.02980431  0.05022147  0.05960385       0.018
  -0.01490215  0.03766610  0.05960385       0.018
  -0.00000000  0.02511074  0.05960385       0.009
   0.05960862 -0.00000000  0.05960385       0.009
   0.07451077 -0.01255537  0.05960385       0.018
  -0.01490215  0.06277684  0.05960385       0.018
   0.00000000  0.05022147  0.05960385       0.009
   0.08941293  0.00000000  0.05960385       0.009
   0.00000000  0.07533221  0.05960385       0.009
   0.00000000  0.00000000  0.07947180       0.005
   0.01490215 -0.01255537  0.07947180       0.018
   0.02980431 -0.02511074  0.07947180       0.018
   0.04470646 -0.03766610  0.07947180       0.018
   0.02980431  0.00000000  0.07947180       0.009
   0.04470646 -0.01255537  0.07947180       0.018
   0.05960862 -0.02511074  0.07947180       0.018
  -0.02980431  0.05022147  0.07947180       0.018
  -0.01490215  0.03766610  0.07947180       0.018
  -0.00000000  0.02511074  0.07947180       0.009
   0.05960862 -0.00000000  0.07947180       0.009
   0.07451077 -0.01255537  0.07947180       0.018
  -0.01490215  0.06277684  0.07947180       0.018
   0.00000000  0.05022147  0.07947180       0.009
   0.08941293  0.00000000  0.07947180       0.009
   0.00000000  0.07533221  0.07947180       0.009
 
 k-points in reciprocal lattice and weights: KPOINTS                                 
   0.00000000  0.00000000  0.00000000       0.002
   0.14285714 -0.00000000  0.00000000       0.009
   0.28571429  0.00000000  0.00000000       0.009
   0.42857143  0.00000000  0.00000000       0.009
   0.14285714  0.14285714  0.00000000       0.005
   0.28571429  0.14285714  0.00000000       0.009
   0.42857143  0.14285714  0.00000000       0.009
  -0.42857143  0.14285714  0.00000000       0.009
  -0.28571429  0.14285714  0.00000000       0.009
  -0.14285714  0.14285714  0.00000000       0.005
   0.28571429  0.28571429  0.00000000       0.005
   0.42857143  0.28571429  0.00000000       0.009
  -0.42857143  0.28571429  0.00000000       0.009
  -0.28571429  0.28571429  0.00000000       0.005
   0.42857143  0.42857143  0.00000000       0.005
  -0.42857143  0.42857143  0.00000000       0.005
   0.00000000  0.00000000  0.11111111       0.005
   0.14285714 -0.00000000  0.11111111       0.018
   0.28571429  0.00000000  0.11111111       0.018
   0.42857143  0.00000000  0.11111111       0.018
   0.14285714  0.14285714  0.11111111       0.009
   0.28571429  0.14285714  0.11111111       0.018
   0.42857143  0.14285714  0.11111111       0.018
  -0.42857143  0.14285714  0.11111111       0.018
  -0.28571429  0.14285714  0.11111111       0.018
  -0.14285714  0.14285714  0.11111111       0.009
   0.28571429  0.28571429  0.11111111       0.009
   0.42857143  0.28571429  0.11111111       0.018
  -0.42857143  0.28571429  0.11111111       0.018
  -0.28571429  0.28571429  0.11111111       0.009
   0.42857143  0.42857143  0.11111111       0.009
  -0.42857143  0.42857143  0.11111111       0.009
   0.00000000  0.00000000  0.22222222       0.005
   0.14285714 -0.00000000  0.22222222       0.018
   0.28571429  0.00000000  0.22222222       0.018
   0.42857143  0.00000000  0.22222222       0.018
   0.14285714  0.14285714  0.22222222       0.009
   0.28571429  0.14285714  0.22222222       0.018
   0.42857143  0.14285714  0.22222222       0.018
  -0.42857143  0.14285714  0.22222222       0.018
  -0.28571429  0.14285714  0.22222222       0.018
  -0.14285714  0.14285714  0.22222222       0.009
   0.28571429  0.28571429  0.22222222       0.009
   0.42857143  0.28571429  0.22222222       0.018
  -0.42857143  0.28571429  0.22222222       0.018
  -0.28571429  0.28571429  0.22222222       0.009
   0.42857143  0.42857143  0.22222222       0.009
  -0.42857143  0.42857143  0.22222222       0.009
   0.00000000  0.00000000  0.33333333       0.005
   0.14285714 -0.00000000  0.33333333       0.018
   0.28571429  0.00000000  0.33333333       0.018
   0.42857143  0.00000000  0.33333333       0.018
   0.14285714  0.14285714  0.33333333       0.009
   0.28571429  0.14285714  0.33333333       0.018
   0.42857143  0.14285714  0.33333333       0.018
  -0.42857143  0.14285714  0.33333333       0.018
  -0.28571429  0.14285714  0.33333333       0.018
  -0.14285714  0.14285714  0.33333333       0.009
   0.28571429  0.28571429  0.33333333       0.009
   0.42857143  0.28571429  0.33333333       0.018
  -0.42857143  0.28571429  0.33333333       0.018
  -0.28571429  0.28571429  0.33333333       0.009
   0.42857143  0.42857143  0.33333333       0.009
  -0.42857143  0.42857143  0.33333333       0.009
   0.00000000  0.00000000  0.44444444       0.005
   0.14285714 -0.00000000  0.44444444       0.018
   0.28571429  0.00000000  0.44444444       0.018
   0.42857143  0.00000000  0.44444444       0.018
   0.14285714  0.14285714  0.44444444       0.009
   0.28571429  0.14285714  0.44444444       0.018
   0.42857143  0.14285714  0.44444444       0.018
  -0.42857143  0.14285714  0.44444444       0.018
  -0.28571429  0.14285714  0.44444444       0.018
  -0.14285714  0.14285714  0.44444444       0.009
   0.28571429  0.28571429  0.44444444       0.009
   0.42857143  0.28571429  0.44444444       0.018
  -0.42857143  0.28571429  0.44444444       0.018
  -0.28571429  0.28571429  0.44444444       0.009
   0.42857143  0.42857143  0.44444444       0.009
  -0.42857143  0.42857143  0.44444444       0.009
 
 position of ions in fractional coordinates (direct lattice) 
   0.00000000  0.00000000  0.00000000
   0.00000000  0.50000000  0.00000000
   0.50000000  0.00000000  0.00000000
   0.50000000  0.50000000  0.00000000
   0.25000000  0.25000000  0.00000000
   0.25000000  0.75000000  0.00000000
   0.75000000  0.25000000  0.00000000
   0.75000000  0.75000000  0.00000000
   0.37500000  0.12500000  0.68197539
   0.37500000  0.62500000  0.68197539
   0.87500000  0.12500000  0.68197539
   0.87500000  0.62500000  0.68197539
   0.12500000  0.37500000  0.31802461
   0.12500000  0.87500000  0.31802461
   0.62500000  0.37500000  0.31802461
   0.62500000  0.87500000  0.31802461
 
 position of ions in cartesian coordinates  (Angst):
   0.00000000  0.00000000  0.00000000
   2.39658535  2.84454309  0.00000000
   2.39658535 -2.84454309  0.00000000
   4.79317071  0.00000000  0.00000000
   2.39658535  0.00000000  0.00000000
   4.79317071  2.84454309  0.00000000
   4.79317071 -2.84454309  0.00000000
   7.18975606 -0.00000000  0.00000000
   2.39658535 -1.42227154  3.81393369
   4.79317071  1.42227154  3.81393369
   4.79317071 -4.26681463  3.81393369
   7.18975606 -1.42227154  3.81393369
   2.39658535  1.42227154  1.77854625
   4.79317071  4.26681463  1.77854625
   4.79317071 -1.42227154  1.77854625
   7.18975606  1.42227154  1.77854625
 


--------------------------------------------------------------------------------------------------------


 k-point   1 :   0.0000 0.0000 0.0000  plane waves:    8951
 k-point   2 :   0.1429-0.0000 0.0000  plane waves:    8950
 k-point   3 :   0.2857 0.0000 0.0000  plane waves:    8933
 k-point   4 :   0.4286 0.0000 0.0000  plane waves:    8944
 k-point   5 :   0.1429 0.1429 0.0000  plane waves:    8917
 k-point   6 :   0.2857 0.1429 0.0000  plane waves:    8930
 k-point   7 :   0.4286 0.1429 0.0000  plane waves:    8956
 k-point   8 :  -0.4286 0.1429 0.0000  plane waves:    8943
 k-point   9 :  -0.2857 0.1429 0.0000  plane waves:    8934
 k-point  10 :  -0.1429 0.1429 0.0000  plane waves:    8944
 k-point  11 :   0.2857 0.2857 0.0000  plane waves:    8950
 k-point  12 :   0.4286 0.2857 0.0000  plane waves:    8950
 k-point  13 :  -0.4286 0.2857 0.0000  plane waves:    8932
 k-point  14 :  -0.2857 0.2857 0.0000  plane waves:    8932
 k-point  15 :   0.4286 0.4286 0.0000  plane waves:    8956
 k-point  16 :  -0.4286 0.4286 0.0000  plane waves:    8942
 k-point  17 :   0.0000 0.0000 0.1111  plane waves:    8931
 k-point  18 :   0.1429-0.0000 0.1111  plane waves:    8938
 k-point  19 :   0.2857 0.0000 0.1111  plane waves:    8929
 k-point  20 :   0.4286 0.0000 0.1111  plane waves:    8943
 k-point  21 :   0.1429 0.1429 0.1111  plane waves:    8938
 k-point  22 :   0.2857 0.1429 0.1111  plane waves:    8931
 k-point  23 :   0.4286 0.1429 0.1111  plane waves:    8947
 k-point  24 :  -0.4286 0.1429 0.1111  plane waves:    8943
 k-point  25 :  -0.2857 0.1429 0.1111  plane waves:    8937
 k-point  26 :  -0.1429 0.1429 0.1111  plane waves:    8944
 k-point  27 :   0.2857 0.2857 0.1111  plane waves:    8935
 k-point  28 :   0.4286 0.2857 0.1111  plane waves:    8945
 k-point  29 :  -0.4286 0.2857 0.1111  plane waves:    8930
 k-point  30 :  -0.2857 0.2857 0.1111  plane waves:    8930
 k-point  31 :   0.4286 0.4286 0.1111  plane waves:    8946
 k-point  32 :  -0.4286 0.4286 0.1111  plane waves:    8925
 k-point  33 :   0.0000 0.0000 0.2222  plane waves:    8925
 k-point  34 :   0.1429-0.0000 0.2222  plane waves:    8934
 k-point  35 :   0.2857 0.0000 0.2222  plane waves:    8929
 k-point  36 :   0.4286 0.0000 0.2222  plane waves:    8930
 k-point  37 :   0.1429 0.1429 0.2222  plane waves:    8924
 k-point  38 :   0.2857 0.1429 0.2222  plane waves:    8930
 k-point  39 :   0.4286 0.1429 0.2222  plane waves:    8927
 k-point  40 :  -0.4286 0.1429 0.2222  plane waves:    8936
 k-point  41 :  -0.2857 0.1429 0.2222  plane waves:    8930
 k-point  42 :  -0.1429 0.1429 0.2222  plane waves:    8917
 k-point  43 :   0.2857 0.2857 0.2222  plane waves:    8920
 k-point  44 :   0.4286 0.2857 0.2222  plane waves:    8935
 k-point  45 :  -0.4286 0.2857 0.2222  plane waves:    8938
 k-point  46 :  -0.2857 0.2857 0.2222  plane waves:    8940
 k-point  47 :   0.4286 0.4286 0.2222  plane waves:    8935
 k-point  48 :  -0.4286 0.4286 0.2222  plane waves:    8952
 k-point  49 :   0.0000 0.0000 0.3333  plane waves:    8922
 k-point  50 :   0.1429-0.0000 0.3333  plane waves:    8925
 k-point  51 :   0.2857 0.0000 0.3333  plane waves:    8930
 k-point  52 :   0.4286 0.0000 0.3333  plane waves:    8929
 k-point  53 :   0.1429 0.1429 0.3333  plane waves:    8924
 k-point  54 :   0.2857 0.1429 0.3333  plane waves:    8924
 k-point  55 :   0.4286 0.1429 0.3333  plane waves:    8931
 k-point  56 :  -0.4286 0.1429 0.3333  plane waves:    8927
 k-point  57 :  -0.2857 0.1429 0.3333  plane waves:    8942
 k-point  58 :  -0.1429 0.1429 0.3333  plane waves:    8928
 k-point  59 :   0.2857 0.2857 0.3333  plane waves:    8944
 k-point  60 :   0.4286 0.2857 0.3333  plane waves:    8940
 k-point  61 :  -0.4286 0.2857 0.3333  plane waves:    8932
 k-point  62 :  -0.2857 0.2857 0.3333  plane waves:    8933
 k-point  63 :   0.4286 0.4286 0.3333  plane waves:    8937
 k-point  64 :  -0.4286 0.4286 0.3333  plane waves:    8927
 k-point  65 :   0.0000 0.0000 0.4444  plane waves:    8934
 k-point  66 :   0.1429-0.0000 0.4444  plane waves:    8935
 k-point  67 :   0.2857 0.0000 0.4444  plane waves:    8940
 k-point  68 :   0.4286 0.0000 0.4444  plane waves:    8937
 k-point  69 :   0.1429 0.1429 0.4444  plane waves:    8929
 k-point  70 :   0.2857 0.1429 0.4444  plane waves:    8934
 k-point  71 :   0.4286 0.1429 0.4444  plane waves:    8933
 k-point  72 :  -0.4286 0.1429 0.4444  plane waves:    8934
 k-point  73 :  -0.2857 0.1429 0.4444  plane waves:    8933
 k-point  74 :  -0.1429 0.1429 0.4444  plane waves:    8941
 k-point  75 :   0.2857 0.2857 0.4444  plane waves:    8945
 k-point  76 :   0.4286 0.2857 0.4444  plane waves:    8920
 k-point  77 :  -0.4286 0.2857 0.4444  plane waves:    8917
 k-point  78 :  -0.2857 0.2857 0.4444  plane waves:    8923
 k-point  79 :   0.4286 0.4286 0.4444  plane waves:    8935
 k-point  80 :  -0.4286 0.4286 0.4444  plane waves:    8934

 maximum and minimum number of plane-waves per node :      8956     8917

 maximum number of plane-waves:      8956
 maximum index in each direction: 
   IXMAX=   14   IYMAX=   14   IZMAX=   10
   IXMIN=  -14   IYMIN=  -14   IZMIN=  -11


 serial   3D FFT for wavefunctions
 parallel 3D FFT for charge:
    minimum data exchange during FFTs selected (reduces bandwidth)


 total amount of memory used by VASP MPI-rank0   185389. kBytes
=======================================================================

   base      :      30000. kBytes
   nonlr-proj:      14232. kBytes
   fftplans  :       3084. kBytes
   grid      :      19560. kBytes
   one-center:        497. kBytes
   wavefun   :     118016. kBytes
 
     INWAV:  cpu time      0.0000: real time      0.0002
 Broyden mixing: mesh for mixing (old mesh)
   NGX = 29   NGY = 29   NGZ = 21
  (NGX  =120   NGY  =120   NGZ  = 96)
  gives a total of  17661 points

 initial charge density was supplied:
 charge density of overlapping atoms calculated
 number of electron     160.0000000 magnetization      -0.0000000
 keeping initial charge density in first step


--------------------------------------------------------------------------------------------------------


 Maximum index for non-local projection operator         6983
 Maximum index for augmentation-charges         1229 (set IRDMAX)


--------------------------------------------------------------------------------------------------------


 First call to EWALD:  gamma=   0.263
 Maximum number of real-space cells 3x 3x 3
 Maximum number of reciprocal cells 3x 3x 2

    FEWALD:  cpu time      0.0015: real time      0.0016


--------------------------------------- Ionic step        1  -------------------------------------------




--------------------------------------- Iteration      1(   1)  ---------------------------------------


    POTLOK:  cpu time      0.0634: real time      0.0704
    SETDIJ:  cpu time      0.2731: real time      0.2742
     EDDAV:  cpu time     29.7286: real time     29.8744
       DOS:  cpu time      0.0027: real time      0.0028
    --------------------------------------------
      LOOP:  cpu time     30.0678: real time     30.2218

 eigenvalue-minimisations  : 34840
 total energy-change (2. order) : 0.2026880E+04  (-0.8896746E+04)
 number of electron     160.0000000 magnetization      -0.0000000
 augmentation part      160.0000000 magnetization      -0.0000000

 Free energy of the ion-electron system (eV)
  ---------------------------------------------------
  alpha Z        PSCENC =       832.62814846
  Ewald energy   TEWEN  =    -11413.97519886
  -Hartree energ DENC   =     -8976.80822238
  -exchange      EXHF   =         0.00000000
  -V(xc)+E(xc)   XCENC  =       566.13317215
  PAW double counting   =     15528.22428955   -16124.01579397
  entropy T*S    EENTRO =        -0.00899493
  eigenvalues    EBANDS =       -96.13878150
  atomic energy  EATOM  =     21710.84102437
  Solvation  Ediel_sol  =         0.00000000
  ---------------------------------------------------
  free energy    TOTEN  =      2026.87964289 eV

  energy without entropy =     2026.88863782  energy(sigma->0) =     2026.88414035


--------------------------------------------------------------------------------------------------------




--------------------------------------- Iteration      1(   2)  ---------------------------------------


     EDDAV:  cpu time     27.0120: real time     27.2270
       DOS:  cpu time      0.0022: real time      0.0022
    --------------------------------------------
      LOOP:  cpu time     27.0142: real time     27.2292

 eigenvalue-minimisations  : 32000
 total energy-change (2. order) :-0.1904682E+04  (-0.1850004E+04)
 number of electron     160.0000000 magnetization      -0.0000000
 augmentation part      160.0000000 magnetization      -0.0000000

 Free energy of the ion-electron system (eV)
  ---------------------------------------------------
  alpha Z        PSCENC =       832.62814846
  Ewald energy   TEWEN  =    -11413.97519886
  -Hartree energ DENC   =     -8976.80822238
  -exchange      EXHF   =         0.00000000
  -V(xc)+E(xc)   XCENC  =       566.13317215
  PAW double counting   =     15528.22428955   -16124.01579397
  entropy T*S    EENTRO =        -0.01518995
  eigenvalues    EBANDS =     -2000.81411877
  atomic energy  EATOM  =     21710.84102437
  Solvation  Ediel_sol  =         0.00000000
  ---------------------------------------------------
  free energy    TOTEN  =       122.19811059 eV

  energy without entropy =      122.21330055  energy(sigma->0) =      122.20570557


--------------------------------------------------------------------------------------------------------




--------------------------------------- Iteration      1(   3)  ---------------------------------------


     EDDAV:  cpu time     36.3913: real time     36.5766
       DOS:  cpu time      0.0022: real time      0.0022
    --------------------------------------------
      LOOP:  cpu time     36.3935: real time     36.5787

 eigenvalue-minimisations  : 45360
 total energy-change (2. order) :-0.2066930E+03  (-0.1840735E+03)
 number of electron     160.0000000 magnetization      -0.0000000
 augmentation part      160.0000000 magnetization      -0.0000000

 Free energy of the ion-electron system (eV)
  ---------------------------------------------------
  alpha Z        PSCENC =       832.62814846
  Ewald energy   TEWEN  =    -11413.97519886
  -Hartree energ DENC   =     -8976.80822238
  -exchange      EXHF   =         0.00000000
  -V(xc)+E(xc)   XCENC  =       566.13317215
  PAW double counting   =     15528.22428955   -16124.01579397
  entropy T*S    EENTRO =        -0.02512791
  eigenvalues    EBANDS =     -2207.49715957
  atomic energy  EATOM  =     21710.84102437
  Solvation  Ediel_sol  =         0.00000000
  ---------------------------------------------------
  free energy    TOTEN  =       -84.49486816 eV

  energy without entropy =      -84.46974026  energy(sigma->0) =      -84.48230421


--------------------------------------------------------------------------------------------------------




--------------------------------------- Iteration      1(   4)  ---------------------------------------


     EDDAV:  cpu time     36.9143: real time     37.1377
       DOS:  cpu time      0.0019: real time      0.0019
    --------------------------------------------
      LOOP:  cpu time     36.9162: real time     37.1396

 eigenvalue-minimisations  : 46860
 total energy-change (2. order) :-0.1454232E+02  (-0.1417553E+02)
 number of electron     160.0000000 magnetization      -0.0000000
 augmentation part      160.0000000 magnetization      -0.0000000

 Free energy of the ion-electron system (eV)
  ---------------------------------------------------
  alpha Z        PSCENC =       832.62814846
  Ewald energy   TEWEN  =    -11413.97519886
  -Hartree energ DENC   =     -8976.80822238
  -exchange      EXHF   =         0.00000000
  -V(xc)+E(xc)   XCENC  =       566.13317215
  PAW double counting   =     15528.22428955   -16124.01579397
  entropy T*S    EENTRO =        -0.02830360
  eigenvalues    EBANDS =     -2222.03630434
  atomic energy  EATOM  =     21710.84102437
  Solvation  Ediel_sol  =         0.00000000
  ---------------------------------------------------
  free energy    TOTEN  =       -99.03718862 eV

  energy without entropy =      -99.00888502  energy(sigma->0) =      -99.02303682


--------------------------------------------------------------------------------------------------------




--------------------------------------- Iteration      1(   5)  ---------------------------------------


     EDDAV:  cpu time     35.4121: real time     35.5976
       DOS:  cpu time      0.0022: real time      0.0022
    CHARGE:  cpu time      1.0458: real time      1.0518
    MIXING:  cpu time      0.0016: real time      0.0016
    --------------------------------------------
      LOOP:  cpu time     36.4617: real time     36.6532

 eigenvalue-minimisations  : 44320
 total energy-change (2. order) :-0.3447325E+00  (-0.3438460E+00)
 number of electron     160.0000007 magnetization       0.0000000
 augmentation part       53.1997612 magnetization       0.0000000

 Broyden mixing:
  rms(total) = 0.27144E+01    rms(broyden)= 0.27140E+01
  rms(prec ) = 0.42648E+01
  weight for this iteration     100.00

 Free energy of the ion-electron system (eV)
  ---------------------------------------------------
  alpha Z        PSCENC =       832.62814846
  Ewald energy   TEWEN  =    -11413.97519886
  -Hartree energ DENC   =     -8976.80822238
  -exchange      EXHF   =         0.00000000
  -V(xc)+E(xc)   XCENC  =       566.13317215
  PAW double counting   =     15528.22428955   -16124.01579397
  entropy T*S    EENTRO =        -0.02827346
  eigenvalues    EBANDS =     -2222.38106695
  atomic energy  EATOM  =     21710.84102437
  Solvation  Ediel_sol  =         0.00000000
  ---------------------------------------------------
  free energy    TOTEN  =       -99.38192109 eV

  energy without entropy =      -99.35364763  energy(sigma->0) =      -99.36778436


--------------------------------------------------------------------------------------------------------




--------------------------------------- Iteration      1(   6)  ---------------------------------------


    POTLOK:  cpu time      0.0559: real time      0.0968
    SETDIJ:  cpu time      0.2666: real time      0.2677
    EDDIAG:  cpu time      4.4786: real time      4.5005
  RMM-DIIS:  cpu time     17.2663: real time     17.3494
    ORTHCH:  cpu time      0.5567: real time      0.5589
       DOS:  cpu time      0.0021: real time      0.0021
    CHARGE:  cpu time      1.0787: real time      1.0850
    MIXING:  cpu time      0.0017: real time      0.0017
    --------------------------------------------
      LOOP:  cpu time     23.7066: real time     23.8621

 eigenvalue-minimisations  : 32053
 total energy-change (2. order) :-0.1267010E+02  (-0.1647949E+02)
 number of electron     160.0000008 magnetization       0.0000000
 augmentation part       69.7203546 magnetization       0.0000000

 Broyden mixing:
  rms(total) = 0.50182E+01    rms(broyden)= 0.50181E+01
  rms(prec ) = 0.80729E+01
  weight for this iteration     100.00

 eigenvalues of (default mixing * dielectric matrix)
  average eigenvalue GAMMA=   0.3041
  0.3041

 Free energy of the ion-electron system (eV)
  ---------------------------------------------------
  alpha Z        PSCENC =       832.62814846
  Ewald energy   TEWEN  =    -11413.97519886
  -Hartree energ DENC   =     -8525.99261600
  -exchange      EXHF   =         0.00000000
  -V(xc)+E(xc)   XCENC  =       554.09758552
  PAW double counting   =     15013.90272845   -15578.41986064
  entropy T*S    EENTRO =        -0.02781716
  eigenvalues    EBANDS =     -2705.10601901
  atomic energy  EATOM  =     21710.84102437
  Solvation  Ediel_sol  =         0.00000000
  ---------------------------------------------------
  free energy    TOTEN  =      -112.05202487 eV

  energy without entropy =     -112.02420772  energy(sigma->0) =     -112.03811630


--------------------------------------------------------------------------------------------------------




--------------------------------------- Iteration      1(   7)  ---------------------------------------


    POTLOK:  cpu time      0.0725: real time      0.1015
    SETDIJ:  cpu time      0.2673: real time      0.2684
    EDDIAG:  cpu time      4.4829: real time      4.5051
  RMM-DIIS:  cpu time     17.0415: real time     17.1215
    ORTHCH:  cpu time      0.5749: real time      0.5773
       DOS:  cpu time      0.0022: real time      0.0022
    CHARGE:  cpu time      1.0565: real time      1.0614
    MIXING:  cpu time      0.0016: real time      0.0016
    --------------------------------------------
      LOOP:  cpu time     23.4994: real time     23.6390

 eigenvalue-minimisations  : 32014
 total energy-change (2. order) : 0.2122453E+02  (-0.4163760E+01)
 number of electron     160.0000009 magnetization       0.0000000
 augmentation part       57.9928099 magnetization       0.0000000

 Broyden mixing:
  rms(total) = 0.10174E+01    rms(broyden)= 0.10168E+01
  rms(prec ) = 0.12152E+01
  weight for this iteration     100.00

 eigenvalues of (default mixing * dielectric matrix)
  average eigenvalue GAMMA=   0.4496
  0.6260  0.2732

 Free energy of the ion-electron system (eV)
  ---------------------------------------------------
  alpha Z        PSCENC =       832.62814846
  Ewald energy   TEWEN  =    -11413.97519886
  -Hartree energ DENC   =     -8802.21993695
  -exchange      EXHF   =         0.00000000
  -V(xc)+E(xc)   XCENC  =       559.19502501
  PAW double counting   =     15500.34545731   -16097.47226556
  entropy T*S    EENTRO =        -0.03241350
  eigenvalues    EBANDS =     -2380.13733826
  atomic energy  EATOM  =     21710.84102437
  Solvation  Ediel_sol  =         0.00000000
  ---------------------------------------------------
  free energy    TOTEN  =       -90.82749798 eV

  energy without entropy =      -90.79508448  energy(sigma->0) =      -90.81129123


--------------------------------------------------------------------------------------------------------




--------------------------------------- Iteration      1(   8)  ---------------------------------------


    POTLOK:  cpu time      0.0532: real time      0.0537
    SETDIJ:  cpu time      0.2706: real time      0.2715
    EDDIAG:  cpu time      4.5072: real time      4.5286
  RMM-DIIS:  cpu time     22.0617: real time     22.1653
    ORTHCH:  cpu time      0.5806: real time      0.5830
       DOS:  cpu time      0.0021: real time      0.0021
    CHARGE:  cpu time      1.0779: real time      1.0836
    MIXING:  cpu time      0.0025: real time      0.0025
    --------------------------------------------
      LOOP:  cpu time     28.5557: real time     28.6903

 eigenvalue-minimisations  : 41092
 total energy-change (2. order) :-0.5381214E+00  (-0.2981139E+00)
 number of electron     160.0000009 magnetization       0.0000000
 augmentation part       58.4640798 magnetization       0.0000000

 Broyden mixing:
  rms(total) = 0.45888E+00    rms(broyden)= 0.45862E+00
  rms(prec ) = 0.60350E+00
  weight for this iteration     100.00

 eigenvalues of (default mixing * dielectric matrix)
  average eigenvalue GAMMA=   0.6753
  0.3135  0.8562  0.8562

 Free energy of the ion-electron system (eV)
  ---------------------------------------------------
  alpha Z        PSCENC =       832.62814846
  Ewald energy   TEWEN  =    -11413.97519886
  -Hartree energ DENC   =     -8791.25780295
  -exchange      EXHF   =         0.00000000
  -V(xc)+E(xc)   XCENC  =       559.59511528
  PAW double counting   =     15564.53361184   -16168.65183013
  entropy T*S    EENTRO =        -0.02593657
  eigenvalues    EBANDS =     -2385.05275079
  atomic energy  EATOM  =     21710.84102437
  Solvation  Ediel_sol  =         0.00000000
  ---------------------------------------------------
  free energy    TOTEN  =       -91.36561935 eV

  energy without entropy =      -91.33968278  energy(sigma->0) =      -91.35265106


--------------------------------------------------------------------------------------------------------




--------------------------------------- Iteration      1(   9)  ---------------------------------------


    POTLOK:  cpu time      0.0642: real time      0.1020
    SETDIJ:  cpu time      0.2660: real time      0.2669
    EDDIAG:  cpu time      4.5664: real time      4.5888
  RMM-DIIS:  cpu time     22.5051: real time     22.6177
    ORTHCH:  cpu time      0.5721: real time      0.5745
       DOS:  cpu time      0.0021: real time      0.0021
    CHARGE:  cpu time      1.0714: real time      1.0769
    MIXING:  cpu time      0.0017: real time      0.0017
    --------------------------------------------
      LOOP:  cpu time     29.0489: real time     29.2307

 eigenvalue-minimisations  : 45111
 total energy-change (2. order) :-0.6888389E-01  (-0.8176460E-01)
 number of electron     160.0000009 magnetization       0.0000000
 augmentation part       58.8016399 magnetization       0.0000000

 Broyden mixing:
  rms(total) = 0.24648E+00    rms(broyden)= 0.24615E+00
  rms(prec ) = 0.30180E+00
  weight for this iteration     100.00

 eigenvalues of (default mixing * dielectric matrix)
  average eigenvalue GAMMA=   0.9056
  0.3099  1.2926  1.2926  0.7272

 Free energy of the ion-electron system (eV)
  ---------------------------------------------------
  alpha Z        PSCENC =       832.62814846
  Ewald energy   TEWEN  =    -11413.97519886
  -Hartree energ DENC   =     -8776.95600213
  -exchange      EXHF   =         0.00000000
  -V(xc)+E(xc)   XCENC  =       559.76193344
  PAW double counting   =     15658.42760209   -16268.99875093
  entropy T*S    EENTRO =        -0.01880718
  eigenvalues    EBANDS =     -2393.14445250
  atomic energy  EATOM  =     21710.84102437
  Solvation  Ediel_sol  =         0.00000000
  ---------------------------------------------------
  free energy    TOTEN  =       -91.43450324 eV

  energy without entropy =      -91.41569606  energy(sigma->0) =      -91.42509965


--------------------------------------------------------------------------------------------------------




--------------------------------------- Iteration      1(  10)  ---------------------------------------


    POTLOK:  cpu time      0.0751: real time      0.0832
    SETDIJ:  cpu time      0.2665: real time      0.2675
    EDDIAG:  cpu time      4.4524: real time      4.4741
  RMM-DIIS:  cpu time     24.9506: real time     25.0719
    ORTHCH:  cpu time      0.5768: real time      0.5790
       DOS:  cpu time      0.0021: real time      0.0021
    CHARGE:  cpu time      1.0749: real time      1.0802
    MIXING:  cpu time      0.0020: real time      0.0020
    --------------------------------------------
      LOOP:  cpu time     31.4004: real time     31.5600

 eigenvalue-minimisations  : 45854
 total energy-change (2. order) :-0.5897731E-02  (-0.2421074E-01)
 number of electron     160.0000009 magnetization       0.0000000
 augmentation part       58.9815750 magnetization       0.0000000

 Broyden mixing:
  rms(total) = 0.10829E+00    rms(broyden)= 0.10810E+00
  rms(prec ) = 0.12216E+00
  weight for this iteration     100.00

 eigenvalues of (default mixing * dielectric matrix)
  average eigenvalue GAMMA=   1.0541
  2.2072  0.3099  1.0256  1.0256  0.7024

 Free energy of the ion-electron system (eV)
  ---------------------------------------------------
  alpha Z        PSCENC =       832.62814846
  Ewald energy   TEWEN  =    -11413.97519886
  -Hartree energ DENC   =     -8769.64482193
  -exchange      EXHF   =         0.00000000
  -V(xc)+E(xc)   XCENC  =       559.82022784
  PAW double counting   =     15734.27708724   -16349.35917258
  entropy T*S    EENTRO =        -0.01726398
  eigenvalues    EBANDS =     -2396.01043152
  atomic energy  EATOM  =     21710.84102437
  Solvation  Ediel_sol  =         0.00000000
  ---------------------------------------------------
  free energy    TOTEN  =       -91.44040097 eV

  energy without entropy =      -91.42313698  energy(sigma->0) =      -91.43176897


--------------------------------------------------------------------------------------------------------




--------------------------------------- Iteration      1(  11)  ---------------------------------------


    POTLOK:  cpu time      0.0654: real time      0.0984
    SETDIJ:  cpu time      0.2671: real time      0.2682
    EDDIAG:  cpu time      4.5591: real time      4.5808
  RMM-DIIS:  cpu time     22.8489: real time     22.9611
    ORTHCH:  cpu time      0.5716: real time      0.5741
       DOS:  cpu time      0.0022: real time      0.0022
    CHARGE:  cpu time      1.0701: real time      1.0754
    MIXING:  cpu time      0.0019: real time      0.0019
    --------------------------------------------
      LOOP:  cpu time     29.3862: real time     29.5620

 eigenvalue-minimisations  : 43144
 total energy-change (2. order) :-0.7655567E-02  (-0.4761696E-02)
 number of electron     160.0000009 magnetization       0.0000000
 augmentation part       58.9741397 magnetization       0.0000000

 Broyden mixing:
  rms(total) = 0.39179E-01    rms(broyden)= 0.39154E-01
  rms(prec ) = 0.41869E-01
  weight for this iteration     100.00

 eigenvalues of (default mixing * dielectric matrix)
  average eigenvalue GAMMA=   1.0942
  1.8804  1.8804  0.3099  0.9512  0.8829  0.6601

 Free energy of the ion-electron system (eV)
  ---------------------------------------------------
  alpha Z        PSCENC =       832.62814846
  Ewald energy   TEWEN  =    -11413.97519886
  -Hartree energ DENC   =     -8767.91458854
  -exchange      EXHF   =         0.00000000
  -V(xc)+E(xc)   XCENC  =       559.90565885
  PAW double counting   =     15777.79496584   -16394.94887045
  entropy T*S    EENTRO =        -0.01741016
  eigenvalues    EBANDS =     -2395.76178604
  atomic energy  EATOM  =     21710.84102437
  Solvation  Ediel_sol  =         0.00000000
  ---------------------------------------------------
  free energy    TOTEN  =       -91.44805653 eV

  energy without entropy =      -91.43064637  energy(sigma->0) =      -91.43935145


--------------------------------------------------------------------------------------------------------




--------------------------------------- Iteration      1(  12)  ---------------------------------------


    POTLOK:  cpu time      0.0890: real time      0.0985
    SETDIJ:  cpu time      0.2666: real time      0.2675
    EDDIAG:  cpu time      4.4288: real time      4.4507
  RMM-DIIS:  cpu time     22.9298: real time     23.0413
    ORTHCH:  cpu time      0.5717: real time      0.5741
       DOS:  cpu time      0.0022: real time      0.0022
    CHARGE:  cpu time      1.0796: real time      1.0853
    MIXING:  cpu time      0.0021: real time      0.0021
    --------------------------------------------
      LOOP:  cpu time     29.3698: real time     29.5215

 eigenvalue-minimisations  : 42921
 total energy-change (2. order) :-0.4508588E-02  (-0.1152203E-02)
 number of electron     160.0000009 magnetization       0.0000000
 augmentation part       58.9766499 magnetization       0.0000000

 Broyden mixing:
  rms(total) = 0.21577E-01    rms(broyden)= 0.21556E-01
  rms(prec ) = 0.25438E-01
  weight for this iteration     100.00

 eigenvalues of (default mixing * dielectric matrix)
  average eigenvalue GAMMA=   1.0865
  2.3792  0.3099  1.3152  1.0969  1.0969  0.7614  0.6459

 Free energy of the ion-electron system (eV)
  ---------------------------------------------------
  alpha Z        PSCENC =       832.62814846
  Ewald energy   TEWEN  =    -11413.97519886
  -Hartree energ DENC   =     -8768.24351010
  -exchange      EXHF   =         0.00000000
  -V(xc)+E(xc)   XCENC  =       559.91720018
  PAW double counting   =     15779.45561973   -16396.50821198
  entropy T*S    EENTRO =        -0.01772122
  eigenvalues    EBANDS =     -2395.54991570
  atomic energy  EATOM  =     21710.84102437
  Solvation  Ediel_sol  =         0.00000000
  ---------------------------------------------------
  free energy    TOTEN  =       -91.45256512 eV

  energy without entropy =      -91.43484390  energy(sigma->0) =      -91.44370451


--------------------------------------------------------------------------------------------------------




--------------------------------------- Iteration      1(  13)  ---------------------------------------


    POTLOK:  cpu time      0.0554: real time      0.0654
    SETDIJ:  cpu time      0.2678: real time      0.2688
    EDDIAG:  cpu time      4.5669: real time      4.5886
  RMM-DIIS:  cpu time     17.8220: real time     17.9102
    ORTHCH:  cpu time      0.5792: real time      0.5817
       DOS:  cpu time      0.0021: real time      0.0021
    CHARGE:  cpu time      1.0749: real time      1.0802
    MIXING:  cpu time      0.0018: real time      0.0018
    --------------------------------------------
      LOOP:  cpu time     24.3701: real time     24.4989

 eigenvalue-minimisations  : 32271
 total energy-change (2. order) : 0.7817457E-04  (-0.2498969E-03)
 number of electron     160.0000009 magnetization      -0.0000000
 augmentation part       58.9765043 magnetization      -0.0000000

 Broyden mixing:
  rms(total) = 0.10957E-01    rms(broyden)= 0.10946E-01
  rms(prec ) = 0.13098E-01
  weight for this iteration     100.00

 eigenvalues of (default mixing * dielectric matrix)
  average eigenvalue GAMMA=   1.1246
  2.6025  1.2920  1.2920  1.2938  0.3099  0.8301  0.7360  0.6407

 Free energy of the ion-electron system (eV)
  ---------------------------------------------------
  alpha Z        PSCENC =       832.62814846
  Ewald energy   TEWEN  =    -11413.97519886
  -Hartree energ DENC   =     -8768.43747920
  -exchange      EXHF   =         0.00000000
  -V(xc)+E(xc)   XCENC  =       559.94273760
  PAW double counting   =     15781.11266995   -16398.11130845
  entropy T*S    EENTRO =        -0.01767257
  eigenvalues    EBANDS =     -2395.43540825
  atomic energy  EATOM  =     21710.84102437
  Solvation  Ediel_sol  =         0.00000000
  ---------------------------------------------------
  free energy    TOTEN  =       -91.45248695 eV

  energy without entropy =      -91.43481438  energy(sigma->0) =      -91.44365066


--------------------------------------------------------------------------------------------------------




--------------------------------------- Iteration      1(  14)  ---------------------------------------


    POTLOK:  cpu time      0.0559: real time      0.0872
    SETDIJ:  cpu time      0.2668: real time      0.2678
    EDDIAG:  cpu time      4.4841: real time      4.5042
  RMM-DIIS:  cpu time     11.9755: real time     12.0359
    ORTHCH:  cpu time      0.5588: real time      0.5609
       DOS:  cpu time      0.0021: real time      0.0021
    --------------------------------------------
      LOOP:  cpu time     17.3431: real time     17.4581

 eigenvalue-minimisations  : 22776
 total energy-change (2. order) :-0.3930580E-04  (-0.8144157E-04)
 number of electron     160.0000009 magnetization      -0.0000000
 augmentation part       58.9765043 magnetization      -0.0000000

 Free energy of the ion-electron system (eV)
  ---------------------------------------------------
  alpha Z        PSCENC =       832.62814846
  Ewald energy   TEWEN  =    -11413.97519886
  -Hartree energ DENC   =     -8768.46165357
  -exchange      EXHF   =         0.00000000
  -V(xc)+E(xc)   XCENC  =       559.95504457
  PAW double counting   =     15782.78382213   -16399.73931504
  entropy T*S    EENTRO =        -0.01759135
  eigenvalues    EBANDS =     -2395.46680696
  atomic energy  EATOM  =     21710.84102437
  Solvation  Ediel_sol  =         0.00000000
  ---------------------------------------------------
  free energy    TOTEN  =       -91.45252625 eV

  energy without entropy =      -91.43493490  energy(sigma->0) =      -91.44373057


--------------------------------------------------------------------------------------------------------




 average (electrostatic) potential at core
  the test charge radii are     0.9500  1.0808
  (the norm of the test charge is              1.0000)
       1 -47.1581       2 -47.1581       3 -47.1581       4 -47.1581       5 -47.1581
       6 -47.1581       7 -47.1581       8 -47.1581       9 -54.7979      10 -54.7979
      11 -54.7979      12 -54.7979      13 -54.7979      14 -54.7979      15 -54.7979
      16 -54.7979
 
 
 
 E-fermi :   3.9892     XC(G=0): -10.5439     alpha+bet : -9.5401

 Fermi energy:         3.9892408762

 spin component 1

 k-point     1 :       0.0000    0.0000    0.0000
  band No.  band energies     occupation 
      1     -50.7509      1.00000
      2     -50.7415      1.00000
      3     -50.7415      1.00000
      4     -50.7356      1.00000
      5     -50.6446      1.00000
      6     -50.5794      1.00000
      7     -50.5731      1.00000
      8     -50.5731      1.00000
      9     -50.5639      1.00000
     10     -50.4696      1.00000
     11     -50.4696      1.00000
     12     -50.2916      1.00000
     13     -48.0008      1.00000
     14     -47.9985      1.00000
     15     -47.9985      1.00000
     16     -47.9979      1.00000
     17     -47.9759      1.00000
     18     -47.7826      1.00000
     19     -47.7826      1.00000
     20     -47.6362      1.00000
     21     -47.6362      1.00000
     22     -47.6361      1.00000
     23     -47.6335      1.00000
     24     -47.5856      1.00000
     25     -10.4406      1.00000
     26      -9.2310      1.00000
     27      -9.2310      1.00000
     28      -9.2155      1.00000
     29      -9.2155      1.00000
     30      -8.9556      1.00000
     31      -8.7447      1.00000
     32      -8.5902      1.00000
     33      -2.2303      1.00000
     34      -1.9392      1.00000
     35      -0.9751      1.00000
     36      -0.9751      1.00000
     37      -0.9340      1.00000
     38      -0.9340      1.00000
     39      -0.5293      1.00000
     40      -0.5235      1.00000
     41      -0.3153      1.00000
     42      -0.1720      1.00000
     43      -0.1720      1.00000
     44      -0.0744      1.00000
     45      -0.0475      1.00000
     46      -0.0475      1.00000
     47      -0.0398      1.00000
     48       0.2051      1.00000
     49       0.4904      1.00000
     50       0.5218      1.00000
     51       0.5218      1.00000
     52       0.9406      1.00000
     53       0.9406      1.00000
     54       1.1971      1.00000
     55       1.2142      1.00000
     56       1.3349      1.00000
     57       1.5791      1.00000
     58       1.5791      1.00000
     59       1.6482      1.00000
     60       1.6482      1.00000
     61       1.7000      1.00000
     62       1.7685      1.00000
     63       1.9229      1.00000
     64       1.9528      1.00000
     65       2.1856      1.00000
     66       2.1856      1.00000
     67       2.2208      1.00000
     68       2.3653      1.00000
     69       2.4195      1.00000
     70       2.5432      1.00000
     71       2.5432      1.00000
     72       2.6962      1.00000
     73       3.2406      1.00000
     74       3.2406      1.00000
     75       3.2672      1.00000
     76       3.3131      1.00000
     77       3.3131      1.00000
     78       3.7334      1.00000
     79       3.7514      1.00000
     80       3.7878      1.00000
     81       3.9275      0.95954
     82       4.4436      0.00000
     83       4.4436      0.00000
     84       4.4994      0.00000
     85       4.4995      0.00000
     86       4.5398      0.00000
     87       4.6239      0.00000
     88       4.8371      0.00000
     89       4.8373      0.00000
     90       4.8471      0.00000
     91       4.8472      0.00000
     92       4.9864      0.00000
     93       5.4069      0.00000
[...]
         0         1         2         3         4         5         6         7         8         9
 total charge-density along one line
 
 soft charge-density along one line, spin component           2
         0         1         2         3         4         5         6         7         8         9
 total charge-density along one line
 
 pseudopotential strength for first ion, spin component:           1
-55.013   0.039  -0.000  28.228  -0.032   0.000   0.000   0.000
  0.039 -55.078  -0.000  -0.032  28.276   0.000  -0.000   0.000
 -0.000  -0.000 -54.906   0.000   0.000  28.143   0.000  -0.000
 28.228  -0.032   0.000 -10.034   0.023  -0.000  -0.000  -0.000
 -0.032  28.276   0.000   0.023 -10.067  -0.000   0.000  -0.000
  0.000   0.000  28.143  -0.000  -0.000  -9.978  -0.000   0.000
  0.000  -0.000   0.000  -0.000   0.000  -0.000  -8.758  -0.000
  0.000   0.000  -0.000  -0.000  -0.000   0.000  -0.000  -8.564
 -0.000   0.000  -0.000   0.000  -0.000   0.000   0.000  -0.028
 -0.000   0.000   0.000   0.000  -0.000  -0.000  -0.037  -0.000
 -0.000  -0.000   0.000   0.000   0.000  -0.000  -0.000  -0.098
 -0.000   0.000  -0.000   0.000  -0.000   0.000  -0.099   0.000
 -0.000  -0.000   0.000   0.000   0.000  -0.000   0.000  -0.146
  0.000  -0.000   0.000  -0.000   0.000  -0.000  -0.000   0.007
  0.000  -0.000  -0.000  -0.000   0.000   0.000   0.008   0.000
  0.000   0.000  -0.000  -0.000  -0.000   0.000   0.000   0.023
 -0.000  -0.000  -0.000   0.000   0.000   0.000   0.000  -0.010
  0.000   0.000   0.000  -0.000  -0.000  -0.000  -0.000   0.002
 pseudopotential strength for first ion, spin component:           2
-52.869   0.102  -0.000  26.588  -0.073   0.000   0.000   0.000
  0.102 -52.889  -0.000  -0.073  26.602   0.000  -0.000   0.000
 -0.000  -0.000 -52.848   0.000   0.000  26.565   0.000  -0.000
 26.588  -0.073   0.000  -8.875   0.054  -0.000  -0.000  -0.000
 -0.073  26.602   0.000   0.054  -8.885  -0.000   0.000  -0.000
  0.000   0.000  26.565  -0.000  -0.000  -8.861  -0.000   0.000
  0.000  -0.000   0.000  -0.000   0.000  -0.000  -6.639  -0.000
  0.000   0.000  -0.000  -0.000  -0.000   0.000  -0.000  -7.009
 -0.000   0.000  -0.000   0.000  -0.000   0.000   0.000   0.097
 -0.000   0.000   0.000   0.000  -0.000  -0.000   0.115  -0.000
 -0.000  -0.000   0.000   0.000   0.000  -0.000  -0.000   0.019
 -0.000   0.000  -0.000   0.000  -0.000   0.000  -0.594   0.000
 -0.000  -0.000   0.000   0.000   0.000  -0.000   0.000  -0.508
  0.000  -0.000   0.000  -0.000   0.000  -0.000  -0.000  -0.021
  0.000  -0.000  -0.000  -0.000   0.000   0.000  -0.025   0.000
  0.000   0.000  -0.000  -0.000  -0.000   0.000   0.000  -0.006
 -0.000  -0.000  -0.000   0.000   0.000   0.000   0.000  -0.012
  0.000   0.000   0.000  -0.000  -0.000  -0.000  -0.000   0.003
 total augmentation occupancy for first ion, spin component:           1
  2.010  -0.019   0.000   0.056  -0.045   0.000   0.000   0.000   0.000   0.000   0.000   0.000   0.000   0.000   0.000   0.000
 -0.019   2.013   0.000  -0.045   0.065   0.000  -0.000   0.000   0.000   0.000  -0.000  -0.000   0.000   0.000   0.000   0.000
 -0.000  -0.000   2.009   0.000   0.000   0.052  -0.000  -0.000   0.000  -0.000   0.000   0.000  -0.000  -0.000   0.000   0.000
  0.056  -0.045   0.000   0.194  -0.109   0.000  -0.000   0.000   0.000  -0.000  -0.000  -0.000   0.000  -0.000  -0.000   0.000
 -0.045   0.065   0.000  -0.109   0.216  -0.000   0.000  -0.000   0.000   0.000   0.000  -0.000   0.000  -0.000   0.000  -0.000
  0.000  -0.000   0.052   0.000   0.000   0.177   0.000   0.000   0.000  -0.000  -0.000   0.000   0.000  -0.000   0.000  -0.000
  0.000  -0.000  -0.000  -0.000   0.000  -0.000   1.249  -0.000   0.000  -0.099   0.000  -0.071   0.000   0.000  -0.057  -0.000
  0.000  -0.000  -0.000   0.000  -0.000   0.000   0.000   1.467  -0.011  -0.000  -0.094  -0.000   0.089  -0.142  -0.000   0.097
 -0.000   0.000   0.000  -0.000   0.000   0.000   0.000  -0.011   1.298  -0.000  -0.155   0.000  -0.144   0.058   0.000  -0.085
  0.000   0.000   0.000  -0.000   0.000  -0.000  -0.099  -0.000  -0.000   1.242   0.000  -0.058  -0.000   0.000  -0.046   0.000
  0.000   0.000   0.000  -0.000   0.000  -0.000  -0.000  -0.094  -0.155  -0.000   1.505   0.000   0.101  -0.083  -0.000   0.150
  0.000  -0.000   0.000  -0.000  -0.000   0.000  -0.071  -0.000   0.000  -0.058   0.000   0.164  -0.000  -0.000  -0.026  -0.000
 -0.000  -0.000  -0.000  -0.000  -0.000   0.000  -0.000   0.089  -0.144  -0.000   0.101  -0.000   0.247  -0.071   0.000   0.090
  0.000   0.000  -0.000   0.000   0.000  -0.000   0.000  -0.142   0.058   0.000  -0.083  -0.000  -0.071   0.169   0.000  -0.012
  0.000   0.000   0.000  -0.000   0.000  -0.000  -0.057  -0.000  -0.000  -0.046   0.000  -0.026   0.000  -0.000   0.159  -0.000
 -0.000  -0.000   0.000  -0.000  -0.000  -0.000   0.000   0.097  -0.085   0.000   0.150   0.000   0.090  -0.012  -0.000   0.139
 -0.000   0.000   0.000   0.000   0.000   0.000  -0.000  -0.009  -0.038   0.000   0.091   0.000  -0.324   0.030   0.000  -0.007
  0.000   0.000   0.000   0.000   0.000   0.000  -0.000   0.005   0.023  -0.000  -0.018  -0.000   0.021  -0.005   0.000   0.003
 total augmentation occupancy for first ion, spin component:           2
 -0.006   0.000   0.000  -0.002  -0.000   0.000   0.000   0.000   0.000   0.000   0.000   0.000  -0.000   0.000  -0.000  -0.000
  0.000  -0.008  -0.000  -0.000  -0.008   0.000   0.000   0.000   0.000  -0.000  -0.000  -0.000   0.000   0.000   0.000   0.000
 -0.000  -0.000  -0.007  -0.000   0.000  -0.005  -0.000  -0.000   0.000  -0.000   0.000  -0.000   0.000   0.000  -0.000  -0.000
 -0.002  -0.000  -0.000   0.014  -0.002  -0.000   0.000  -0.000   0.000   0.000  -0.000  -0.000  -0.000   0.000  -0.000   0.000
 -0.000  -0.008   0.000  -0.002   0.002   0.000  -0.000  -0.000  -0.000   0.000  -0.000   0.000   0.000   0.000  -0.000   0.000
  0.000   0.000  -0.005   0.000   0.000   0.011   0.000  -0.000  -0.000  -0.000   0.000   0.000   0.000   0.000   0.000  -0.000
  0.000   0.000   0.000   0.000  -0.000   0.000   0.704  -0.000   0.000   0.118  -0.000  -0.271  -0.000   0.000   0.006  -0.000
  0.000   0.000  -0.000  -0.000  -0.000  -0.000  -0.000   0.378   0.102  -0.000   0.044   0.000  -0.198  -0.006   0.000  -0.031
  0.000   0.000   0.000   0.000   0.000  -0.000  -0.000   0.102   0.547  -0.000   0.199   0.000  -0.006  -0.217   0.000  -0.027
  0.000  -0.000   0.000   0.000   0.000   0.000   0.118   0.000   0.000   0.684   0.000   0.008   0.000  -0.000  -0.267  -0.000
  0.000   0.000   0.000   0.000  -0.000   0.000  -0.000   0.044   0.199   0.000   0.253   0.000  -0.017  -0.022  -0.000  -0.153
  0.000  -0.000   0.000  -0.000   0.000   0.000  -0.271  -0.000  -0.000   0.008   0.000   0.054   0.000   0.000   0.006  -0.000
 -0.000   0.000   0.000   0.000  -0.000   0.000  -0.000  -0.198  -0.006   0.000  -0.017  -0.000   0.008   0.024   0.000  -0.002
 -0.000   0.000   0.000  -0.000   0.000   0.000  -0.000  -0.006  -0.217   0.000  -0.022   0.000   0.024   0.013  -0.000   0.010
 -0.000   0.000   0.000  -0.000  -0.000  -0.000   0.006   0.000   0.000  -0.267   0.000   0.006  -0.000  -0.000   0.039  -0.000
 -0.000   0.000  -0.000   0.000   0.000  -0.000   0.000  -0.031  -0.027   0.000  -0.153  -0.000  -0.002   0.010  -0.000  -0.013
  0.000   0.000   0.000  -0.000  -0.000   0.000   0.000   0.124   0.024   0.000  -0.049   0.000  -0.034   0.004  -0.000  -0.026
 -0.000   0.000  -0.000  -0.000  -0.000  -0.000   0.000   0.016   0.019   0.000  -0.020   0.000  -0.003  -0.003   0.000   0.000


------------------------ aborting loop because EDIFF is reached ----------------------------------------





 total charge

# of ion       s       p       d       tot
------------------------------------------
    1        0.343   6.296   6.075  12.714
    2        0.343   6.296   6.075  12.714
    3        0.343   6.296   6.075  12.714
    4        0.343   6.296   6.075  12.714
    5        0.343   6.296   6.075  12.714
    6        0.343   6.296   6.075  12.714
    7        0.343   6.296   6.075  12.714
    8        0.343   6.296   6.075  12.714
    9        1.490   2.260   0.055   3.806
   10        1.490   2.260   0.055   3.806
   11        1.490   2.260   0.055   3.806
   12        1.490   2.260   0.055   3.806
   13        1.490   2.260   0.055   3.806
   14        1.490   2.260   0.055   3.806
   15        1.490   2.260   0.055   3.806
   16        1.490   2.260   0.055   3.806
--------------------------------------------------
tot         14.665  68.445  49.045 132.155



 magnetization (x)

# of ion       s       p       d       tot
------------------------------------------
    1        0.028   0.013   2.501   2.542
    2       -0.028  -0.013  -2.501  -2.542
    3       -0.028  -0.013  -2.501  -2.542
    4        0.028   0.013   2.501   2.542
    5        0.028   0.013   2.501   2.542
    6       -0.028  -0.013  -2.501  -2.542
    7       -0.028  -0.013  -2.501  -2.542
    8        0.028   0.013   2.501   2.542
    9        0.000   0.000   0.000   0.000
   10        0.000   0.000   0.000   0.000
   11        0.000   0.000   0.000   0.000
   12        0.000   0.000   0.000   0.000
   13        0.000   0.000   0.000   0.000
   14        0.000   0.000   0.000   0.000
   15        0.000   0.000   0.000   0.000
   16        0.000   0.000   0.000   0.000
--------------------------------------------------
tot          0.000   0.000   0.000   0.000
 
    CHARGE:  cpu time      1.0472: real time      1.0516
    FORLOC:  cpu time      0.0030: real time      0.0030
    FORNL :  cpu time      7.0423: real time      7.0692
    STRESS:  cpu time     20.5542: real time     20.6360
    FORCOR:  cpu time      0.0487: real time      0.0488
    FORHAR:  cpu time      0.0066: real time      0.0067
    MIXING:  cpu time      0.0014: real time      0.0014
    OFIELD:  cpu time      0.0000: real time      0.0000
    FORVDW:  cpu time      0.7714: real time      0.7736

  FORCE on cell =-STRESS in cart. coord.  units (eV):
  Direction    XX          YY          ZZ          XY          YZ          ZX
  --------------------------------------------------------------------------------------
  Alpha Z   832.62815   832.62815   832.62815
  Ewald   -1212.53589 -2023.92746 -8268.74654     0.00000     0.00000     0.00000
  Hartree  5288.25290  4544.78059 -1150.81056     0.00000     0.00000    -0.00000
  E(xc)    -896.94389  -899.14895  -898.25394    -0.00000     0.00000    -0.00000
  Local   -5962.09274 -4413.51601  7553.18438     0.00000     0.00000    -0.00000
  n-local  -276.32809  -248.58249  -240.97762    -0.80552    -0.30665    -0.80057
  augment   530.38411   515.76650   513.12541    -0.00000     0.00000     0.00000
  Kinetic  1702.52957  1697.96627  1665.80714     3.74715    -0.33344     0.33172
  Fock        0.00000     0.00000     0.00000     0.00000     0.00000     0.00000
  vdW        -6.39032    -6.44809    -6.69641     0.00000     0.00000    -0.00000
  -------------------------------------------------------------------------------------
  Total      -0.49620    -0.48150    -0.74000     0.00000     0.00000     0.00000
  in kB      -2.60655    -2.52933    -3.88723     0.00000     0.00000     0.00000
  external pressure =       -3.01 kB  Pullay stress =        0.00 kB


 VOLUME and BASIS-vectors are now :
 -----------------------------------------------------------------------------
  energy-cutoff  :      550.00
  volume of cell :      305.00
      direct lattice vectors                 reciprocal lattice vectors
     4.810593261 -5.684288877  0.000000000     0.103937284 -0.087961750 -0.000000000
     4.810593261  5.684288877 -0.000000000     0.103937284  0.087961750  0.000000000
     0.000000000 -0.000000000  5.576928343    -0.000000000  0.000000000  0.179310176

  length of vectors
     7.446673591  7.446673591  5.576928343     0.136162508  0.136162508  0.179310176


 FORCES acting on ions
    electron-ion (+dipol)            ewald-force                    non-local-force                 convergence-correction
 -----------------------------------------------------------------------------------------------
   0.941E-13 -.125E-12 0.166E-12   -.568E-13 -.391E-13 -.711E-14   -.605E-22 0.587E-22 -.217E-22   0.311E-11 -.336E-11 0.935E-12
   0.793E-12 0.721E-12 0.190E-12   -.548E-13 -.462E-13 -.346E-13   -.326E-22 0.133E-22 0.162E-22   0.313E-11 -.339E-11 0.985E-12
   0.584E-12 -.146E-11 -.116E-10   -.593E-13 -.284E-13 -.284E-13   0.976E-22 0.109E-21 -.553E-22   -.245E-11 0.418E-11 -.303E-11
   -.510E-11 -.954E-11 -.864E-11   -.568E-13 -.355E-13 -.249E-13   -.212E-22 -.106E-21 0.891E-23   -.298E-11 0.278E-11 -.915E-12
   -.268E-11 -.394E-11 -.379E-11   0.535E-13 0.128E-12 -.799E-14   0.664E-22 0.125E-21 -.155E-23   0.156E-11 -.266E-11 -.475E-12
   0.437E-11 0.579E-11 -.441E-11   0.711E-13 0.128E-12 -.711E-14   -.139E-21 -.105E-21 -.506E-22   0.131E-11 -.999E-12 -.114E-11
   -.149E-10 -.291E-10 0.368E-10   0.711E-13 0.131E-12 0.355E-14   0.291E-22 -.157E-22 0.587E-23   -.134E-11 0.180E-11 0.167E-11
   0.812E-12 -.604E-11 0.350E-10   0.884E-13 0.142E-12 0.284E-13   0.116E-22 -.766E-22 0.234E-23   -.101E-11 0.195E-11 0.147E-11
   -.579E-07 0.167E-11 0.316E+03   -.775E-14 -.497E-13 -.317E+03   -.237E-19 0.370E-17 0.110E+01   0.104E-12 -.401E-12 -.198E-01
   -.579E-07 0.537E-12 0.316E+03   -.711E-14 -.246E-13 -.317E+03   -.169E-17 0.369E-17 0.110E+01   0.227E-12 -.195E-12 -.198E-01
   -.579E-07 -.225E-11 0.316E+03   -.711E-14 -.500E-13 -.317E+03   0.107E-18 0.375E-18 0.110E+01   -.268E-12 0.164E-12 -.198E-01
   -.579E-07 -.971E-12 0.316E+03   -.690E-14 -.284E-13 -.317E+03   -.164E-17 0.478E-19 0.110E+01   -.328E-12 0.224E-13 -.198E-01
   0.579E-07 0.176E-12 -.316E+03   -.787E-14 -.596E-13 0.317E+03   0.814E-18 -.249E-18 -.110E+01   -.761E-12 0.546E-12 0.198E-01
   0.579E-07 -.204E-12 -.316E+03   -.612E-14 -.499E-13 0.317E+03   -.259E-17 0.295E-17 -.110E+01   -.905E-12 0.619E-12 0.198E-01
   0.579E-07 -.722E-12 -.316E+03   -.842E-14 -.460E-13 0.317E+03   0.900E-18 0.291E-17 -.110E+01   0.764E-12 -.532E-12 0.198E-01
   0.579E-07 0.227E-12 -.316E+03   -.626E-14 -.469E-13 0.317E+03   0.943E-18 -.334E-18 -.110E+01   0.675E-12 -.709E-12 0.198E-01
 -----------------------------------------------------------------------------------------------
   -.154E-10 -.453E-10 0.404E-10   -.134E-14 0.249E-13 0.114E-12   -.318E-17 0.131E-16 0.222E-15   0.840E-12 -.174E-12 -.356E-12
 
 
 POSITION                                       TOTAL-FORCE (eV/Angst)
 -----------------------------------------------------------------------------------
      0.00000     -0.00000      0.00000        -0.000000      0.000000     -0.000000
      2.40530      2.84214     -0.00000        -0.000000      0.000000     -0.000000
      2.40530     -2.84214      0.00000        -0.000000      0.000000     -0.000000
      4.81059     -0.00000      0.00000        -0.000000      0.000000     -0.000000
      2.40530     -0.00000      0.00000        -0.000000      0.000000     -0.000000
      4.81059      2.84214     -0.00000        -0.000000      0.000000     -0.000000
      4.81059     -2.84214      0.00000        -0.000000      0.000000     -0.000000
      7.21589      0.00000      0.00000        -0.000000      0.000000     -0.000000
      2.40530     -1.42107      3.77608        -0.000000      0.000000     -0.006027
      4.81059      1.42107      3.77608         0.000000      0.000000     -0.006027
      4.81059     -4.26322      3.77608        -0.000000      0.000000     -0.006027
      7.21589     -1.42107      3.77608         0.000000      0.000000     -0.006027
      2.40530      1.42107      1.80085        -0.000000     -0.000000      0.006027
      4.81059      4.26322      1.80085        -0.000000     -0.000000      0.006027
      4.81059     -1.42107      1.80085         0.000000     -0.000000      0.006027
      7.21589      1.42107      1.80085         0.000000     -0.000000      0.006027
 -----------------------------------------------------------------------------------
    total drift:                               -0.000000     -0.000000      0.000000


--------------------------------------------------------------------------------------------------------



  FREE ENERGIE OF THE ION-ELECTRON SYSTEM (eV)
  ---------------------------------------------------
  free  energy   TOTEN  =       -98.39415962 eV

  energy  without entropy=      -98.37519223  energy(sigma->0) =      -98.38467593
 
 d Force = 0.3330809E-05[ 0.138E-04,-0.712E-05]  d Energy = 0.4342297E-04-0.401E-04
 d Force = 0.7251957E+00[ 0.725E+00, 0.725E+00]  d Ewald  = 0.1029339E+01-0.304E+00


--------------------------------------------------------------------------------------------------------


    POTLOK:  cpu time      0.3316: real time      0.3326


--------------------------------------------------------------------------------------------------------




--------------------------------------------------------------------------------------------------------


  
 reached required accuracy - stopping structural energy minimisation
     LOOP+:  cpu time     77.0829: real time     77.5139
    4ORBIT:  cpu time      0.0000: real time      0.0000



 total charge

# of ion       s       p       d       tot
------------------------------------------
    1        0.343   6.296   6.075  12.714
    2        0.343   6.296   6.075  12.714
    3        0.343   6.296   6.075  12.714
    4        0.343   6.296   6.075  12.714
    5        0.343   6.296   6.075  12.714
    6        0.343   6.296   6.075  12.714
    7        0.343   6.296   6.075  12.714
    8        0.343   6.296   6.075  12.714
    9        1.490   2.260   0.055   3.806
   10        1.490   2.260   0.055   3.806
   11        1.490   2.260   0.055   3.806
   12        1.490   2.260   0.055   3.806
   13        1.490   2.260   0.055   3.806
   14        1.490   2.260   0.055   3.806
   15        1.490   2.260   0.055   3.806
   16        1.490   2.260   0.055   3.806
--------------------------------------------------
tot         14.665  68.445  49.045 132.155



 magnetization (x)

# of ion       s       p       d       tot
------------------------------------------
    1        0.028   0.013   2.501   2.542
    2       -0.028  -0.013  -2.501  -2.542
    3       -0.028  -0.013  -2.501  -2.542
    4        0.028   0.013   2.501   2.542
    5        0.028   0.013   2.501   2.542
    6       -0.028  -0.013  -2.501  -2.542
    7       -0.028  -0.013  -2.501  -2.542
    8        0.028   0.013   2.501   2.542
    9        0.000   0.000   0.000   0.000
   10        0.000   0.000   0.000   0.000
   11        0.000   0.000   0.000   0.000
   12        0.000   0.000   0.000   0.000
   13        0.000   0.000   0.000   0.000
   14        0.000   0.000   0.000   0.000
   15        0.000   0.000   0.000   0.000
   16        0.000   0.000   0.000   0.000
--------------------------------------------------
tot          0.000   0.000   0.000   0.000
 

 total amount of memory used by VASP MPI-rank0   185389. kBytes
=======================================================================

   base      :      30000. kBytes
   nonlr-proj:      14232. kBytes
   fftplans  :       3084. kBytes
   grid      :      19560. kBytes
   one-center:        497. kBytes
   wavefun   :     118016. kBytes
 
  
  
 General timing and accounting informations for this job:
 ========================================================
  
                  Total CPU time used (sec):     1294.716
                            User time (sec):     1291.502
                          System time (sec):        3.214
                         Elapsed time (sec):     1302.943
  
                   Maximum memory used (kb):      475840.
                   Average memory used (kb):          N/A
  
                          Minor page faults:       373592
                          Major page faults:            0
                 Voluntary context switches:        40581
