 vasp.6.4.1 05Apr23 (build Jun 01 2023 13:46:15) complex                        
  
 executed on             LinuxIFC date 2023.12.16  23:20:35
 running   20 mpi-ranks, on    5 nodes
 distrk:  each k-point on   20 cores,    1 groups
 distr:  one band on NCORE=   1 cores,   20 groups


--------------------------------------------------------------------------------------------------------


 INCAR:
   ALGO = Fast
   EDIFF = 0.0002
   ENCUT = 550
   IBRION = -1
   ISIF = 4
   ISMEAR = -5
   ISPIN = 2
   IVDW = 13
   LASPH = True
   LMAXMIX = 4
   LORBIT = 11
   LREAL = Auto
   LWAVE = False
   MAGMOM = 1*2.543 2*-2.543 2*2.543 2*-2.543 1*2.543 8*0.0
   NELM = 100
   NSW = 0
   PREC = Accurate
   SIGMA = 0.05

 POTCAR:   PAW_PBE Fe_pv 06Sep2000                
 POTCAR:   PAW_PBE Se 06Sep2000                   
 -----------------------------------------------------------------------------
|                                                                             |
|           W    W    AA    RRRRR   N    N  II  N    N   GGGG   !!!           |
|           W    W   A  A   R    R  NN   N  II  NN   N  G    G  !!!           |
|           W    W  A    A  R    R  N N  N  II  N N  N  G       !!!           |
|           W WW W  AAAAAA  RRRRR   N  N N  II  N  N N  G  GGG   !            |
|           WW  WW  A    A  R   R   N   NN  II  N   NN  G    G                |
|           W    W  A    A  R    R  N    N  II  N    N   GGGG   !!!           |
|                                                                             |
|     For optimal performance we recommend to set                             |
|       NCORE = 2 up to number-of-cores-per-socket                            |
|     NCORE specifies how many cores store one orbital (NPAR=cpu/NCORE).      |
|     This setting can greatly improve the performance of VASP for DFT.       |
|     The default, NCORE=1 might be grossly inefficient on modern             |
|     multi-core architectures or massively parallel machines. Do your        |
|     own testing! More info at https://www.vasp.at/wiki/index.php/NCORE      |
|     Unfortunately you need to use the default for GW and RPA                |
|     calculations (for HF NCORE is supported but not extensively tested      |
|     yet).                                                                   |
|                                                                             |
 -----------------------------------------------------------------------------

 POTCAR:   PAW_PBE Fe_pv 06Sep2000                
   VRHFIN =Fe:  3pd7s1                                                                              
   LEXCH  = PE                                                                                      
   EATOM  =  2456.8974 eV,  180.5769 Ry                                                             
                                                                                                    
   TITEL  = PAW_PBE Fe_pv 06Sep2000                                                                 
   LULTRA =        F    use ultrasoft PP ?                                                          
   IUNSCR =        1    unscreen: 0-lin 1-nonlin 2-no                                               
   RPACOR =    1.750    partial core radius                                                         
   POMASS =   55.847; ZVAL   =   14.000    mass and valenz                                          
   RCORE  =    2.200    outmost cutoff radius                                                       
   RWIGS  =    2.200; RWIGS  =    1.164    wigner-seitz radius (au A)                               
   ENMAX  =  293.238; ENMIN  =  219.929 eV                                                          
   RCLOC  =    1.701    cutoff for local pot                                                        
   LCOR   =        T    correct aug charges                                                         
   LPAW   =        T    paw PP                                                                      
   EAUG   =  578.342                                                                                
   DEXC   =    -.002                                                                                
   RMAX   =    2.693    core radius for proj-oper                                                   
   RAUG   =    1.300    factor for augmentation sphere                                              
   RDEP   =    2.296    radius for radial grids                                                     
   QCUT   =   -4.642; QGAM   =    9.285    optimization parameters                                  
                                                                                                    
   Description                                                                                      
     l     E      TYP  RCUT    TYP  RCUT                                                            
     1   .000     23  2.000                                                                         
     1  -.400     23  2.000                                                                         
     2   .000     23  2.200                                                                         
     2   .000     23  2.200                                                                         
     0   .000     23  2.000                                                                         
     0  2.000     23  2.000                                                                         
     3   .000      7   .000                                                                         
  local pseudopotential read in
  partial core-charges read in
  atomic valenz-charges read in
  non local Contribution for L=           1  read in
    real space projection operators read in
  non local Contribution for L=           1  read in
    real space projection operators read in
  non local Contribution for L=           2  read in
    real space projection operators read in
  non local Contribution for L=           2  read in
    real space projection operators read in
  non local Contribution for L=           0  read in
    real space projection operators read in
  non local Contribution for L=           0  read in
    real space projection operators read in
    PAW grid and wavefunctions read in
 
   number of l-projection  operators is LMAX  =           6
   number of lm-projection operators is LMMAX =          18
 
 POTCAR:   PAW_PBE Se 06Sep2000                   
   VRHFIN =Se: s2p4                                                                                 
   LEXCH  = PE                                                                                      
   EATOM  =   256.9644 eV,   18.8864 Ry                                                             
                                                                                                    
   TITEL  = PAW_PBE Se 06Sep2000                                                                    
   LULTRA =        F    use ultrasoft PP ?                                                          
   IUNSCR =        1    unscreen: 0-lin 1-nonlin 2-no                                               
   RPACOR =    1.900    partial core radius                                                         
   POMASS =   78.960; ZVAL   =    6.000    mass and valenz                                          
   RCORE  =    2.100    outmost cutoff radius                                                       
   RWIGS  =    2.200; RWIGS  =    1.164    wigner-seitz radius (au A)                               
   ENMAX  =  211.534; ENMIN  =  158.651 eV                                                          
   ICORE  =        3    local potential                                                             
   LCOR   =        T    correct aug charges                                                         
   LPAW   =        T    paw PP                                                                      
   EAUG   =  446.842                                                                                
   DEXC   =    -.031                                                                                
   RMAX   =    3.170    core radius for proj-oper                                                   
   RAUG   =    1.300    factor for augmentation sphere                                              
   RDEP   =    2.177    radius for radial grids                                                     
   QCUT   =   -3.943; QGAM   =    7.886    optimization parameters                                  
                                                                                                    
   Description                                                                                      
     l     E      TYP  RCUT    TYP  RCUT                                                            
     0   .000     23  2.100                                                                         
     0   .000     23  2.100                                                                         
     1   .000     23  2.100                                                                         
     1   .000     23  2.100                                                                         
     2   .000     23  2.100                                                                         
     3  -.100      7  2.100                                                                         
  local pseudopotential read in
  partial core-charges read in
  atomic valenz-charges read in
  non local Contribution for L=           0  read in
    real space projection operators read in
  non local Contribution for L=           0  read in
    real space projection operators read in
  non local Contribution for L=           1  read in
    real space projection operators read in
  non local Contribution for L=           1  read in
    real space projection operators read in
  non local Contribution for L=           2  read in
    real space projection operators read in
    PAW grid and wavefunctions read in
 
   number of l-projection  operators is LMAX  =           5
   number of lm-projection operators is LMMAX =          13
 
 Optimization of the real space projectors (new method)

 maximal supplied QI-value         = 17.01
 optimisation between [QCUT,QGAM] = [ 11.91, 23.98] = [ 39.69,161.04] Ry 
 Optimized for a Real-space Cutoff    1.45 Angstroem

   l    n(q)    QCUT    max X(q) W(low)/X(q) W(high)/X(q)  e(spline) 
   1     10    11.905     4.550    0.27E-05    0.11E-05    0.28E-07
   1     10    11.905     5.234    0.10E-04    0.61E-04    0.17E-06
   2      9    11.905     3.960    0.19E-04    0.73E-05    0.50E-07
   2      9    11.905    29.565    0.24E-03    0.51E-04    0.27E-06
   0     10    11.905    23.582    0.17E-04    0.10E-05    0.14E-07
   0     10    11.905    39.747    0.23E-04    0.68E-05    0.74E-07
 Optimization of the real space projectors (new method)

 maximal supplied QI-value         = 17.95
 optimisation between [QCUT,QGAM] = [ 11.85, 23.88] = [ 39.31,159.64] Ry 
 Optimized for a Real-space Cutoff    1.18 Angstroem

   l    n(q)    QCUT    max X(q) W(low)/X(q) W(high)/X(q)  e(spline) 
   0      8    11.849     6.499    0.17E-04    0.94E-05    0.89E-08
   0      8    11.849    52.623    0.21E-03    0.78E-04    0.81E-07
   1      8    11.849     4.229    0.79E-04    0.83E-04    0.23E-07
   1      8    11.849    29.991    0.12E-03    0.43E-03    0.14E-06
   2      7    11.849     3.719    0.22E-03    0.64E-04    0.38E-07
 PAW_PBE Fe_pv 06Sep2000                :
 energy of atom  1       EATOM=-2456.8974
 kinetic energy error for atom=    0.0060 (will be added to EATOM!!)
 PAW_PBE Se 06Sep2000                   :
 energy of atom  2       EATOM= -256.9644
 kinetic energy error for atom=    0.0007 (will be added to EATOM!!)
 
 
 POSCAR: Fe8 Se8
  positions in direct lattice
  velocities in cartesian coordinates
 exchange correlation table for  LEXCH =        8
   RHO(1)=    0.500       N(1)  =     2000
   RHO(2)=  100.500       N(2)  =     4000
 


--------------------------------------------------------------------------------------------------------


 ion  position               nearest neighbor table
   1  0.000  0.000  0.000-  11 2.29  14 2.29   5 2.41   8 2.41
   2  0.000  0.500  0.000-  12 2.29  13 2.29   6 2.41   7 2.41
   3  0.500  0.000  0.000-   9 2.29  16 2.29   6 2.41   7 2.41
   4  0.500  0.500  0.000-  10 2.29  15 2.29   5 2.41   8 2.41
   5  0.250  0.250  0.000-   9 2.29  13 2.29   1 2.41   4 2.41
   6  0.250  0.750  0.000-  10 2.29  14 2.29   2 2.41   3 2.41
   7  0.750  0.250  0.000-  11 2.29  15 2.29   2 2.41   3 2.41
   8  0.750  0.750  0.000-  12 2.29  16 2.29   1 2.41   4 2.41
   9  0.375  0.125  0.677-   3 2.29   5 2.29
  10  0.375  0.625  0.677-   4 2.29   6 2.29
  11  0.875  0.125  0.677-   1 2.29   7 2.29
  12  0.875  0.625  0.677-   2 2.29   8 2.29
  13  0.125  0.375  0.323-   2 2.29   5 2.29
  14  0.125  0.875  0.323-   1 2.29   6 2.29
  15  0.625  0.375  0.323-   4 2.29   7 2.29
  16  0.625  0.875  0.323-   3 2.29   8 2.29
 
  LATTYP: Found a base centered orthorhombic cell.
 ALAT       =     9.6211865219
 B/A-ratio  =     1.1816190996
 C/A-ratio  =     0.5796507874
  
  Lattice vectors:
  
 A1 = (   4.8105932609,  -5.6842888774,   0.0000000000)
 A2 = (   4.8105932609,   5.6842888774,   0.0000000000)
 A3 = (   0.0000000000,   0.0000000000,   5.5769283427)


Analysis of symmetry for initial positions (statically):
=====================================================================
 Subroutine PRICEL returns following result:
 
  LATTYP: Found a base centered orthorhombic cell.
 ALAT       =     4.8105932609
 B/A-ratio  =     1.1816190996
 C/A-ratio  =     1.1593015747
  
  Lattice vectors:
  
 A1 = (   2.4052966305,  -2.8421444387,   0.0000000000)
 A2 = (   2.4052966305,   2.8421444387,   0.0000000000)
 A3 = (   0.0000000000,   0.0000000000,   5.5769283427)
 
   4 primitive cells build up your supercell.
 

 Routine SETGRP: Setting up the symmetry group for a 
 base centered orthorhombic supercell.


 Subroutine GETGRP returns: Found  8 space group operations
 (whereof  4 operations were pure point group operations)
 out of a pool of  8 trial point group operations.


The static configuration has the point symmetry C_2h.
 The point group associated with its full space group is D_2h.


Analysis of symmetry for dynamics (positions and initial velocities):
=====================================================================
 Subroutine PRICEL returns following result:
 
  LATTYP: Found a base centered orthorhombic cell.
 ALAT       =     4.8105932609
 B/A-ratio  =     1.1816190996
 C/A-ratio  =     1.1593015747
  
  Lattice vectors:
  
 A1 = (   2.4052966305,  -2.8421444387,   0.0000000000)
 A2 = (   2.4052966305,   2.8421444387,   0.0000000000)
 A3 = (   0.0000000000,   0.0000000000,   5.5769283427)
 
   4 primitive cells build up your supercell.
 

 Routine SETGRP: Setting up the symmetry group for a 
 base centered orthorhombic supercell.


 Subroutine GETGRP returns: Found  8 space group operations
 (whereof  4 operations were pure point group operations)
 out of a pool of  8 trial point group operations.


The dynamic configuration has the point symmetry C_2h.
 The point group associated with its full space group is D_2h.


Analysis of structural, dynamic, and magnetic symmetry:
=====================================================================
 Subroutine PRICEL returns following result:
 
  LATTYP: Found a base centered orthorhombic cell.
 ALAT       =     4.8105932609
 B/A-ratio  =     1.1816190996
 C/A-ratio  =     1.1593015747
  
  Lattice vectors:
  
 A1 = (   2.4052966305,  -2.8421444387,   0.0000000000)
 A2 = (   2.4052966305,   2.8421444387,   0.0000000000)
 A3 = (   0.0000000000,   0.0000000000,   5.5769283427)
 
   4 primitive cells build up your supercell.
 

 Routine SETGRP: Setting up the symmetry group for a 
 base centered orthorhombic supercell.


 Subroutine GETGRP returns: Found  8 space group operations
 (whereof  4 operations were pure point group operations)
 out of a pool of  8 trial point group operations.


The overall configuration has the point symmetry C_2h.
 The point group associated with its full space group is D_2h.


 Subroutine INISYM returns: Found  8 space group operations
 (whereof  4 operations are pure point group operations),
 and found     4 'primitive' translations


----------------------------------------------------------------------------------------

                                     Primitive cell                                     

  volume of cell :      76.2500

  direct lattice vectors                    reciprocal lattice vectors
     2.405296630 -2.842144439  0.000000000     0.207874569 -0.175923501  0.000000000
     2.405296630  2.842144439  0.000000000     0.207874569  0.175923501  0.000000000
     0.000000000  0.000000000  5.576928343     0.000000000  0.000000000  0.179310176

  length of vectors
     3.723336795  3.723336795  5.576928343     0.272325016  0.272325016  0.179310176

  position of ions in fractional coordinates (direct lattice)
     0.000000000  0.000000000  0.000000000
     0.500000000  0.500000000  0.000000000
     0.750000000  0.250000000  0.677088726
     0.250000000  0.750000000  0.322911274

  ion indices of the primitive-cell ions
   primitive index   ion index
                 1           1
                 2           5
                 3          11
                 4          14

----------------------------------------------------------------------------------------

 
 
 KPOINTS: KPOINTS                                 

Automatic generation of k-mesh.
 Grid dimensions read from file:
 generate k-points for:    7    7    9

 Generating k-lattice:

  Cartesian coordinates                     Fractional coordinates (reciprocal lattice)
     0.014848183 -0.012565964  0.000000000     0.142857143 -0.000000000  0.000000000
     0.014848183  0.012565964  0.000000000    -0.000000000  0.142857143  0.000000000
     0.000000000  0.000000000  0.019923353     0.000000000  0.000000000  0.111111111

  Length of vectors
     0.019451787  0.019451787  0.019923353

  Shift w.r.t. Gamma in fractional coordinates (k-lattice)
     0.000000000  0.000000000  0.000000000

 TETIRR: Found    664 inequivalent tetrahedra from     2646
 
 Subroutine IBZKPT returns following result:
 ===========================================
 
 Found     80 irreducible k-points:
 
 Following reciprocal coordinates:
            Coordinates               Weight
  0.000000  0.000000  0.000000      1.000000
  0.142857  0.000000  0.000000      4.000000
  0.285714  0.000000  0.000000      4.000000
  0.428571  0.000000  0.000000      4.000000
  0.142857  0.142857  0.000000      2.000000
  0.285714  0.142857  0.000000      4.000000
  0.428571  0.142857  0.000000      4.000000
 -0.428571  0.142857  0.000000      4.000000
 -0.285714  0.142857  0.000000      4.000000
 -0.142857  0.142857  0.000000      2.000000
  0.285714  0.285714  0.000000      2.000000
  0.428571  0.285714  0.000000      4.000000
 -0.428571  0.285714  0.000000      4.000000
 -0.285714  0.285714  0.000000      2.000000
  0.428571  0.428571  0.000000      2.000000
 -0.428571  0.428571  0.000000      2.000000
  0.000000  0.000000  0.111111      2.000000
  0.142857  0.000000  0.111111      8.000000
  0.285714  0.000000  0.111111      8.000000
  0.428571  0.000000  0.111111      8.000000
  0.142857  0.142857  0.111111      4.000000
  0.285714  0.142857  0.111111      8.000000
  0.428571  0.142857  0.111111      8.000000
 -0.428571  0.142857  0.111111      8.000000
 -0.285714  0.142857  0.111111      8.000000
 -0.142857  0.142857  0.111111      4.000000
  0.285714  0.285714  0.111111      4.000000
  0.428571  0.285714  0.111111      8.000000
 -0.428571  0.285714  0.111111      8.000000
 -0.285714  0.285714  0.111111      4.000000
  0.428571  0.428571  0.111111      4.000000
 -0.428571  0.428571  0.111111      4.000000
  0.000000  0.000000  0.222222      2.000000
  0.142857  0.000000  0.222222      8.000000
  0.285714  0.000000  0.222222      8.000000
  0.428571  0.000000  0.222222      8.000000
  0.142857  0.142857  0.222222      4.000000
  0.285714  0.142857  0.222222      8.000000
  0.428571  0.142857  0.222222      8.000000
 -0.428571  0.142857  0.222222      8.000000
 -0.285714  0.142857  0.222222      8.000000
 -0.142857  0.142857  0.222222      4.000000
  0.285714  0.285714  0.222222      4.000000
  0.428571  0.285714  0.222222      8.000000
 -0.428571  0.285714  0.222222      8.000000
 -0.285714  0.285714  0.222222      4.000000
  0.428571  0.428571  0.222222      4.000000
 -0.428571  0.428571  0.222222      4.000000
  0.000000  0.000000  0.333333      2.000000
  0.142857  0.000000  0.333333      8.000000
  0.285714  0.000000  0.333333      8.000000
  0.428571  0.000000  0.333333      8.000000
  0.142857  0.142857  0.333333      4.000000
  0.285714  0.142857  0.333333      8.000000
  0.428571  0.142857  0.333333      8.000000
 -0.428571  0.142857  0.333333      8.000000
 -0.285714  0.142857  0.333333      8.000000
 -0.142857  0.142857  0.333333      4.000000
  0.285714  0.285714  0.333333      4.000000
  0.428571  0.285714  0.333333      8.000000
 -0.428571  0.285714  0.333333      8.000000
 -0.285714  0.285714  0.333333      4.000000
  0.428571  0.428571  0.333333      4.000000
 -0.428571  0.428571  0.333333      4.000000
  0.000000  0.000000  0.444444      2.000000
  0.142857  0.000000  0.444444      8.000000
  0.285714  0.000000  0.444444      8.000000
  0.428571  0.000000  0.444444      8.000000
  0.142857  0.142857  0.444444      4.000000
  0.285714  0.142857  0.444444      8.000000
  0.428571  0.142857  0.444444      8.000000
 -0.428571  0.142857  0.444444      8.000000
 -0.285714  0.142857  0.444444      8.000000
 -0.142857  0.142857  0.444444      4.000000
  0.285714  0.285714  0.444444      4.000000
  0.428571  0.285714  0.444444      8.000000
 -0.428571  0.285714  0.444444      8.000000
 -0.285714  0.285714  0.444444      4.000000
  0.428571  0.428571  0.444444      4.000000
 -0.428571  0.428571  0.444444      4.000000
 
 Following cartesian coordinates:
            Coordinates               Weight
  0.000000  0.000000  0.000000      1.000000
  0.014848 -0.012566  0.000000      4.000000
  0.029696 -0.025132  0.000000      4.000000
  0.044545 -0.037698  0.000000      4.000000
  0.029696 -0.000000  0.000000      2.000000
  0.044545 -0.012566  0.000000      4.000000
  0.059393 -0.025132  0.000000      4.000000
 -0.029696  0.050264  0.000000      4.000000
 -0.014848  0.037698  0.000000      4.000000
 -0.000000  0.025132  0.000000      2.000000
  0.059393  0.000000  0.000000      2.000000
  0.074241 -0.012566  0.000000      4.000000
 -0.014848  0.062830  0.000000      4.000000
 -0.000000  0.050264  0.000000      2.000000
  0.089089  0.000000  0.000000      2.000000
 -0.000000  0.075396  0.000000      2.000000
  0.000000  0.000000  0.019923      2.000000
  0.014848 -0.012566  0.019923      8.000000
  0.029696 -0.025132  0.019923      8.000000
  0.044545 -0.037698  0.019923      8.000000
  0.029696 -0.000000  0.019923      4.000000
  0.044545 -0.012566  0.019923      8.000000
  0.059393 -0.025132  0.019923      8.000000
 -0.029696  0.050264  0.019923      8.000000
 -0.014848  0.037698  0.019923      8.000000
 -0.000000  0.025132  0.019923      4.000000
  0.059393  0.000000  0.019923      4.000000
  0.074241 -0.012566  0.019923      8.000000
 -0.014848  0.062830  0.019923      8.000000
 -0.000000  0.050264  0.019923      4.000000
  0.089089  0.000000  0.019923      4.000000
 -0.000000  0.075396  0.019923      4.000000
  0.000000  0.000000  0.039847      2.000000
  0.014848 -0.012566  0.039847      8.000000
  0.029696 -0.025132  0.039847      8.000000
  0.044545 -0.037698  0.039847      8.000000
  0.029696 -0.000000  0.039847      4.000000
  0.044545 -0.012566  0.039847      8.000000
  0.059393 -0.025132  0.039847      8.000000
 -0.029696  0.050264  0.039847      8.000000
 -0.014848  0.037698  0.039847      8.000000
 -0.000000  0.025132  0.039847      4.000000
  0.059393  0.000000  0.039847      4.000000
  0.074241 -0.012566  0.039847      8.000000
 -0.014848  0.062830  0.039847      8.000000
 -0.000000  0.050264  0.039847      4.000000
  0.089089  0.000000  0.039847      4.000000
 -0.000000  0.075396  0.039847      4.000000
  0.000000  0.000000  0.059770      2.000000
  0.014848 -0.012566  0.059770      8.000000
  0.029696 -0.025132  0.059770      8.000000
  0.044545 -0.037698  0.059770      8.000000
  0.029696 -0.000000  0.059770      4.000000
  0.044545 -0.012566  0.059770      8.000000
  0.059393 -0.025132  0.059770      8.000000
 -0.029696  0.050264  0.059770      8.000000
 -0.014848  0.037698  0.059770      8.000000
 -0.000000  0.025132  0.059770      4.000000
  0.059393  0.000000  0.059770      4.000000
  0.074241 -0.012566  0.059770      8.000000
 -0.014848  0.062830  0.059770      8.000000
 -0.000000  0.050264  0.059770      4.000000
  0.089089  0.000000  0.059770      4.000000
 -0.000000  0.075396  0.059770      4.000000
  0.000000  0.000000  0.079693      2.000000
  0.014848 -0.012566  0.079693      8.000000
  0.029696 -0.025132  0.079693      8.000000
  0.044545 -0.037698  0.079693      8.000000
  0.029696 -0.000000  0.079693      4.000000
  0.044545 -0.012566  0.079693      8.000000
  0.059393 -0.025132  0.079693      8.000000
 -0.029696  0.050264  0.079693      8.000000
 -0.014848  0.037698  0.079693      8.000000
 -0.000000  0.025132  0.079693      4.000000
  0.059393  0.000000  0.079693      4.000000
  0.074241 -0.012566  0.079693      8.000000
 -0.014848  0.062830  0.079693      8.000000
 -0.000000  0.050264  0.079693      4.000000
  0.089089  0.000000  0.079693      4.000000
 -0.000000  0.075396  0.079693      4.000000
 


--------------------------------------------------------------------------------------------------------




 Dimension of arrays:
   k-points           NKPTS =     80   k-points in BZ     NKDIM =     80   number of bands    NBANDS=    100
   number of dos      NEDOS =    301   number of ions     NIONS =     16
   non local maximal  LDIM  =      6   non local SUM 2l+1 LMDIM =     18
   total plane-waves  NPLWV = 172800
   max r-space proj   IRMAX =   7254   max aug-charges    IRDMAX=  24904
   dimension x,y,z NGX =    60 NGY =   60 NGZ =   48
   dimension x,y,z NGXF=   120 NGYF=  120 NGZF=   96
   support grid    NGXF=   120 NGYF=  120 NGZF=   96
   ions per type =               8   8
   NGX,Y,Z   is equivalent  to a cutoff of  13.39, 13.39, 14.31 a.u.
   NGXF,Y,Z  is equivalent  to a cutoff of  26.79, 26.79, 28.62 a.u.

 SYSTEM =  unknown system                          
 POSCAR =  Fe8 Se8                                 

 Startparameter for this run:
   NWRITE =      2    write-flag & timer
   PREC   = accura    normal or accurate (medium, high low for compatibility)
   ISTART =      0    job   : 0-new  1-cont  2-samecut
   ICHARG =      2    charge: 1-file 2-atom 10-const
   ISPIN  =      2    spin polarized calculation?
   LNONCOLLINEAR =      F non collinear calculations
   LSORBIT =      F    spin-orbit coupling
   INIWAV =      1    electr: 0-lowe 1-rand  2-diag
   LASPH  =      T    aspherical Exc in radial PAW
 Electronic Relaxation 1
   ENCUT  =  550.0 eV  40.42 Ry    6.36 a.u.  14.24 14.24 10.66*2*pi/ulx,y,z
   ENINI  =  550.0     initial cutoff
   ENAUG  =  578.3 eV  augmentation charge cutoff
   NELM   =    100;   NELMIN=  2; NELMDL=  0     # of ELM steps 
   EDIFF  = 0.2E-03   stopping-criterion for ELM
   LREAL  =      T    real-space projection
   NLSPLINE    = F    spline interpolate recip. space projectors
   LCOMPAT=      F    compatible to vasp.4.4
   GGA_COMPAT  = T    GGA compatible to vasp.4.4-vasp.4.6
   LMAXPAW     = -100 max onsite density
   LMAXMIX     =    4 max onsite mixed and CHGCAR
   VOSKOWN=      0    Vosko Wilk Nusair interpolation
   ROPT   =   -0.00025  -0.00025
 Ionic relaxation
   EDIFFG = 0.2E-02   stopping-criterion for IOM
   NSW    =      0    number of steps for IOM
   NBLOCK =      1;   KBLOCK =      1    inner block; outer block 
   IBRION =     -1    ionic relax: 0-MD 1-quasi-New 2-CG
   NFREE  =      0    steps in history (QN), initial steepest desc. (CG)
   ISIF   =      4    stress and relaxation
   IWAVPR =     10    prediction:  0-non 1-charg 2-wave 3-comb
   ISYM   =      2    0-nonsym 1-usesym 2-fastsym
   LCORR  =      T    Harris-Foulkes like correction to forces

   POTIM  = 0.5000    time-step for ionic-motion
   TEIN   =    0.0    initial temperature
   TEBEG  =    0.0;   TEEND  =   0.0 temperature during run
   SMASS  =  -3.00    Nose mass-parameter (am)
   estimated Nose-frequenzy (Omega)   =  0.10E-29 period in steps = 0.13E+47 mass=  -0.127E-26a.u.
   SCALEE = 1.0000    scale energy and forces
   NPACO  =    256;   APACO  = 10.0  distance and # of slots for P.C.
   PSTRESS=    0.0 pullay stress

  Mass of Ions in am
   POMASS =  55.85 78.96
  Ionic Valenz
   ZVAL   =  14.00  6.00
  Atomic Wigner-Seitz radii
   RWIGS  =  -1.00 -1.00
  virtual crystal weights 
   VCA    =   1.00  1.00
   NELECT =     160.0000    total number of electrons
   NUPDOWN=      -1.0000    fix difference up-down

 DOS related values:
   EMIN   =  10.00;   EMAX   =-10.00  energy-range for DOS
   EFERMI =   0.00;   METHOD = LEGACY      
   ISMEAR =    -5;   SIGMA  =   0.05  broadening in eV -4-tet -1-fermi 0-gaus

 Electronic relaxation 2 (details)
   IALGO  =     68    algorithm
   LDIAG  =      T    sub-space diagonalisation (order eigenvalues)
   LSUBROT=      F    optimize rotation matrix (better conditioning)
   TURBO    =      0    0=normal 1=particle mesh
   IRESTART =      0    0=no restart 2=restart with 2 vectors
   NREBOOT  =      0    no. of reboots
   NMIN     =      0    reboot dimension
   EREF     =   0.00    reference energy to select bands
   IMIX   =      4    mixing-type and parameters
     AMIX     =   0.40;   BMIX     =  1.00
     AMIX_MAG =   1.60;   BMIX_MAG =  1.00
     AMIN     =   0.10
     WC   =   100.;   INIMIX=   1;  MIXPRE=   1;  MAXMIX= -45

 Intra band minimization:
   WEIMIN = 0.0000     energy-eigenvalue tresh-hold
   EBREAK =  0.50E-06  absolut break condition
   DEPER  =   0.30     relativ break condition  

   TIME   =   0.40     timestep for ELM

  volume/ion in A,a.u.               =      19.06       128.64
  Fermi-wavevector in a.u.,A,eV,Ry     =   1.320327  2.495056 23.718543  1.743264
  Thomas-Fermi vector in A             =   2.450161
 
 Write flags
   LWAVE        =      F    write WAVECAR
   LDOWNSAMPLE  =      F    k-point downsampling of WAVECAR
   LCHARG       =      T    write CHGCAR
   LVTOT        =      F    write LOCPOT, total local potential
   LVHAR        =      F    write LOCPOT, Hartree potential only
   LELF         =      F    write electronic localiz. function (ELF)
   LORBIT       =     11    0 simple, 1 ext, 2 COOP (PROOUT), +10 PAW based schemes


 Dipole corrections
   LMONO  =      F    monopole corrections only (constant potential shift)
   LDIPOL =      F    correct potential (dipole corrections)
   IDIPOL =      0    1-x, 2-y, 3-z, 4-all directions 
   EPSILON=  1.0000000 bulk dielectric constant

 Exchange correlation treatment:
   GGA     =    --    GGA type
   LEXCH   =     8    internal setting for exchange type
   LIBXC   =     F    Libxc                    
   VOSKOWN =     0    Vosko Wilk Nusair interpolation
   LHFCALC =     F    Hartree Fock is set to
   LHFONE  =     F    Hartree Fock one center treatment
   AEXX    =    0.0000 exact exchange contribution

 Linear response parameters
   LEPSILON=     F    determine dielectric tensor
   LRPA    =     F    only Hartree local field effects (RPA)
   LNABLA  =     F    use nabla operator in PAW spheres
   LVEL    =     F    velocity operator in full k-point grid
   CSHIFT  =0.1000    complex shift for real part using Kramers Kronig
   OMEGAMAX=  -1.0    maximum frequency
   DEG_THRESHOLD= 0.2000000E-02 threshold for treating states as degnerate
   RTIME   =   -0.100 relaxation time in fs
  (WPLASMAI=    0.000 imaginary part of plasma frequency in eV, 0.658/RTIME)
   DFIELD  = 0.0000000 0.0000000 0.0000000 field for delta impulse in time
 
  Optional k-point grid parameters
   LKPOINTS_OPT  =     F    use optional k-point grid
   KPOINTS_OPT_MODE=     1    mode for optional k-point grid
 
 Orbital magnetization related:
   ORBITALMAG=     F  switch on orbital magnetization
   LCHIMAG   =     F  perturbation theory with respect to B field
   DQ        =  0.001000  dq finite difference perturbation B field
   LLRAUG    =     F  two centre corrections for induced B field
   LBONE     =     F  B-component reconstruction in AE one-centre
   LVGVCALC  =     T  calculate vGv susceptibility
   LVGVAPPL  =     F  apply vGv susceptibility instead of pGv for G=0

 Random number generation:
   RANDOM_GENERATOR = DEFAULT
   PCG_SEED         = not used


--------------------------------------------------------------------------------------------------------


 Static calculation
 charge density and potential will be updated during run
 spin polarized calculation
 RMM-DIIS sequential band-by-band and
  variant of blocked Davidson during initial phase
 perform sub-space diagonalisation
    before iterative eigenvector-optimisation
 modified Broyden-mixing scheme, WC =      100.0
 initial mixing is a Kerker type mixing with AMIX =  0.4000 and BMIX =      1.0000
 Hartree-type preconditioning will be used
 using additional bands           20
 real space projection scheme for non local part
 use partial core corrections
 calculate Harris-corrections to forces 
   (improved forces if not selfconsistent)
 use gradient corrections 
 use of overlap-Matrix (Vanderbilt PP)
 Fermi weights with tetrahedron method with Bloechl corrections


--------------------------------------------------------------------------------------------------------


  energy-cutoff  :      550.00
  volume of cell :      305.00
      direct lattice vectors                 reciprocal lattice vectors
     4.810593261 -5.684288877  0.000000000     0.103937284 -0.087961750  0.000000000
     4.810593261  5.684288877  0.000000000     0.103937284  0.087961750  0.000000000
     0.000000000  0.000000000  5.576928343     0.000000000  0.000000000  0.179310176

  length of vectors
     7.446673591  7.446673591  5.576928343     0.136162508  0.136162508  0.179310176


 
 k-points in units of 2pi/SCALE and weight: KPOINTS                                 
   0.00000000  0.00000000  0.00000000       0.002
   0.01484818 -0.01256596  0.00000000       0.009
   0.02969637 -0.02513193  0.00000000       0.009
   0.04454455 -0.03769789  0.00000000       0.009
   0.02969637  0.00000000  0.00000000       0.005
   0.04454455 -0.01256596  0.00000000       0.009
   0.05939273 -0.02513193  0.00000000       0.009
  -0.02969637  0.05026386  0.00000000       0.009
  -0.01484818  0.03769789  0.00000000       0.009
   0.00000000  0.02513193  0.00000000       0.005
   0.05939273 -0.00000000  0.00000000       0.005
   0.07424092 -0.01256596  0.00000000       0.009
  -0.01484818  0.06282982  0.00000000       0.009
   0.00000000  0.05026386  0.00000000       0.005
   0.08908910  0.00000000  0.00000000       0.005
  -0.00000000  0.07539579  0.00000000       0.005
   0.00000000  0.00000000  0.01992335       0.005
   0.01484818 -0.01256596  0.01992335       0.018
   0.02969637 -0.02513193  0.01992335       0.018
   0.04454455 -0.03769789  0.01992335       0.018
   0.02969637  0.00000000  0.01992335       0.009
   0.04454455 -0.01256596  0.01992335       0.018
   0.05939273 -0.02513193  0.01992335       0.018
  -0.02969637  0.05026386  0.01992335       0.018
  -0.01484818  0.03769789  0.01992335       0.018
   0.00000000  0.02513193  0.01992335       0.009
   0.05939273 -0.00000000  0.01992335       0.009
   0.07424092 -0.01256596  0.01992335       0.018
  -0.01484818  0.06282982  0.01992335       0.018
   0.00000000  0.05026386  0.01992335       0.009
   0.08908910  0.00000000  0.01992335       0.009
  -0.00000000  0.07539579  0.01992335       0.009
   0.00000000  0.00000000  0.03984671       0.005
   0.01484818 -0.01256596  0.03984671       0.018
   0.02969637 -0.02513193  0.03984671       0.018
   0.04454455 -0.03769789  0.03984671       0.018
   0.02969637  0.00000000  0.03984671       0.009
   0.04454455 -0.01256596  0.03984671       0.018
   0.05939273 -0.02513193  0.03984671       0.018
  -0.02969637  0.05026386  0.03984671       0.018
  -0.01484818  0.03769789  0.03984671       0.018
   0.00000000  0.02513193  0.03984671       0.009
   0.05939273 -0.00000000  0.03984671       0.009
   0.07424092 -0.01256596  0.03984671       0.018
  -0.01484818  0.06282982  0.03984671       0.018
   0.00000000  0.05026386  0.03984671       0.009
   0.08908910  0.00000000  0.03984671       0.009
  -0.00000000  0.07539579  0.03984671       0.009
   0.00000000  0.00000000  0.05977006       0.005
   0.01484818 -0.01256596  0.05977006       0.018
   0.02969637 -0.02513193  0.05977006       0.018
   0.04454455 -0.03769789  0.05977006       0.018
   0.02969637  0.00000000  0.05977006       0.009
   0.04454455 -0.01256596  0.05977006       0.018
   0.05939273 -0.02513193  0.05977006       0.018
  -0.02969637  0.05026386  0.05977006       0.018
  -0.01484818  0.03769789  0.05977006       0.018
   0.00000000  0.02513193  0.05977006       0.009
   0.05939273 -0.00000000  0.05977006       0.009
   0.07424092 -0.01256596  0.05977006       0.018
  -0.01484818  0.06282982  0.05977006       0.018
   0.00000000  0.05026386  0.05977006       0.009
   0.08908910  0.00000000  0.05977006       0.009
  -0.00000000  0.07539579  0.05977006       0.009
   0.00000000  0.00000000  0.07969341       0.005
   0.01484818 -0.01256596  0.07969341       0.018
   0.02969637 -0.02513193  0.07969341       0.018
   0.04454455 -0.03769789  0.07969341       0.018
   0.02969637  0.00000000  0.07969341       0.009
   0.04454455 -0.01256596  0.07969341       0.018
   0.05939273 -0.02513193  0.07969341       0.018
  -0.02969637  0.05026386  0.07969341       0.018
  -0.01484818  0.03769789  0.07969341       0.018
   0.00000000  0.02513193  0.07969341       0.009
   0.05939273 -0.00000000  0.07969341       0.009
   0.07424092 -0.01256596  0.07969341       0.018
  -0.01484818  0.06282982  0.07969341       0.018
   0.00000000  0.05026386  0.07969341       0.009
   0.08908910  0.00000000  0.07969341       0.009
  -0.00000000  0.07539579  0.07969341       0.009
 
 k-points in reciprocal lattice and weights: KPOINTS                                 
   0.00000000  0.00000000  0.00000000       0.002
   0.14285714  0.00000000  0.00000000       0.009
   0.28571429  0.00000000  0.00000000       0.009
   0.42857143  0.00000000  0.00000000       0.009
   0.14285714  0.14285714  0.00000000       0.005
   0.28571429  0.14285714  0.00000000       0.009
   0.42857143  0.14285714  0.00000000       0.009
  -0.42857143  0.14285714  0.00000000       0.009
  -0.28571429  0.14285714  0.00000000       0.009
  -0.14285714  0.14285714  0.00000000       0.005
   0.28571429  0.28571429  0.00000000       0.005
   0.42857143  0.28571429  0.00000000       0.009
  -0.42857143  0.28571429  0.00000000       0.009
  -0.28571429  0.28571429  0.00000000       0.005
   0.42857143  0.42857143  0.00000000       0.005
  -0.42857143  0.42857143  0.00000000       0.005
   0.00000000  0.00000000  0.11111111       0.005
   0.14285714  0.00000000  0.11111111       0.018
   0.28571429  0.00000000  0.11111111       0.018
   0.42857143  0.00000000  0.11111111       0.018
   0.14285714  0.14285714  0.11111111       0.009
   0.28571429  0.14285714  0.11111111       0.018
   0.42857143  0.14285714  0.11111111       0.018
  -0.42857143  0.14285714  0.11111111       0.018
  -0.28571429  0.14285714  0.11111111       0.018
  -0.14285714  0.14285714  0.11111111       0.009
   0.28571429  0.28571429  0.11111111       0.009
   0.42857143  0.28571429  0.11111111       0.018
  -0.42857143  0.28571429  0.11111111       0.018
  -0.28571429  0.28571429  0.11111111       0.009
   0.42857143  0.42857143  0.11111111       0.009
  -0.42857143  0.42857143  0.11111111       0.009
   0.00000000  0.00000000  0.22222222       0.005
   0.14285714  0.00000000  0.22222222       0.018
   0.28571429  0.00000000  0.22222222       0.018
   0.42857143  0.00000000  0.22222222       0.018
   0.14285714  0.14285714  0.22222222       0.009
   0.28571429  0.14285714  0.22222222       0.018
   0.42857143  0.14285714  0.22222222       0.018
  -0.42857143  0.14285714  0.22222222       0.018
  -0.28571429  0.14285714  0.22222222       0.018
  -0.14285714  0.14285714  0.22222222       0.009
   0.28571429  0.28571429  0.22222222       0.009
   0.42857143  0.28571429  0.22222222       0.018
  -0.42857143  0.28571429  0.22222222       0.018
  -0.28571429  0.28571429  0.22222222       0.009
   0.42857143  0.42857143  0.22222222       0.009
  -0.42857143  0.42857143  0.22222222       0.009
   0.00000000  0.00000000  0.33333333       0.005
   0.14285714  0.00000000  0.33333333       0.018
   0.28571429  0.00000000  0.33333333       0.018
   0.42857143  0.00000000  0.33333333       0.018
   0.14285714  0.14285714  0.33333333       0.009
   0.28571429  0.14285714  0.33333333       0.018
   0.42857143  0.14285714  0.33333333       0.018
  -0.42857143  0.14285714  0.33333333       0.018
  -0.28571429  0.14285714  0.33333333       0.018
  -0.14285714  0.14285714  0.33333333       0.009
   0.28571429  0.28571429  0.33333333       0.009
   0.42857143  0.28571429  0.33333333       0.018
  -0.42857143  0.28571429  0.33333333       0.018
  -0.28571429  0.28571429  0.33333333       0.009
   0.42857143  0.42857143  0.33333333       0.009
  -0.42857143  0.42857143  0.33333333       0.009
   0.00000000  0.00000000  0.44444444       0.005
   0.14285714  0.00000000  0.44444444       0.018
   0.28571429  0.00000000  0.44444444       0.018
   0.42857143  0.00000000  0.44444444       0.018
   0.14285714  0.14285714  0.44444444       0.009
   0.28571429  0.14285714  0.44444444       0.018
   0.42857143  0.14285714  0.44444444       0.018
  -0.42857143  0.14285714  0.44444444       0.018
  -0.28571429  0.14285714  0.44444444       0.018
  -0.14285714  0.14285714  0.44444444       0.009
   0.28571429  0.28571429  0.44444444       0.009
   0.42857143  0.28571429  0.44444444       0.018
  -0.42857143  0.28571429  0.44444444       0.018
  -0.28571429  0.28571429  0.44444444       0.009
   0.42857143  0.42857143  0.44444444       0.009
  -0.42857143  0.42857143  0.44444444       0.009
 
 position of ions in fractional coordinates (direct lattice) 
   0.00000000  0.00000000  0.00000000
   0.00000000  0.50000000  0.00000000
   0.50000000  0.00000000  0.00000000
   0.50000000  0.50000000  0.00000000
   0.25000000  0.25000000  0.00000000
   0.25000000  0.75000000  0.00000000
   0.75000000  0.25000000  0.00000000
   0.75000000  0.75000000  0.00000000
   0.37500000  0.12500000  0.67708873
   0.37500000  0.62500000  0.67708873
   0.87500000  0.12500000  0.67708873
   0.87500000  0.62500000  0.67708873
   0.12500000  0.37500000  0.32291127
   0.12500000  0.87500000  0.32291127
   0.62500000  0.37500000  0.32291127
   0.62500000  0.87500000  0.32291127
 
 position of ions in cartesian coordinates  (Angst):
   0.00000000  0.00000000  0.00000000
   2.40529663  2.84214444  0.00000000
   2.40529663 -2.84214444  0.00000000
   4.81059326  0.00000000  0.00000000
   2.40529663  0.00000000  0.00000000
   4.81059326  2.84214444  0.00000000
   4.81059326 -2.84214444  0.00000000
   7.21588989  0.00000000  0.00000000
   2.40529663 -1.42107222  3.77607531
   4.81059326  1.42107222  3.77607531
   4.81059326 -4.26321666  3.77607531
   7.21588989 -1.42107222  3.77607531
   2.40529663  1.42107222  1.80085303
   4.81059326  4.26321666  1.80085303
   4.81059326 -1.42107222  1.80085303
   7.21588989  1.42107222  1.80085303
 


--------------------------------------------------------------------------------------------------------


 k-point   1 :   0.0000 0.0000 0.0000  plane waves:    8955
 k-point   2 :   0.1429 0.0000 0.0000  plane waves:    8955
 k-point   3 :   0.2857 0.0000 0.0000  plane waves:    8929
 k-point   4 :   0.4286 0.0000 0.0000  plane waves:    8931
 k-point   5 :   0.1429 0.1429 0.0000  plane waves:    8925
 k-point   6 :   0.2857 0.1429 0.0000  plane waves:    8924
 k-point   7 :   0.4286 0.1429 0.0000  plane waves:    8958
 k-point   8 :  -0.4286 0.1429 0.0000  plane waves:    8933
 k-point   9 :  -0.2857 0.1429 0.0000  plane waves:    8935
 k-point  10 :  -0.1429 0.1429 0.0000  plane waves:    8956
 k-point  11 :   0.2857 0.2857 0.0000  plane waves:    8930
 k-point  12 :   0.4286 0.2857 0.0000  plane waves:    8959
 k-point  13 :  -0.4286 0.2857 0.0000  plane waves:    8938
 k-point  14 :  -0.2857 0.2857 0.0000  plane waves:    8940
 k-point  15 :   0.4286 0.4286 0.0000  plane waves:    8952
 k-point  16 :  -0.4286 0.4286 0.0000  plane waves:    8936
 k-point  17 :   0.0000 0.0000 0.1111  plane waves:    8949
 k-point  18 :   0.1429 0.0000 0.1111  plane waves:    8940
 k-point  19 :   0.2857 0.0000 0.1111  plane waves:    8931
 k-point  20 :   0.4286 0.0000 0.1111  plane waves:    8948
 k-point  21 :   0.1429 0.1429 0.1111  plane waves:    8942
 k-point  22 :   0.2857 0.1429 0.1111  plane waves:    8934
 k-point  23 :   0.4286 0.1429 0.1111  plane waves:    8946
 k-point  24 :  -0.4286 0.1429 0.1111  plane waves:    8940
 k-point  25 :  -0.2857 0.1429 0.1111  plane waves:    8935
 k-point  26 :  -0.1429 0.1429 0.1111  plane waves:    8944
 k-point  27 :   0.2857 0.2857 0.1111  plane waves:    8923
 k-point  28 :   0.4286 0.2857 0.1111  plane waves:    8942
 k-point  29 :  -0.4286 0.2857 0.1111  plane waves:    8932
 k-point  30 :  -0.2857 0.2857 0.1111  plane waves:    8944
 k-point  31 :   0.4286 0.4286 0.1111  plane waves:    8950
 k-point  32 :  -0.4286 0.4286 0.1111  plane waves:    8925
 k-point  33 :   0.0000 0.0000 0.2222  plane waves:    8937
 k-point  34 :   0.1429 0.0000 0.2222  plane waves:    8928
 k-point  35 :   0.2857 0.0000 0.2222  plane waves:    8932
 k-point  36 :   0.4286 0.0000 0.2222  plane waves:    8929
 k-point  37 :   0.1429 0.1429 0.2222  plane waves:    8930
 k-point  38 :   0.2857 0.1429 0.2222  plane waves:    8934
 k-point  39 :   0.4286 0.1429 0.2222  plane waves:    8928
 k-point  40 :  -0.4286 0.1429 0.2222  plane waves:    8938
 k-point  41 :  -0.2857 0.1429 0.2222  plane waves:    8937
 k-point  42 :  -0.1429 0.1429 0.2222  plane waves:    8939
 k-point  43 :   0.2857 0.2857 0.2222  plane waves:    8905
 k-point  44 :   0.4286 0.2857 0.2222  plane waves:    8933
 k-point  45 :  -0.4286 0.2857 0.2222  plane waves:    8941
 k-point  46 :  -0.2857 0.2857 0.2222  plane waves:    8946
 k-point  47 :   0.4286 0.4286 0.2222  plane waves:    8930
 k-point  48 :  -0.4286 0.4286 0.2222  plane waves:    8946
 k-point  49 :   0.0000 0.0000 0.3333  plane waves:    8925
 k-point  50 :   0.1429 0.0000 0.3333  plane waves:    8930
 k-point  51 :   0.2857 0.0000 0.3333  plane waves:    8931
 k-point  52 :   0.4286 0.0000 0.3333  plane waves:    8914
 k-point  53 :   0.1429 0.1429 0.3333  plane waves:    8931
 k-point  54 :   0.2857 0.1429 0.3333  plane waves:    8922
 k-point  55 :   0.4286 0.1429 0.3333  plane waves:    8918
 k-point  56 :  -0.4286 0.1429 0.3333  plane waves:    8930
 k-point  57 :  -0.2857 0.1429 0.3333  plane waves:    8930
 k-point  58 :  -0.1429 0.1429 0.3333  plane waves:    8928
 k-point  59 :   0.2857 0.2857 0.3333  plane waves:    8947
 k-point  60 :   0.4286 0.2857 0.3333  plane waves:    8933
 k-point  61 :  -0.4286 0.2857 0.3333  plane waves:    8938
 k-point  62 :  -0.2857 0.2857 0.3333  plane waves:    8921
 k-point  63 :   0.4286 0.4286 0.3333  plane waves:    8925
 k-point  64 :  -0.4286 0.4286 0.3333  plane waves:    8929
 k-point  65 :   0.0000 0.0000 0.4444  plane waves:    8926
 k-point  66 :   0.1429 0.0000 0.4444  plane waves:    8939
 k-point  67 :   0.2857 0.0000 0.4444  plane waves:    8938
 k-point  68 :   0.4286 0.0000 0.4444  plane waves:    8929
 k-point  69 :   0.1429 0.1429 0.4444  plane waves:    8939
 k-point  70 :   0.2857 0.1429 0.4444  plane waves:    8928
 k-point  71 :   0.4286 0.1429 0.4444  plane waves:    8920
 k-point  72 :  -0.4286 0.1429 0.4444  plane waves:    8925
 k-point  73 :  -0.2857 0.1429 0.4444  plane waves:    8931
 k-point  74 :  -0.1429 0.1429 0.4444  plane waves:    8933
 k-point  75 :   0.2857 0.2857 0.4444  plane waves:    8938
 k-point  76 :   0.4286 0.2857 0.4444  plane waves:    8918
 k-point  77 :  -0.4286 0.2857 0.4444  plane waves:    8921
 k-point  78 :  -0.2857 0.2857 0.4444  plane waves:    8916
 k-point  79 :   0.4286 0.4286 0.4444  plane waves:    8944
 k-point  80 :  -0.4286 0.4286 0.4444  plane waves:    8947

 maximum and minimum number of plane-waves per node :      8959     8905

 maximum number of plane-waves:      8959
 maximum index in each direction: 
   IXMAX=   14   IYMAX=   14   IZMAX=   10
   IXMIN=  -14   IYMIN=  -14   IZMIN=  -11


 serial   3D FFT for wavefunctions
 parallel 3D FFT for charge:
    minimum data exchange during FFTs selected (reduces bandwidth)


 total amount of memory used by VASP MPI-rank0   185395. kBytes
=======================================================================

   base      :      30000. kBytes
   nonlr-proj:      14238. kBytes
   fftplans  :       3084. kBytes
   grid      :      19560. kBytes
   one-center:        497. kBytes
   wavefun   :     118016. kBytes
 
     INWAV:  cpu time      0.0000: real time      0.0002
 Broyden mixing: mesh for mixing (old mesh)
   NGX = 29   NGY = 29   NGZ = 21
  (NGX  =120   NGY  =120   NGZ  = 96)
  gives a total of  17661 points

 initial charge density was supplied:
 charge density of overlapping atoms calculated
 number of electron     160.0000000 magnetization      -0.0000000
 keeping initial charge density in first step


--------------------------------------------------------------------------------------------------------


 Maximum index for non-local projection operator         6979
 Maximum index for augmentation-charges         1213 (set IRDMAX)


--------------------------------------------------------------------------------------------------------


 First call to EWALD:  gamma=   0.263
 Maximum number of real-space cells 3x 3x 3
 Maximum number of reciprocal cells 3x 3x 2

    FEWALD:  cpu time      0.0013: real time      0.0013


--------------------------------------- Ionic step        1  -------------------------------------------




--------------------------------------- Iteration      1(   1)  ---------------------------------------


    POTLOK:  cpu time      0.0579: real time      0.0720
    SETDIJ:  cpu time      0.2720: real time      0.2730
     EDDAV:  cpu time     29.3098: real time     29.4305
 BZINTS: Fermi energy:   20.818420;  160.000000 electrons
         Band energy:-0.933033E+02;  BLOECHL correction:   -0.074958
       DOS:  cpu time      0.1401: real time      0.1406
    --------------------------------------------
      LOOP:  cpu time     29.7799: real time     29.9162

 eigenvalue-minimisations  : 35040
 total energy-change (2. order) : 0.2022978E+04  (-0.8893753E+04)
 number of electron     160.0000000 magnetization      -0.0000000
 augmentation part      160.0000000 magnetization      -0.0000000

 Free energy of the ion-electron system (eV)
  ---------------------------------------------------
  alpha Z        PSCENC =       832.62814846
  Ewald energy   TEWEN  =    -11505.18643247
  -Hartree energ DENC   =     -8891.92684597
  -exchange      EXHF   =         0.00000000
  -V(xc)+E(xc)   XCENC  =       565.72375633
  PAW double counting   =     15528.29548892   -16124.09373390
  entropy T*S    EENTRO =         0.00000000
  eigenvalues    EBANDS =       -93.30330224
  atomic energy  EATOM  =     21710.84102437
  Solvation  Ediel_sol  =         0.00000000
  ---------------------------------------------------
  free energy    TOTEN  =      2022.97810351 eV

  energy without entropy =     2022.97810351  energy(sigma->0) =     2022.97810351


--------------------------------------------------------------------------------------------------------




--------------------------------------- Iteration      1(   2)  ---------------------------------------


     EDDAV:  cpu time     27.9678: real time     28.0805
 BZINTS: Fermi energy:    7.190583;  160.000000 electrons
         Band energy:-0.199491E+04;  BLOECHL correction:   -0.029494
       DOS:  cpu time      0.1391: real time      0.1396
    --------------------------------------------
      LOOP:  cpu time     28.1069: real time     28.2201

 eigenvalue-minimisations  : 32000
 total energy-change (2. order) :-0.1901604E+04  (-0.1846330E+04)
 number of electron     160.0000000 magnetization      -0.0000000
 augmentation part      160.0000000 magnetization      -0.0000000

 Free energy of the ion-electron system (eV)
  ---------------------------------------------------
  alpha Z        PSCENC =       832.62814846
  Ewald energy   TEWEN  =    -11505.18643247
  -Hartree energ DENC   =     -8891.92684597
  -exchange      EXHF   =         0.00000000
  -V(xc)+E(xc)   XCENC  =       565.72375633
  PAW double counting   =     15528.29548892   -16124.09373390
  entropy T*S    EENTRO =         0.00000000
  eigenvalues    EBANDS =     -1994.90728170
  atomic energy  EATOM  =     21710.84102437
  Solvation  Ediel_sol  =         0.00000000
  ---------------------------------------------------
  free energy    TOTEN  =       121.37412405 eV

  energy without entropy =      121.37412405  energy(sigma->0) =      121.37412405


--------------------------------------------------------------------------------------------------------




--------------------------------------- Iteration      1(   3)  ---------------------------------------


     EDDAV:  cpu time     35.7249: real time     35.9268
 BZINTS: Fermi energy:    5.326939;  160.000000 electrons
         Band energy:-0.220103E+04;  BLOECHL correction:   -0.018784
       DOS:  cpu time      0.1374: real time      0.1379
    --------------------------------------------
      LOOP:  cpu time     35.8623: real time     36.0647

 eigenvalue-minimisations  : 45700
 total energy-change (2. order) :-0.2061213E+03  (-0.1829171E+03)
 number of electron     160.0000000 magnetization      -0.0000000
 augmentation part      160.0000000 magnetization      -0.0000000

 Free energy of the ion-electron system (eV)
  ---------------------------------------------------
  alpha Z        PSCENC =       832.62814846
  Ewald energy   TEWEN  =    -11505.18643247
  -Hartree energ DENC   =     -8891.92684597
  -exchange      EXHF   =         0.00000000
  -V(xc)+E(xc)   XCENC  =       565.72375633
  PAW double counting   =     15528.29548892   -16124.09373390
  entropy T*S    EENTRO =         0.00000000
  eigenvalues    EBANDS =     -2201.02861789
  atomic energy  EATOM  =     21710.84102437
  Solvation  Ediel_sol  =         0.00000000
  ---------------------------------------------------
  free energy    TOTEN  =       -84.74721214 eV

  energy without entropy =      -84.74721214  energy(sigma->0) =      -84.74721214


--------------------------------------------------------------------------------------------------------




--------------------------------------- Iteration      1(   4)  ---------------------------------------


     EDDAV:  cpu time     37.1087: real time     37.2572
 BZINTS: Fermi energy:    5.210704;  160.000000 electrons
         Band energy:-0.221539E+04;  BLOECHL correction:   -0.020691
       DOS:  cpu time      0.1360: real time      0.1365
    --------------------------------------------
      LOOP:  cpu time     37.2447: real time     37.3937

 eigenvalue-minimisations  : 47080
 total energy-change (2. order) :-0.1436460E+02  (-0.1402000E+02)
 number of electron     160.0000000 magnetization      -0.0000000
 augmentation part      160.0000000 magnetization      -0.0000000

 Free energy of the ion-electron system (eV)
  ---------------------------------------------------
  alpha Z        PSCENC =       832.62814846
  Ewald energy   TEWEN  =    -11505.18643247
  -Hartree energ DENC   =     -8891.92684597
  -exchange      EXHF   =         0.00000000
  -V(xc)+E(xc)   XCENC  =       565.72375633
  PAW double counting   =     15528.29548892   -16124.09373390
  entropy T*S    EENTRO =         0.00000000
  eigenvalues    EBANDS =     -2215.39322020
  atomic energy  EATOM  =     21710.84102437
  Solvation  Ediel_sol  =         0.00000000
  ---------------------------------------------------
  free energy    TOTEN  =       -99.11181445 eV

  energy without entropy =      -99.11181445  energy(sigma->0) =      -99.11181445


--------------------------------------------------------------------------------------------------------




--------------------------------------- Iteration      1(   5)  ---------------------------------------


     EDDAV:  cpu time     35.6792: real time     35.8649
 BZINTS: Fermi energy:    5.207234;  160.000000 electrons
         Band energy:-0.221572E+04;  BLOECHL correction:   -0.020748
       DOS:  cpu time      0.1367: real time      0.1372
    CHARGE:  cpu time      0.9960: real time      1.0010
    MIXING:  cpu time      0.0016: real time      0.0016
    --------------------------------------------
      LOOP:  cpu time     36.8135: real time     37.0047

 eigenvalue-minimisations  : 44760
 total energy-change (2. order) :-0.3283841E+00  (-0.3275311E+00)
 number of electron     160.0000025 magnetization      -0.0000000
 augmentation part       53.1318232 magnetization      -0.0000000

 Broyden mixing:
  rms(total) = 0.27469E+01    rms(broyden)= 0.27466E+01
  rms(prec ) = 0.43126E+01
  weight for this iteration     100.00

 Free energy of the ion-electron system (eV)
  ---------------------------------------------------
  alpha Z        PSCENC =       832.62814846
  Ewald energy   TEWEN  =    -11505.18643247
  -Hartree energ DENC   =     -8891.92684597
  -exchange      EXHF   =         0.00000000
  -V(xc)+E(xc)   XCENC  =       565.72375633
  PAW double counting   =     15528.29548892   -16124.09373390
  entropy T*S    EENTRO =         0.00000000
  eigenvalues    EBANDS =     -2215.72160432
  atomic energy  EATOM  =     21710.84102437
  Solvation  Ediel_sol  =         0.00000000
  ---------------------------------------------------
  free energy    TOTEN  =       -99.44019857 eV

  energy without entropy =      -99.44019857  energy(sigma->0) =      -99.44019857


--------------------------------------------------------------------------------------------------------




--------------------------------------- Iteration      1(   6)  ---------------------------------------


    POTLOK:  cpu time      0.0662: real time      0.0667
    SETDIJ:  cpu time      0.2728: real time      0.2737
    EDDIAG:  cpu time      4.3116: real time      4.3287
  RMM-DIIS:  cpu time     18.7116: real time     18.7801
    ORTHCH:  cpu time      0.5689: real time      0.5710
 BZINTS: Fermi energy:    2.264285;  160.000000 electrons
         Band energy:-0.270571E+04;  BLOECHL correction:   -0.031261
       DOS:  cpu time      0.1383: real time      0.1389
    CHARGE:  cpu time      1.0588: real time      1.0645
    MIXING:  cpu time      0.0018: real time      0.0018
    --------------------------------------------
      LOOP:  cpu time     25.1300: real time     25.2254

 eigenvalue-minimisations  : 34827
 total energy-change (2. order) :-0.1370989E+02  (-0.1693365E+02)
 number of electron     160.0000028 magnetization      -0.0000000
 augmentation part       70.0614395 magnetization      -0.0000000

 Broyden mixing:
  rms(total) = 0.51667E+01    rms(broyden)= 0.51666E+01
  rms(prec ) = 0.83086E+01
  weight for this iteration     100.00

 eigenvalues of (default mixing * dielectric matrix)
  average eigenvalue GAMMA=   0.3028
  0.3028

 Free energy of the ion-electron system (eV)
  ---------------------------------------------------
  alpha Z        PSCENC =       832.62814846
  Ewald energy   TEWEN  =    -11505.18643247
  -Hartree energ DENC   =     -8435.36674108
  -exchange      EXHF   =         0.00000000
  -V(xc)+E(xc)   XCENC  =       553.62359100
  PAW double counting   =     14990.80030656   -15554.78180178
  entropy T*S    EENTRO =         0.00000000
  eigenvalues    EBANDS =     -2705.70818393
  atomic energy  EATOM  =     21710.84102437
  Solvation  Ediel_sol  =         0.00000000
  ---------------------------------------------------
  free energy    TOTEN  =      -113.15008885 eV

  energy without entropy =     -113.15008885  energy(sigma->0) =     -113.15008885


--------------------------------------------------------------------------------------------------------




--------------------------------------- Iteration      1(   7)  ---------------------------------------


    POTLOK:  cpu time      0.0526: real time      0.1172
    SETDIJ:  cpu time      0.2741: real time      0.2750
    EDDIAG:  cpu time      4.4505: real time      4.4695
  RMM-DIIS:  cpu time     17.1377: real time     17.2031
    ORTHCH:  cpu time      0.5717: real time      0.5737
 BZINTS: Fermi energy:    4.119009;  160.000000 electrons
         Band energy:-0.237476E+04;  BLOECHL correction:   -0.019244
       DOS:  cpu time      0.1375: real time      0.1379
    CHARGE:  cpu time      1.0580: real time      1.0622
    MIXING:  cpu time      0.0019: real time      0.0019
    --------------------------------------------
      LOOP:  cpu time     23.6838: real time     23.8405

 eigenvalue-minimisations  : 32075
 total energy-change (2. order) : 0.2240107E+02  (-0.4363019E+01)
 number of electron     160.0000027 magnetization       0.0000000
 augmentation part       57.9897173 magnetization       0.0000000

 Broyden mixing:
  rms(total) = 0.10511E+01    rms(broyden)= 0.10504E+01
  rms(prec ) = 0.12447E+01
  weight for this iteration     100.00

 eigenvalues of (default mixing * dielectric matrix)
  average eigenvalue GAMMA=   0.4386
  0.6090  0.2681

 Free energy of the ion-electron system (eV)
  ---------------------------------------------------
  alpha Z        PSCENC =       832.62814846
  Ewald energy   TEWEN  =    -11505.18643247
  -Hartree energ DENC   =     -8716.06386242
  -exchange      EXHF   =         0.00000000
  -V(xc)+E(xc)   XCENC  =       558.82918581
  PAW double counting   =     15482.89672166   -16079.93084303
  entropy T*S    EENTRO =         0.00000000
  eigenvalues    EBANDS =     -2374.76295835
  atomic energy  EATOM  =     21710.84102437
  Solvation  Ediel_sol  =         0.00000000
  ---------------------------------------------------
  free energy    TOTEN  =       -90.74901597 eV

  energy without entropy =      -90.74901597  energy(sigma->0) =      -90.74901597


--------------------------------------------------------------------------------------------------------




--------------------------------------- Iteration      1(   8)  ---------------------------------------


    POTLOK:  cpu time      0.0514: real time      0.0518
    SETDIJ:  cpu time      0.2704: real time      0.2712
    EDDIAG:  cpu time      4.5067: real time      4.5232
  RMM-DIIS:  cpu time     24.9168: real time     25.0094
    ORTHCH:  cpu time      0.5671: real time      0.5697
 BZINTS: Fermi energy:    4.107219;  160.000000 electrons
         Band energy:-0.237959E+04;  BLOECHL correction:   -0.019918
       DOS:  cpu time      0.1323: real time      0.1328
    CHARGE:  cpu time      1.0517: real time      1.0556
    MIXING:  cpu time      0.0021: real time      0.0021
    --------------------------------------------
      LOOP:  cpu time     31.4985: real time     31.6157

 eigenvalue-minimisations  : 46003
 total energy-change (2. order) :-0.6270800E+00  (-0.3500553E+00)
 number of electron     160.0000027 magnetization      -0.0000000
 augmentation part       58.4035972 magnetization      -0.0000000

 Broyden mixing:
  rms(total) = 0.49614E+00    rms(broyden)= 0.49590E+00
  rms(prec ) = 0.65313E+00
  weight for this iteration     100.00

 eigenvalues of (default mixing * dielectric matrix)
  average eigenvalue GAMMA=   0.6699
  0.3113  0.8493  0.8493

 Free energy of the ion-electron system (eV)
  ---------------------------------------------------
  alpha Z        PSCENC =       832.62814846
  Ewald energy   TEWEN  =    -11505.18643247
  -Hartree energ DENC   =     -8705.53773794
  -exchange      EXHF   =         0.00000000
  -V(xc)+E(xc)   XCENC  =       559.24017934
  PAW double counting   =     15539.37095393   -16143.14006808
  entropy T*S    EENTRO =         0.00000000
  eigenvalues    EBANDS =     -2379.59216357
  atomic energy  EATOM  =     21710.84102437
  Solvation  Ediel_sol  =         0.00000000
  ---------------------------------------------------
  free energy    TOTEN  =       -91.37609597 eV

  energy without entropy =      -91.37609597  energy(sigma->0) =      -91.37609597


--------------------------------------------------------------------------------------------------------




--------------------------------------- Iteration      1(   9)  ---------------------------------------


    POTLOK:  cpu time      0.0690: real time      0.0694
    SETDIJ:  cpu time      0.2720: real time      0.2730
    EDDIAG:  cpu time      4.4292: real time      4.4483
  RMM-DIIS:  cpu time     26.8741: real time     26.9765
    ORTHCH:  cpu time      0.5689: real time      0.5708
 BZINTS: Fermi energy:    4.030646;  160.000000 electrons
         Band energy:-0.238891E+04;  BLOECHL correction:   -0.015896
       DOS:  cpu time      0.1323: real time      0.1328
    CHARGE:  cpu time      1.0318: real time      1.0360
    MIXING:  cpu time      0.0018: real time      0.0018
    --------------------------------------------
      LOOP:  cpu time     33.3791: real time     33.5087

 eigenvalue-minimisations  : 51374
 total energy-change (2. order) :-0.6797442E-01  (-0.8979158E-01)
 number of electron     160.0000027 magnetization       0.0000000
 augmentation part       58.7723569 magnetization       0.0000000

 Broyden mixing:
  rms(total) = 0.26070E+00    rms(broyden)= 0.26039E+00
  rms(prec ) = 0.32160E+00
  weight for this iteration     100.00

 eigenvalues of (default mixing * dielectric matrix)
  average eigenvalue GAMMA=   0.8915
  0.3077  1.2675  1.2675  0.7234

 Free energy of the ion-electron system (eV)
  ---------------------------------------------------
  alpha Z        PSCENC =       832.62814846
  Ewald energy   TEWEN  =    -11505.18643247
  -Hartree energ DENC   =     -8690.11643769
  -exchange      EXHF   =         0.00000000
  -V(xc)+E(xc)   XCENC  =       559.44881086
  PAW double counting   =     15624.77432083   -16234.92491992
  entropy T*S    EENTRO =         0.00000000
  eigenvalues    EBANDS =     -2388.90858483
  atomic energy  EATOM  =     21710.84102437
  Solvation  Ediel_sol  =         0.00000000
  ---------------------------------------------------
  free energy    TOTEN  =       -91.44407039 eV

  energy without entropy =      -91.44407039  energy(sigma->0) =      -91.44407039


--------------------------------------------------------------------------------------------------------




--------------------------------------- Iteration      1(  10)  ---------------------------------------


    POTLOK:  cpu time      0.1038: real time      0.1750
    SETDIJ:  cpu time      0.2734: real time      0.2741
    EDDIAG:  cpu time      4.4698: real time      4.4879
  RMM-DIIS:  cpu time     28.5607: real time     28.6671
    ORTHCH:  cpu time      0.5579: real time      0.5601
 BZINTS: Fermi energy:    3.981322;  160.000000 electrons
         Band energy:-0.239246E+04;  BLOECHL correction:   -0.013925
       DOS:  cpu time      0.1230: real time      0.1234
    CHARGE:  cpu time      1.0379: real time      1.0422
    MIXING:  cpu time      0.0020: real time      0.0020
    --------------------------------------------
      LOOP:  cpu time     35.1285: real time     35.3317

 eigenvalue-minimisations  : 51845
 total energy-change (2. order) :-0.1158739E-01  (-0.2672439E-01)
 number of electron     160.0000027 magnetization       0.0000000
 augmentation part       58.9795530 magnetization       0.0000000

 Broyden mixing:
  rms(total) = 0.12077E+00    rms(broyden)= 0.12053E+00
  rms(prec ) = 0.13715E+00
  weight for this iteration     100.00

 eigenvalues of (default mixing * dielectric matrix)
  average eigenvalue GAMMA=   1.0519
  2.1921  0.3077  1.0288  1.0288  0.7018

 Free energy of the ion-electron system (eV)
  ---------------------------------------------------
  alpha Z        PSCENC =       832.62814846
  Ewald energy   TEWEN  =    -11505.18643247
  -Hartree energ DENC   =     -8682.08740136
  -exchange      EXHF   =         0.00000000
  -V(xc)+E(xc)   XCENC  =       559.53796998
  PAW double counting   =     15697.75892362   -16312.48804527
  entropy T*S    EENTRO =         0.00000000
  eigenvalues    EBANDS =     -2392.45984511
  atomic energy  EATOM  =     21710.84102437
  Solvation  Ediel_sol  =         0.00000000
  ---------------------------------------------------
  free energy    TOTEN  =       -91.45565778 eV

  energy without entropy =      -91.45565778  energy(sigma->0) =      -91.45565778


--------------------------------------------------------------------------------------------------------




--------------------------------------- Iteration      1(  11)  ---------------------------------------


    POTLOK:  cpu time      0.0632: real time      0.0636
    SETDIJ:  cpu time      0.2714: real time      0.2722
    EDDIAG:  cpu time      4.4406: real time      4.4579
  RMM-DIIS:  cpu time     27.0059: real time     27.1051
    ORTHCH:  cpu time      0.5518: real time      0.5539
 BZINTS: Fermi energy:    3.988893;  160.000000 electrons
         Band energy:-0.239247E+04;  BLOECHL correction:   -0.014134
       DOS:  cpu time      0.1291: real time      0.1296
    CHARGE:  cpu time      1.0283: real time      1.0323
    MIXING:  cpu time      0.0020: real time      0.0020
    --------------------------------------------
      LOOP:  cpu time     33.4923: real time     33.6165

 eigenvalue-minimisations  : 49951
 total energy-change (2. order) :-0.4293747E-02  (-0.5493619E-02)
 number of electron     160.0000027 magnetization      -0.0000000
 augmentation part       58.9880482 magnetization      -0.0000000

 Broyden mixing:
  rms(total) = 0.42043E-01    rms(broyden)= 0.42004E-01
  rms(prec ) = 0.45006E-01
  weight for this iteration     100.00

 eigenvalues of (default mixing * dielectric matrix)
  average eigenvalue GAMMA=   1.0967
  1.8955  1.8955  0.3077  0.9106  0.9106  0.6605

 Free energy of the ion-electron system (eV)
  ---------------------------------------------------
  alpha Z        PSCENC =       832.62814846
  Ewald energy   TEWEN  =    -11505.18643247
  -Hartree energ DENC   =     -8679.84324560
  -exchange      EXHF   =         0.00000000
  -V(xc)+E(xc)   XCENC  =       559.59558205
  PAW double counting   =     15743.53211896   -16360.56130350
  entropy T*S    EENTRO =         0.00000000
  eigenvalues    EBANDS =     -2392.46584379
  atomic energy  EATOM  =     21710.84102437
  Solvation  Ediel_sol  =         0.00000000
  ---------------------------------------------------
  free energy    TOTEN  =       -91.45995153 eV

  energy without entropy =      -91.45995153  energy(sigma->0) =      -91.45995153


--------------------------------------------------------------------------------------------------------




--------------------------------------- Iteration      1(  12)  ---------------------------------------


    POTLOK:  cpu time      0.0503: real time      0.1166
    SETDIJ:  cpu time      0.2701: real time      0.2709
    EDDIAG:  cpu time      4.5438: real time      4.5617
  RMM-DIIS:  cpu time     26.8368: real time     26.9329
    ORTHCH:  cpu time      0.5751: real time      0.5773
 BZINTS: Fermi energy:    4.000530;  160.000000 electrons
         Band energy:-0.239190E+04;  BLOECHL correction:   -0.014191
       DOS:  cpu time      0.1328: real time      0.1333
    CHARGE:  cpu time      1.0609: real time      1.0661
    MIXING:  cpu time      0.0024: real time      0.0024
    --------------------------------------------
      LOOP:  cpu time     33.4723: real time     33.6612

 eigenvalue-minimisations  : 48667
 total energy-change (2. order) :-0.5835367E-02  (-0.1233369E-02)
 number of electron     160.0000027 magnetization       0.0000000
 augmentation part       58.9768874 magnetization       0.0000000

 Broyden mixing:
  rms(total) = 0.24197E-01    rms(broyden)= 0.24168E-01
  rms(prec ) = 0.28316E-01
  weight for this iteration     100.00

 eigenvalues of (default mixing * dielectric matrix)
  average eigenvalue GAMMA=   1.0894
  2.4429  0.3077  1.2244  1.2244  0.9768  0.8043  0.6454

 Free energy of the ion-electron system (eV)
  ---------------------------------------------------
  alpha Z        PSCENC =       832.62814846
  Ewald energy   TEWEN  =    -11505.18643247
  -Hartree energ DENC   =     -8680.53269998
  -exchange      EXHF   =         0.00000000
  -V(xc)+E(xc)   XCENC  =       559.61055180
  PAW double counting   =     15745.60985780   -16362.53524481
  entropy T*S    EENTRO =         0.00000000
  eigenvalues    EBANDS =     -2391.90099206
  atomic energy  EATOM  =     21710.84102437
  Solvation  Ediel_sol  =         0.00000000
  ---------------------------------------------------
  free energy    TOTEN  =       -91.46578690 eV

  energy without entropy =      -91.46578690  energy(sigma->0) =      -91.46578690


--------------------------------------------------------------------------------------------------------




--------------------------------------- Iteration      1(  13)  ---------------------------------------


    POTLOK:  cpu time      0.0860: real time      0.0865
    SETDIJ:  cpu time      0.2726: real time      0.2734
    EDDIAG:  cpu time      4.5468: real time      4.5643
  RMM-DIIS:  cpu time     21.9729: real time     22.0509
    ORTHCH:  cpu time      0.5551: real time      0.5576
 BZINTS: Fermi energy:    4.002378;  160.000000 electrons
         Band energy:-0.239185E+04;  BLOECHL correction:   -0.013975
       DOS:  cpu time      0.1313: real time      0.1317
    CHARGE:  cpu time      1.0058: real time      1.0097
    MIXING:  cpu time      0.0019: real time      0.0019
    --------------------------------------------
      LOOP:  cpu time     28.5723: real time     28.6760

 eigenvalue-minimisations  : 39948
 total energy-change (2. order) : 0.1355674E-03  (-0.3000765E-03)
 number of electron     160.0000027 magnetization       0.0000000
 augmentation part       58.9773577 magnetization       0.0000000

 Broyden mixing:
  rms(total) = 0.13815E-01    rms(broyden)= 0.13799E-01
  rms(prec ) = 0.16590E-01
  weight for this iteration     100.00

 eigenvalues of (default mixing * dielectric matrix)
  average eigenvalue GAMMA=   1.1190
  2.6036  0.3077  1.3323  1.3323  1.1356  0.8669  0.7317  0.6422

 Free energy of the ion-electron system (eV)
  ---------------------------------------------------
  alpha Z        PSCENC =       832.62814846
  Ewald energy   TEWEN  =    -11505.18643247
  -Hartree energ DENC   =     -8680.62723208
  -exchange      EXHF   =         0.00000000
  -V(xc)+E(xc)   XCENC  =       559.63809899
  PAW double counting   =     15747.28350484   -16364.19705229
  entropy T*S    EENTRO =         0.00000000
  eigenvalues    EBANDS =     -2391.84571115
  atomic energy  EATOM  =     21710.84102437
  Solvation  Ediel_sol  =         0.00000000
  ---------------------------------------------------
  free energy    TOTEN  =       -91.46565133 eV

  energy without entropy =      -91.46565133  energy(sigma->0) =      -91.46565133


--------------------------------------------------------------------------------------------------------




--------------------------------------- Iteration      1(  14)  ---------------------------------------


    POTLOK:  cpu time      0.0513: real time      0.1034
    SETDIJ:  cpu time      0.2700: real time      0.2709
    EDDIAG:  cpu time      4.3971: real time      4.4143
  RMM-DIIS:  cpu time     16.9715: real time     17.0315
    ORTHCH:  cpu time      0.5745: real time      0.5766
 BZINTS: Fermi energy:    4.001481;  160.000000 electrons
         Band energy:-0.239188E+04;  BLOECHL correction:   -0.013889
       DOS:  cpu time      0.1323: real time      0.1328
    --------------------------------------------
      LOOP:  cpu time     22.3968: real time     22.5294

 eigenvalue-minimisations  : 29451
 total energy-change (2. order) : 0.1672037E-03  (-0.9814272E-04)
 number of electron     160.0000027 magnetization       0.0000000
 augmentation part       58.9773577 magnetization       0.0000000

 Free energy of the ion-electron system (eV)
  ---------------------------------------------------
  alpha Z        PSCENC =       832.62814846
  Ewald energy   TEWEN  =    -11505.18643247
  -Hartree energ DENC   =     -8680.66576977
  -exchange      EXHF   =         0.00000000
  -V(xc)+E(xc)   XCENC  =       559.65101103
  PAW double counting   =     15748.26559048   -16365.12025400
  entropy T*S    EENTRO =         0.00000000
  eigenvalues    EBANDS =     -2391.87880223
  atomic energy  EATOM  =     21710.84102437
  Solvation  Ediel_sol  =         0.00000000
  ---------------------------------------------------
  free energy    TOTEN  =       -91.46548413 eV

  energy without entropy =      -91.46548413  energy(sigma->0) =      -91.46548413


--------------------------------------------------------------------------------------------------------




 average (electrostatic) potential at core
  the test charge radii are     0.9500  1.0808
  (the norm of the test charge is              1.0000)
       1 -47.1461       2 -47.1461       3 -47.1461       4 -47.1461       5 -47.1461
       6 -47.1461       7 -47.1461       8 -47.1461       9 -54.7915      10 -54.7915
      11 -54.7915      12 -54.7915      13 -54.7915      14 -54.7915      15 -54.7915
      16 -54.7915
 
 
 
 E-fermi :   4.0015     XC(G=0): -10.5598     alpha+bet : -9.5401

 Fermi energy:         4.0014814724

 spin component 1

 k-point     1 :       0.0000    0.0000    0.0000
  band No.  band energies     occupation 
      1     -50.7528      1.00000
      2     -50.7426      1.00000
      3     -50.7426      1.00000
      4     -50.7354      1.00000
      5     -50.6328      1.00000
      6     -50.5811      1.00000
      7     -50.5735      1.00000
      8     -50.5735      1.00000
      9     -50.5635      1.00000
     10     -50.4640      1.00000
     11     -50.4640      1.00000
     12     -50.2924      1.00000
     13     -47.9650      1.00000
     14     -47.9625      1.00000
     15     -47.9625      1.00000
     16     -47.9616      1.00000
     17     -47.9410      1.00000
     18     -47.7542      1.00000
     19     -47.7542      1.00000
     20     -47.6188      1.00000
     21     -47.6187      1.00000
     22     -47.6187      1.00000
     23     -47.6157      1.00000
     24     -47.5640      1.00000
     25     -10.4347      1.00000
     26      -9.2018      1.00000
     27      -9.2018      1.00000
     28      -9.1868      1.00000
     29      -9.1868      1.00000
     30      -8.9460      1.00000
     31      -8.6884      1.00000
     32      -8.5171      1.00000
     33      -2.1977      1.00000
     34      -1.9109      1.00000
     35      -0.9805      1.00000
     36      -0.9805      1.00000
     37      -0.9213      1.00000
     38      -0.9213      1.00000
[...]
 -0.000  -0.000   0.000   0.000   0.000  -0.000  -0.035  -0.000
 -0.000  -0.000  -0.000   0.000   0.000   0.000  -0.000  -0.100
  0.000   0.000  -0.000  -0.000  -0.000   0.000  -0.100   0.000
 -0.000  -0.000   0.000   0.000   0.000  -0.000   0.000  -0.147
  0.000  -0.000  -0.000  -0.000   0.000   0.000  -0.000   0.006
  0.000   0.000  -0.000  -0.000  -0.000   0.000   0.008   0.000
  0.000   0.000   0.000  -0.000  -0.000  -0.000   0.000   0.024
 -0.000  -0.000   0.000   0.000   0.000  -0.000   0.000  -0.010
  0.000   0.000  -0.000  -0.000  -0.000   0.000  -0.000   0.002
 pseudopotential strength for first ion, spin component:           2
-52.866   0.103  -0.000  26.586  -0.074   0.000  -0.000   0.000
  0.103 -52.886  -0.000  -0.074  26.600   0.000  -0.000   0.000
 -0.000  -0.000 -52.846   0.000   0.000  26.564   0.000  -0.000
 26.586  -0.074   0.000  -8.873   0.055  -0.000   0.000  -0.000
 -0.074  26.600   0.000   0.055  -8.883  -0.000   0.000  -0.000
  0.000   0.000  26.564  -0.000  -0.000  -8.860  -0.000   0.000
 -0.000  -0.000   0.000   0.000   0.000  -0.000  -6.637  -0.000
  0.000   0.000  -0.000  -0.000  -0.000   0.000  -0.000  -7.008
 -0.000   0.000   0.000   0.000  -0.000  -0.000   0.000   0.097
 -0.000  -0.000   0.000   0.000   0.000  -0.000   0.116  -0.000
 -0.000  -0.000  -0.000   0.000   0.000   0.000  -0.000   0.018
  0.000   0.000  -0.000  -0.000  -0.000   0.000  -0.595   0.000
 -0.000  -0.000   0.000   0.000   0.000  -0.000   0.000  -0.508
  0.000  -0.000  -0.000  -0.000   0.000   0.000  -0.000  -0.021
  0.000   0.000  -0.000  -0.000  -0.000   0.000  -0.025   0.000
  0.000   0.000   0.000  -0.000  -0.000  -0.000   0.000  -0.006
 -0.000  -0.000   0.000   0.000   0.000  -0.000   0.000  -0.012
  0.000   0.000  -0.000  -0.000  -0.000   0.000  -0.000   0.003
 total augmentation occupancy for first ion, spin component:           1
  2.010  -0.019   0.000   0.056  -0.045   0.000   0.000   0.000   0.000   0.000   0.000   0.000   0.000   0.000   0.000   0.000
 -0.019   2.013  -0.000  -0.045   0.065  -0.000   0.000   0.000   0.000   0.000   0.000   0.000   0.000   0.000   0.000   0.000
  0.000  -0.000   2.009  -0.000   0.000   0.052   0.000   0.000   0.000   0.000   0.000   0.000   0.000   0.000   0.000  -0.000
  0.056  -0.045   0.000   0.194  -0.109   0.000   0.000   0.000   0.000   0.000  -0.000  -0.000  -0.000   0.000   0.000  -0.000
 -0.045   0.065   0.000  -0.109   0.216  -0.000  -0.000   0.000  -0.000   0.000   0.000  -0.000  -0.000  -0.000   0.000   0.000
  0.000   0.000   0.052  -0.000  -0.000   0.177  -0.000  -0.000   0.000   0.000  -0.000   0.000   0.000   0.000  -0.000   0.000
  0.000   0.000   0.000   0.000  -0.000  -0.000   1.249   0.000   0.000  -0.099   0.000  -0.071   0.000   0.000  -0.057  -0.000
  0.000   0.000   0.000   0.000   0.000  -0.000   0.000   1.468  -0.010  -0.000  -0.094   0.000   0.089  -0.142  -0.000   0.097
  0.000  -0.000   0.000  -0.000   0.000   0.000  -0.000  -0.010   1.298   0.000  -0.156   0.000  -0.143   0.058  -0.000  -0.085
  0.000   0.000  -0.000   0.000   0.000   0.000  -0.099  -0.000   0.000   1.239   0.000  -0.058   0.000   0.000  -0.047  -0.000
  0.000   0.000  -0.000  -0.000  -0.000  -0.000   0.000  -0.094  -0.156   0.000   1.507  -0.000   0.101  -0.083   0.000   0.150
  0.000   0.000   0.000  -0.000  -0.000   0.000  -0.071   0.000  -0.000  -0.058   0.000   0.164  -0.000  -0.000  -0.026  -0.000
 -0.000  -0.000  -0.000  -0.000  -0.000   0.000   0.000   0.089  -0.143   0.000   0.101   0.000   0.247  -0.071   0.000   0.090
  0.000   0.000   0.000  -0.000  -0.000   0.000   0.000  -0.142   0.058  -0.000  -0.083  -0.000  -0.071   0.169   0.000  -0.012
  0.000   0.000  -0.000   0.000   0.000  -0.000  -0.057   0.000  -0.000  -0.047  -0.000  -0.026  -0.000   0.000   0.159  -0.000
 -0.000   0.000   0.000   0.000   0.000   0.000  -0.000   0.097  -0.085  -0.000   0.150   0.000   0.090  -0.012   0.000   0.139
 -0.000   0.000   0.000   0.000   0.000   0.000  -0.000  -0.009  -0.039  -0.000   0.091   0.000  -0.325   0.029   0.000  -0.007
  0.000  -0.000   0.000  -0.000   0.000   0.000   0.000   0.002   0.021   0.000  -0.018   0.000   0.021  -0.005   0.000   0.003
 total augmentation occupancy for first ion, spin component:           2
 -0.006   0.000   0.000  -0.002  -0.000  -0.000  -0.000   0.000   0.000   0.000   0.000  -0.000   0.000   0.000  -0.000   0.000
  0.000  -0.008  -0.000  -0.000  -0.008   0.000  -0.000   0.000   0.000  -0.000   0.000  -0.000   0.000  -0.000  -0.000   0.000
  0.000  -0.000  -0.007  -0.000   0.000  -0.005  -0.000  -0.000  -0.000  -0.000  -0.000   0.000  -0.000   0.000   0.000   0.000
 -0.002  -0.000   0.000   0.014  -0.002  -0.000   0.000  -0.000  -0.000   0.000   0.000   0.000   0.000   0.000   0.000   0.000
 -0.000  -0.008   0.000  -0.002   0.002   0.000  -0.000   0.000   0.000   0.000   0.000  -0.000   0.000   0.000   0.000   0.000
  0.000   0.000  -0.005   0.000   0.000   0.010  -0.000   0.000  -0.000  -0.000   0.000   0.000   0.000   0.000  -0.000   0.000
 -0.000  -0.000  -0.000   0.000  -0.000  -0.000   0.704  -0.000   0.000   0.118   0.000  -0.271   0.000   0.000   0.006  -0.000
 -0.000   0.000   0.000  -0.000   0.000   0.000   0.000   0.378   0.101   0.000   0.044  -0.000  -0.199  -0.005   0.000  -0.032
  0.000   0.000  -0.000  -0.000  -0.000  -0.000   0.000   0.101   0.547   0.000   0.200   0.000  -0.005  -0.217   0.000  -0.028
  0.000  -0.000   0.000   0.000   0.000  -0.000   0.118   0.000   0.000   0.686  -0.000   0.008  -0.000   0.000  -0.267  -0.000
  0.000  -0.000  -0.000   0.000  -0.000  -0.000   0.000   0.044   0.200   0.000   0.251   0.000  -0.017  -0.022  -0.000  -0.153
 -0.000  -0.000   0.000   0.000  -0.000   0.000  -0.271   0.000  -0.000   0.008  -0.000   0.054   0.000   0.000   0.006   0.000
 -0.000   0.000  -0.000   0.000   0.000   0.000   0.000  -0.199  -0.005   0.000  -0.017   0.000   0.008   0.024  -0.000  -0.002
  0.000   0.000   0.000   0.000   0.000   0.000   0.000  -0.005  -0.217  -0.000  -0.022  -0.000   0.024   0.012  -0.000   0.010
 -0.000  -0.000  -0.000   0.000   0.000   0.000   0.006   0.000  -0.000  -0.267  -0.000   0.006   0.000  -0.000   0.039   0.000
  0.000   0.000   0.000   0.000   0.000   0.000   0.000  -0.032  -0.028  -0.000  -0.153  -0.000  -0.002   0.010   0.000  -0.013
  0.000  -0.000   0.000  -0.000  -0.000   0.000   0.000   0.123   0.023  -0.000  -0.049   0.000  -0.034   0.004  -0.000  -0.026
  0.000  -0.000  -0.000   0.000  -0.000   0.000   0.000   0.015   0.018   0.000  -0.020  -0.000  -0.003  -0.002  -0.000   0.000


------------------------ aborting loop because EDIFF is reached ----------------------------------------





 total charge

# of ion       s       p       d       tot
------------------------------------------
    1        0.343   6.296   6.075  12.713
    2        0.343   6.296   6.075  12.713
    3        0.343   6.296   6.075  12.713
    4        0.343   6.296   6.075  12.713
    5        0.343   6.296   6.075  12.713
    6        0.343   6.296   6.075  12.713
    7        0.343   6.296   6.075  12.713
    8        0.343   6.296   6.075  12.713
    9        1.490   2.260   0.055   3.806
   10        1.490   2.260   0.055   3.806
   11        1.490   2.260   0.055   3.806
   12        1.490   2.260   0.055   3.806
   13        1.490   2.260   0.055   3.806
   14        1.490   2.260   0.055   3.806
   15        1.490   2.260   0.055   3.806
   16        1.490   2.260   0.055   3.806
--------------------------------------------------
tot         14.666  68.447  49.042 132.154



 magnetization (x)

# of ion       s       p       d       tot
------------------------------------------
    1        0.027   0.013   2.501   2.542
    2       -0.027  -0.013  -2.501  -2.542
    3       -0.027  -0.013  -2.501  -2.542
    4        0.027   0.013   2.501   2.542
    5        0.027   0.013   2.501   2.542
    6       -0.027  -0.013  -2.501  -2.542
    7       -0.027  -0.013  -2.501  -2.542
    8        0.027   0.013   2.501   2.542
    9        0.000   0.000   0.000   0.000
   10        0.000   0.000   0.000   0.000
   11        0.000   0.000   0.000   0.000
   12        0.000   0.000   0.000   0.000
   13        0.000   0.000   0.000   0.000
   14        0.000   0.000   0.000   0.000
   15        0.000   0.000   0.000   0.000
   16        0.000   0.000   0.000   0.000
--------------------------------------------------
tot         -0.000   0.000   0.000   0.000
 
    CHARGE:  cpu time      1.0426: real time      1.0470
    FORLOC:  cpu time      0.0032: real time      0.0032
    FORNL :  cpu time      7.2441: real time      7.2712
    STRESS:  cpu time     21.5711: real time     21.6494
    FORCOR:  cpu time      0.0480: real time      0.0482
    FORHAR:  cpu time      0.0071: real time      0.0071
    MIXING:  cpu time      0.0017: real time      0.0017
    OFIELD:  cpu time      0.0000: real time      0.0000
    FORVDW:  cpu time      0.7843: real time      0.7866

  FORCE on cell =-STRESS in cart. coord.  units (eV):
  Direction    XX          YY          ZZ          XY          YZ          ZX
  --------------------------------------------------------------------------------------
  Alpha Z   832.62815   832.62815   832.62815
  Ewald   -1212.53589 -2023.92746 -8268.74654     0.00000     0.00000     0.00000
  Hartree  5287.66060  4545.00445 -1150.98054     0.00000     0.00000    -0.00000
  E(xc)    -896.94205  -899.15529  -898.24988    -0.00000     0.00000    -0.00000
  Local   -5961.40146 -4414.29124  7553.15259    -0.00000     0.00000    -0.00000
  n-local  -276.61932  -248.96192  -241.30844    -0.80134    -0.33232    -0.90245
  augment   530.30871   515.76707   513.13620     0.00000     0.00000    -0.00000
  Kinetic  1702.41383  1698.14132  1665.80701     3.74461    -0.33712     0.31078
  Fock        0.00000     0.00000     0.00000     0.00000     0.00000     0.00000
  vdW        -6.39032    -6.44809    -6.69641    -0.00000    -0.00000     0.00000
  -------------------------------------------------------------------------------------
  Total      -0.87776    -1.24301    -1.25785     0.00000    -0.00000     0.00000
  in kB      -4.61092    -6.52958    -6.60754     0.00000    -0.00000     0.00000
  external pressure =       -5.92 kB  Pullay stress =        0.00 kB


 VOLUME and BASIS-vectors are now :
 -----------------------------------------------------------------------------
  energy-cutoff  :      550.00
  volume of cell :      305.00
      direct lattice vectors                 reciprocal lattice vectors
     4.810593261 -5.684288877  0.000000000     0.103937284 -0.087961750  0.000000000
     4.810593261  5.684288877  0.000000000     0.103937284  0.087961750  0.000000000
     0.000000000  0.000000000  5.576928343     0.000000000  0.000000000  0.179310176

  length of vectors
     7.446673591  7.446673591  5.576928343     0.136162508  0.136162508  0.179310176


 FORCES acting on ions
    electron-ion (+dipol)            ewald-force                    non-local-force                 convergence-correction
 -----------------------------------------------------------------------------------------------
   0.214E-13 -.110E-12 0.311E-13   -.568E-13 -.391E-13 -.711E-14   0.154E-22 0.364E-21 -.262E-21   0.328E-12 -.304E-12 -.317E-12
   0.703E-12 0.744E-12 0.478E-13   -.543E-13 -.462E-13 -.799E-14   0.843E-21 -.289E-21 -.270E-22   -.555E-13 -.204E-13 -.355E-12
   0.651E-12 -.157E-11 -.117E-10   -.589E-13 -.284E-13 -.284E-13   0.474E-21 -.236E-21 -.282E-21   0.213E-12 0.688E-12 -.316E-12
   -.503E-11 -.964E-11 -.878E-11   -.568E-13 -.355E-13 -.249E-13   0.315E-21 0.716E-21 0.173E-21   -.247E-12 -.385E-12 -.253E-12
   -.265E-11 -.401E-11 -.374E-11   0.534E-13 0.128E-12 -.977E-14   -.376E-21 -.109E-20 0.407E-22   0.306E-12 0.776E-13 -.132E-12
   0.438E-11 0.573E-11 -.435E-11   0.711E-13 0.128E-12 -.107E-13   -.549E-21 0.253E-21 0.210E-21   -.266E-12 0.311E-12 -.103E-12
   -.149E-10 -.292E-10 0.368E-10   0.711E-13 0.131E-12 0.320E-13   -.489E-21 0.117E-21 -.280E-21   0.344E-12 0.749E-12 -.661E-12
   0.815E-12 -.609E-11 0.350E-10   0.885E-13 0.142E-12 0.284E-13   -.111E-21 0.220E-21 -.300E-21   -.220E-12 -.446E-12 -.538E-12
   -.579E-07 0.261E-11 0.316E+03   -.790E-14 -.497E-13 -.317E+03   -.242E-17 -.108E-18 0.109E+01   0.176E-12 0.869E-13 -.166E-01
   -.579E-07 -.389E-12 0.316E+03   -.711E-14 -.247E-13 -.317E+03   0.223E-17 -.840E-17 0.109E+01   -.554E-13 -.210E-12 -.166E-01
   -.579E-07 -.236E-11 0.316E+03   -.711E-14 -.497E-13 -.317E+03   -.250E-17 0.359E-17 0.109E+01   0.308E-13 0.127E-12 -.166E-01
   -.579E-07 -.103E-12 0.316E+03   -.696E-14 -.284E-13 -.317E+03   0.525E-17 0.245E-17 0.109E+01   -.186E-12 0.263E-13 -.166E-01
   0.579E-07 -.255E-13 -.316E+03   -.796E-14 -.597E-13 0.317E+03   -.735E-19 -.482E-17 -.109E+01   0.661E-13 -.762E-13 0.166E-01
   0.579E-07 0.313E-13 -.316E+03   -.611E-14 -.499E-13 0.317E+03   -.405E-19 0.248E-17 -.109E+01   0.573E-14 -.736E-14 0.166E-01
   0.579E-07 -.791E-12 -.316E+03   -.844E-14 -.463E-13 0.317E+03   -.391E-19 0.226E-17 -.109E+01   -.265E-13 0.112E-12 0.166E-01
   0.579E-07 0.399E-12 -.316E+03   -.617E-14 -.469E-13 0.317E+03   -.830E-19 -.443E-17 -.109E+01   -.680E-13 -.524E-13 0.166E-01
 -----------------------------------------------------------------------------------------------
   -.170E-10 -.448E-10 0.428E-10   -.669E-15 0.249E-13 0.114E-12   0.232E-17 -.697E-17 -.444E-15   0.344E-12 0.676E-12 -.237E-11
 
 
 POSITION                                       TOTAL-FORCE (eV/Angst)
 -----------------------------------------------------------------------------------
      0.00000      0.00000      0.00000        -0.000000     -0.000000      0.000000
      2.40530      2.84214      0.00000        -0.000000     -0.000000      0.000000
      2.40530     -2.84214      0.00000        -0.000000     -0.000000      0.000000
      4.81059      0.00000      0.00000        -0.000000     -0.000000      0.000000
      2.40530      0.00000      0.00000        -0.000000     -0.000000      0.000000
      4.81059      2.84214      0.00000        -0.000000     -0.000000      0.000000
      4.81059     -2.84214      0.00000        -0.000000     -0.000000      0.000000
      7.21589      0.00000      0.00000        -0.000000     -0.000000      0.000000
      2.40530     -1.42107      3.77608         0.000000     -0.000000      0.005159
      4.81059      1.42107      3.77608         0.000000      0.000000      0.005159
      4.81059     -4.26322      3.77608         0.000000      0.000000      0.005159
      7.21589     -1.42107      3.77608        -0.000000     -0.000000      0.005159
      2.40530      1.42107      1.80085         0.000000     -0.000000     -0.005159
      4.81059      4.26322      1.80085        -0.000000     -0.000000     -0.005159
      4.81059     -1.42107      1.80085        -0.000000      0.000000     -0.005159
      7.21589      1.42107      1.80085         0.000000     -0.000000     -0.005159
 -----------------------------------------------------------------------------------
    total drift:                               -0.000000     -0.000000      0.000000


--------------------------------------------------------------------------------------------------------



  FREE ENERGIE OF THE ION-ELECTRON SYSTEM (eV)
  ---------------------------------------------------
  free  energy   TOTEN  =       -98.38387610 eV

  energy  without entropy=      -98.38387610  energy(sigma->0) =      -98.38387610
 


--------------------------------------------------------------------------------------------------------


    POTLOK:  cpu time      0.3402: real time      0.3496


--------------------------------------------------------------------------------------------------------


     LOOP+:  cpu time    467.3617: real time    469.6641
 -----------------------------------------------------------------------------
|                                                                             |
|           W    W    AA    RRRRR   N    N  II  N    N   GGGG   !!!           |
|           W    W   A  A   R    R  NN   N  II  NN   N  G    G  !!!           |
|           W    W  A    A  R    R  N N  N  II  N N  N  G       !!!           |
|           W WW W  AAAAAA  RRRRR   N  N N  II  N  N N  G  GGG   !            |
|           WW  WW  A    A  R   R   N   NN  II  N   NN  G    G                |
|           W    W  A    A  R    R  N    N  II  N    N   GGGG   !!!           |
|                                                                             |
|     Tetrahedron method does not include variations of the Fermi             |
|     occupations, so forces and stress will be inaccurate. We suggest        |
|     using a different smearing scheme ISMEAR = 1 or 2 for metals in         |
|     relaxations.                                                            |
|                                                                             |
 -----------------------------------------------------------------------------

    4ORBIT:  cpu time      0.0000: real time      0.0000



 total charge

# of ion       s       p       d       tot
------------------------------------------
    1        0.343   6.296   6.075  12.713
    2        0.343   6.296   6.075  12.713
    3        0.343   6.296   6.075  12.713
    4        0.343   6.296   6.075  12.713
    5        0.343   6.296   6.075  12.713
    6        0.343   6.296   6.075  12.713
    7        0.343   6.296   6.075  12.713
    8        0.343   6.296   6.075  12.713
    9        1.490   2.260   0.055   3.806
   10        1.490   2.260   0.055   3.806
   11        1.490   2.260   0.055   3.806
   12        1.490   2.260   0.055   3.806
   13        1.490   2.260   0.055   3.806
   14        1.490   2.260   0.055   3.806
   15        1.490   2.260   0.055   3.806
   16        1.490   2.260   0.055   3.806
--------------------------------------------------
tot         14.666  68.447  49.042 132.154



 magnetization (x)

# of ion       s       p       d       tot
------------------------------------------
    1        0.027   0.013   2.501   2.542
    2       -0.027  -0.013  -2.501  -2.542
    3       -0.027  -0.013  -2.501  -2.542
    4        0.027   0.013   2.501   2.542
    5        0.027   0.013   2.501   2.542
    6       -0.027  -0.013  -2.501  -2.542
    7       -0.027  -0.013  -2.501  -2.542
    8        0.027   0.013   2.501   2.542
    9        0.000   0.000   0.000   0.000
   10        0.000   0.000   0.000   0.000
   11        0.000   0.000   0.000   0.000
   12        0.000   0.000   0.000   0.000
   13        0.000   0.000   0.000   0.000
   14        0.000   0.000   0.000   0.000
   15        0.000   0.000   0.000   0.000
   16        0.000   0.000   0.000   0.000
--------------------------------------------------
tot         -0.000   0.000   0.000   0.000
 
 BZINTS: Fermi energy:    4.001481;  160.000000 electrons
         Band energy:-0.239188E+04;  BLOECHL correction:   -0.013889

 total amount of memory used by VASP MPI-rank0   185395. kBytes
=======================================================================

   base      :      30000. kBytes
   nonlr-proj:      14238. kBytes
   fftplans  :       3084. kBytes
   grid      :      19560. kBytes
   one-center:        497. kBytes
   wavefun   :     118016. kBytes
 
  
  
 General timing and accounting informations for this job:
 ========================================================
  
                  Total CPU time used (sec):      492.761
                            User time (sec):      490.827
                          System time (sec):        1.934
                         Elapsed time (sec):      496.251
  
                   Maximum memory used (kb):      474892.
                   Average memory used (kb):          N/A
  
                          Minor page faults:       187992
                          Major page faults:            0
                 Voluntary context switches:        36132
