 running   20 mpi-ranks, on    5 nodes
 distrk:  each k-point on   20 cores,    1 groups
 distr:  one band on    1 cores,   20 groups
 vasp.6.4.1 05Apr23 (build Jun 01 2023 13:46:15) complex                        
  
 POSCAR found type information on POSCAR FeSe
 POSCAR found :  2 types and      16 ions
 Reading from existing POTCAR
 scaLAPACK will be used
 -----------------------------------------------------------------------------
|                                                                             |
|           W    W    AA    RRRRR   N    N  II  N    N   GGGG   !!!           |
|           W    W   A  A   R    R  NN   N  II  NN   N  G    G  !!!           |
|           W    W  A    A  R    R  N N  N  II  N N  N  G       !!!           |
|           W WW W  AAAAAA  RRRRR   N  N N  II  N  N N  G  GGG   !            |
|           WW  WW  A    A  R   R   N   NN  II  N   NN  G    G                |
|           W    W  A    A  R    R  N    N  II  N    N   GGGG   !!!           |
|                                                                             |
|     For optimal performance we recommend to set                             |
|       NCORE = 2 up to number-of-cores-per-socket                            |
|     NCORE specifies how many cores store one orbital (NPAR=cpu/NCORE).      |
|     This setting can greatly improve the performance of VASP for DFT.       |
|     The default, NCORE=1 might be grossly inefficient on modern             |
|     multi-core architectures or massively parallel machines. Do your        |
|     own testing! More info at https://www.vasp.at/wiki/index.php/NCORE      |
|     Unfortunately you need to use the default for GW and RPA                |
|     calculations (for HF NCORE is supported but not extensively tested      |
|     yet).                                                                   |
|                                                                             |
 -----------------------------------------------------------------------------

 Reading from existing POTCAR
 LDA part: xc-table for Pade appr. of Perdew
 POSCAR, INCAR and KPOINTS ok, starting setup
 FFT: planning ... GRIDC
 FFT: planning ... GRID_SOFT
 FFT: planning ... GRID
 WAVECAR not read
 WARNING: random wavefunctions but no delay for mixing, default for NELMDL
 entering main loop
       N       E                     dE             d eps       ncg     rms          rms(c)
DAV:   1     0.202297238884E+04    0.20230E+04   -0.88938E+04 35040   0.197E+03
DAV:   2     0.121361329323E+03   -0.19016E+04   -0.18470E+04 32000   0.576E+02
DAV:   3    -0.847627744433E+02   -0.20612E+03   -0.18334E+03 45720   0.188E+02
DAV:   4    -0.991225722081E+02   -0.14360E+02   -0.14026E+02 47060   0.510E+01
DAV:   5    -0.994510209643E+02   -0.32845E+00   -0.32770E+00 44820   0.822E+00    0.275E+01
RMM:   6    -0.113148840104E+03   -0.13698E+02   -0.16919E+02 32057   0.844E+01    0.516E+01
RMM:   7    -0.908269566428E+02    0.22322E+02   -0.43099E+01 32009   0.505E+01    0.105E+01
RMM:   8    -0.913888126481E+02   -0.56186E+00   -0.29232E+00 41151   0.500E+00    0.485E+00
RMM:   9    -0.914533218127E+02   -0.64509E-01   -0.83047E-01 45150   0.276E+00    0.251E+00
RMM:  10    -0.914645875766E+02   -0.11266E-01   -0.25995E-01 45874   0.154E+00    0.113E+00
RMM:  11    -0.914706292226E+02   -0.60416E-02   -0.51866E-02 43127   0.884E-01    0.384E-01
RMM:  12    -0.914756561608E+02   -0.50269E-02   -0.12864E-02 43281   0.360E-01    0.210E-01
RMM:  13    -0.914756968842E+02   -0.40723E-04   -0.28036E-03 33228   0.183E-01    0.113E-01
RMM:  14    -0.914756952498E+02    0.16345E-05   -0.86695E-04 22909   0.119E-01
   1 F= -.98394087E+02 E0= -.98384586E+02  d E =-.983941E+02  mag=     0.0000
 curvature:   0.00 expect dE= 0.000E+00 dE for cont linesearch  0.000E+00
 trial: gam= 0.00000 g(F)=  0.173E-04 g(S)=  0.115E-03 ort = 0.000E+00 (trialstep = 0.100E+01)
 search vector abs. value=  0.132E-03
 reached required accuracy - stopping structural energy minimisation
