unknown system                          
           1
     4.810593   -5.684289    0.000000
     4.810593    5.684289    0.000000
     0.000000    0.000000    5.576928
   Fe   Se
     8     8
unknown system                          
           1
     4.810593   -5.684289    0.000000
     4.810593    5.684289    0.000000
     0.000000    0.000000    5.576928
   Fe   Se
     8     8
Direct configuration=     1
   0.00000000  0.00000000  0.00000000
   0.00000000  0.50000000  0.00000000
   0.50000000  0.00000000  0.00000000
   0.50000000  0.50000000  0.00000000
   0.25000000  0.25000000  0.00000000
   0.25000000  0.75000000  0.00000000
   0.75000000  0.25000000  0.00000000
   0.75000000  0.75000000  0.00000000
   0.37500000  0.12500000  0.67708873
   0.37500000  0.62500000  0.67708873
   0.87500000  0.12500000  0.67708873
   0.87500000  0.62500000  0.67708873
   0.12500000  0.37500000  0.32291127
   0.12500000  0.87500000  0.32291127
   0.62500000  0.37500000  0.32291127
   0.62500000  0.87500000  0.32291127
