       N       E                     dE             d eps       ncg     rms          rms(c)
DAV:   1     0.175948349995E+04    0.17595E+04   -0.83757E+04 43136   0.185E+03
DAV:   2     0.607503336767E+01   -0.17534E+04   -0.16630E+04 43008   0.486E+02
DAV:   3    -0.102961159463E+03   -0.10904E+03   -0.10771E+03 50432   0.130E+02
DAV:   4    -0.104437792132E+03   -0.14766E+01   -0.14763E+01 45952   0.152E+01
DAV:   5    -0.104463301053E+03   -0.25509E-01   -0.25508E-01 53184   0.195E+00    0.440E+01
DAV:   6    -0.108957195436E+03   -0.44939E+01   -0.16478E+02 52864   0.582E+01    0.590E+01
DAV:   7    -0.120978822303E+03   -0.12022E+02   -0.32917E+02 52896   0.662E+01    0.791E+01
DAV:   8    -0.961015384388E+02    0.24877E+02   -0.22069E+02 51776   0.482E+01    0.292E+01
DAV:   9    -0.109611328957E+03   -0.13510E+02   -0.21345E+02 49472   0.432E+01    0.556E+01
DAV:  10    -0.931163555549E+02    0.16495E+02   -0.38080E+01 49632   0.278E+01    0.213E+01
DAV:  11    -0.932525074437E+02   -0.13615E+00   -0.25739E+01 51808   0.199E+01    0.251E+01
DAV:  12    -0.916865310974E+02    0.15660E+01   -0.16958E+01 50944   0.124E+01    0.702E+00
DAV:  13    -0.918169218270E+02   -0.13039E+00   -0.19763E+00 52640   0.482E+00    0.725E+00
DAV:  14    -0.918226552093E+02   -0.57334E-02   -0.13137E+00 52896   0.327E+00    0.667E+00
DAV:  15    -0.918533835149E+02   -0.30728E-01   -0.34305E-01 52128   0.193E+00    0.571E+00
DAV:  16    -0.918673365953E+02   -0.13953E-01   -0.12231E-01 51328   0.136E+00    0.571E+00
DAV:  17    -0.919375927590E+02   -0.70256E-01   -0.91046E-02 51712   0.113E+00    0.577E+00
DAV:  18    -0.921592351546E+02   -0.22164E+00   -0.82858E-01 52128   0.300E+00    0.528E+00
DAV:  19    -0.923665251354E+02   -0.20729E+00   -0.16881E+00 52032   0.486E+00    0.363E+00
DAV:  20    -0.923747330634E+02   -0.82079E-02   -0.14624E-01 50080   0.125E+00    0.274E+00
DAV:  21    -0.924052052335E+02   -0.30472E-01   -0.16355E-01 51616   0.125E+00    0.197E+00
DAV:  22    -0.924234637710E+02   -0.18259E-01   -0.12382E-01 49472   0.146E+00    0.124E+00
DAV:  23    -0.924258945550E+02   -0.24308E-02   -0.13145E-01 52960   0.127E+00    0.110E+00
DAV:  24    -0.924273606601E+02   -0.14661E-02   -0.57905E-02 51328   0.114E+00    0.588E-01
DAV:  25    -0.924286294305E+02   -0.12688E-02   -0.87794E-03 52320   0.375E-01    0.286E-01
DAV:  26    -0.924290271392E+02   -0.39771E-03   -0.18646E-03 52352   0.165E-01    0.113E-01
DAV:  27    -0.924288499203E+02    0.17722E-03   -0.13015E-03 51168   0.159E-01    0.168E-01
DAV:  28    -0.924290498139E+02   -0.19989E-03   -0.14011E-03 51136   0.152E-01    0.401E-02
DAV:  29    -0.924290735132E+02   -0.23699E-04   -0.38415E-05 48960   0.260E-02    0.243E-02
DAV:  30    -0.924290767785E+02   -0.32653E-05   -0.14307E-05 51680   0.183E-02    0.965E-03
DAV:  31    -0.924290791734E+02   -0.23949E-05   -0.37436E-06 37216   0.957E-03    0.644E-03
DAV:  32    -0.924290759159E+02    0.32575E-05   -0.18965E-06 27392   0.685E-03    0.537E-03
DAV:  33    -0.924290737794E+02    0.21365E-05   -0.38261E-07 26752   0.305E-03    0.302E-03
DAV:  34    -0.924290744984E+02   -0.71898E-06   -0.18029E-07 25664   0.224E-03
   1 F= -.92429074E+02 E0= -.92429074E+02  d E =0.000000E+00  mag=    11.9038
