 vasp.6.4.3 19Mar24 (build Mar 26 2024 14:05:37) complex                        
  
 executed on             LinuxIFC date 2024.12.17  13:07:57
 running  128 mpi-ranks, on    1 nodes
 distrk:  each k-point on   32 cores,    4 groups
 distr:  one band on NCORE=   1 cores,   32 groups


--------------------------------------------------------------------------------------------------------


 INCAR:
   ALGO = Normal
   EDIFF = 1e-06
   EDIFFG = -0.01
   ENCUT = 520
   GGA = Pe
   IBRION = -1
   ISIF = 4
   ISMEAR = -5
   ISPIN = 2
   KPAR = 4
   LCHARG = True
   LORBIT = 11
   LREAL = False
   LWAVE = False
   MAGMOM = 1*-1.948 2*2.31 2*2.017 1*2.42 1*-1.948 2*2.31 2*0.024 1*0.249
   NELM = 200
   NSW = 0
   PREC = Accurate
   SIGMA = 0.2

 POTCAR:    PAW_PBE Fe_pv 02Aug2007               
 POTCAR:    PAW_PBE Pt 04Feb2005                  
 -----------------------------------------------------------------------------
|                                                                             |
|           W    W    AA    RRRRR   N    N  II  N    N   GGGG   !!!           |
|           W    W   A  A   R    R  NN   N  II  NN   N  G    G  !!!           |
|           W    W  A    A  R    R  N N  N  II  N N  N  G       !!!           |
|           W WW W  AAAAAA  RRRRR   N  N N  II  N  N N  G  GGG   !            |
|           WW  WW  A    A  R   R   N   NN  II  N   NN  G    G                |
|           W    W  A    A  R    R  N    N  II  N    N   GGGG   !!!           |
|                                                                             |
|     For optimal performance we recommend to set                             |
|       NCORE = 2 up to number-of-cores-per-socket                            |
|     NCORE specifies how many cores store one orbital (NPAR=cpu/NCORE).      |
|     This setting can greatly improve the performance of VASP for DFT.       |
|     The default, NCORE=1 might be grossly inefficient on modern             |
|     multi-core architectures or massively parallel machines. Do your        |
|     own testing! More info at https://www.vasp.at/wiki/index.php/NCORE      |
|     Unfortunately you need to use the default for GW and RPA                |
|     calculations (for HF NCORE is supported but not extensively tested      |
|     yet).                                                                   |
|                                                                             |
 -----------------------------------------------------------------------------

 POTCAR:    PAW_PBE Fe_pv 02Aug2007               
   SHA256 =  5d22e414b1f82158bf2c7ecb8b97b28fd0923e48cadc1c3bf74d524558f5dd32 Fe_pv/POTCAR          
   COPYR  = (c) Copyright 02Aug2007 Georg Kresse                                                    
   COPYR  = This file is part of the software VASP. Any use, copying, and all other rights are regul
   COPYR  = If you do not have a valid VASP license, you may not use, copy or distribute this file. 
   VRHFIN =Fe:  3pd7s1                                                                              
   LEXCH  = PE                                                                                      
   EATOM  =  2457.4239 eV,  180.6156 Ry                                                             
                                                                                                    
   TITEL  = PAW_PBE Fe_pv 02Aug2007                                                                 
   LULTRA =        F    use ultrasoft PP ?                                                          
   IUNSCR =        1    unscreen: 0-lin 1-nonlin 2-no                                               
   RPACOR =    1.750    partial core radius                                                         
   POMASS =   55.847; ZVAL   =   14.000    mass and valenz                                          
   RCORE  =    2.200    outmost cutoff radius                                                       
   RWIGS  =    2.200; RWIGS  =    1.164    wigner-seitz radius (au A)                               
   ENMAX  =  293.238; ENMIN  =  219.928 eV                                                          
   ICORE  =        3    local potential                                                             
   LCOR   =        T    correct aug charges                                                         
   LPAW   =        T    paw PP                                                                      
   EAUG   =  578.342                                                                                
   DEXC   =    0.000                                                                                
   RMAX   =    2.249    core radius for proj-oper                                                   
   RAUG   =    1.300    factor for augmentation sphere                                              
   RDEP   =    2.296    radius for radial grids                                                     
   RDEPT  =    1.766    core radius for aug-charge                                                  
                                                                                                    
   Atomic configuration                                                                             
    8 entries                                                                                       
     n  l   j            E        occ.                                                              
     1  0  0.50     -6993.8440   2.0000                                                             
     2  0  0.50      -814.6047   2.0000                                                             
     2  1  1.50      -693.3689   6.0000                                                             
     3  0  0.50       -89.4732   2.0000                                                             
     3  1  1.50       -55.6373   6.0000                                                             
     3  2  2.50        -3.8151   7.0000                                                             
     4  0  0.50        -4.2551   1.0000                                                             
     4  3  2.50        -1.3606   0.0000                                                             
   Description                                                                                      
     l       E           TYP  RCUT    TYP  RCUT                                                     
     1    -55.6372668     23  2.000                                                                 
     1     -5.4423304     23  2.000                                                                 
     2     -3.8151096     23  2.200                                                                 
     2     -5.1756922     23  2.200                                                                 
     0     -4.2550951     23  2.200                                                                 
     0     27.2116520     23  2.200                                                                 
     3     -1.3605826     23  2.200                                                                 
  local pseudopotential read in
  partial core-charges read in
  partial kinetic energy density read in
  atomic valenz-charges read in
  non local Contribution for L=           1  read in
    real space projection operators read in
  non local Contribution for L=           1  read in
    real space projection operators read in
  non local Contribution for L=           2  read in
    real space projection operators read in
  non local Contribution for L=           2  read in
    real space projection operators read in
  non local Contribution for L=           0  read in
    real space projection operators read in
  non local Contribution for L=           0  read in
    real space projection operators read in
    PAW grid and wavefunctions read in
 
   number of l-projection  operators is LMAX  =           6
   number of lm-projection operators is LMMAX =          18
 
 POTCAR:    PAW_PBE Pt 04Feb2005                  
   SHA256 =  3ed90460adef76debcff1cfb73ee1349b515b1a3db03439735b44de3a8db7dc8 Pt/POTCAR             
   COPYR  = (c) Copyright 04Feb2005 Georg Kresse                                                    
   COPYR  = This file is part of the software VASP. Any use, copying, and all other rights are regul
   COPYR  = If you do not have a valid VASP license, you may not use, copy or distribute this file. 
   VRHFIN =Pt: s1d9                                                                                 
   LEXCH  = PE                                                                                      
   EATOM  =   729.1176 eV,   53.5886 Ry                                                             
                                                                                                    
   TITEL  = PAW_PBE Pt 04Feb2005                                                                    
   LULTRA =        F    use ultrasoft PP ?                                                          
   IUNSCR =        1    unscreen: 0-lin 1-nonlin 2-no                                               
   RPACOR =    2.330    partial core radius                                                         
   POMASS =  195.080; ZVAL   =   10.000    mass and valenz                                          
   RCORE  =    2.600    outmost cutoff radius                                                       
   RWIGS  =    2.750; RWIGS  =    1.455    wigner-seitz radius (au A)                               
   ENMAX  =  230.283; ENMIN  =  172.712 eV                                                          
   ICORE  =        3    local potential                                                             
   LCOR   =        T    correct aug charges                                                         
   LPAW   =        T    paw PP                                                                      
   EAUG   =  358.966                                                                                
   DEXC   =    0.000                                                                                
   RMAX   =    2.658    core radius for proj-oper                                                   
   RAUG   =    1.300    factor for augmentation sphere                                              
   RDEP   =    2.761    radius for radial grids                                                     
   RDEPT  =    2.203    core radius for aug-charge                                                  
                                                                                                    
   Atomic configuration                                                                             
   16 entries                                                                                       
     n  l   j            E        occ.                                                              
     1  0  0.50    -78401.1885   2.0000                                                             
     2  0  0.50    -13770.7750   2.0000                                                             
     2  1  1.50    -11931.0468   6.0000                                                             
     3  0  0.50     -3234.7234   2.0000                                                             
     3  1  1.50     -2699.2216   6.0000                                                             
     3  2  2.50     -2119.5714  10.0000                                                             
     4  0  0.50      -695.1528   2.0000                                                             
     4  1  1.50      -519.6034   6.0000                                                             
     4  2  2.50      -306.6786  10.0000                                                             
     4  3  3.50       -70.1041  14.0000                                                             
     5  0  0.50      -101.7747   2.0000                                                             
     5  1  1.50       -55.9873   6.0000                                                             
     5  2  2.50        -6.1423   9.0000                                                             
     6  0  0.50        -5.6573   1.0000                                                             
     6  1  1.50        -6.8029   0.0000                                                             
     5  3  2.50        -1.3606   0.0000                                                             
   Description                                                                                      
     l       E           TYP  RCUT    TYP  RCUT                                                     
     2     -6.1423404     23  2.500                                                                 
     2     -7.5029230     23  2.500                                                                 
     0     -5.6573207     23  2.500                                                                 
     0      0.7416693     23  2.500                                                                 
     1     -2.7211652     23  2.600                                                                 
     1     20.4087390     23  2.600                                                                 
     3     -1.3605826     23  2.500                                                                 
  local pseudopotential read in
  partial core-charges read in
  partial kinetic energy density read in
  atomic valenz-charges read in
  non local Contribution for L=           2  read in
    real space projection operators read in
  non local Contribution for L=           2  read in
    real space projection operators read in
  non local Contribution for L=           0  read in
    real space projection operators read in
  non local Contribution for L=           0  read in
    real space projection operators read in
  non local Contribution for L=           1  read in
    real space projection operators read in
  non local Contribution for L=           1  read in
    real space projection operators read in
    PAW grid and wavefunctions read in
 
   number of l-projection  operators is LMAX  =           6
   number of lm-projection operators is LMMAX =          18
 
  PAW_PBE Fe_pv 02Aug2007               :
 energy of atom  1       EATOM=-2457.4239
 kinetic energy error for atom=    0.0062 (will be added to EATOM!!)
  PAW_PBE Pt 04Feb2005                  :
 energy of atom  2       EATOM= -729.1176
 kinetic energy error for atom=    0.0032 (will be added to EATOM!!)
 
 
 POSCAR: Fe9 Pt3
  positions in direct lattice
  velocities in cartesian coordinates


 exchange-correlation table for PE
   RHO(1)=    0.500       N(1)  =     2000
   RHO(2)=  100.500       N(2)  =     4000
 


--------------------------------------------------------------------------------------------------------


 ion  position               nearest neighbor table
   1  0.000  0.500  0.167-  11 2.52  11 2.52  10 2.52  10 2.52   7 2.53   7 2.53   7 2.53   7 2.53
                             5 2.56   5 2.56   4 2.56   4 2.56
   2  0.000  0.500  0.498-   5 2.52   5 2.52   8 2.53   8 2.53   8 2.53   8 2.53  12 2.55  12 2.55
                             6 2.55   6 2.55  11 2.56  11 2.56
   3  0.000  0.500  0.835-   4 2.52   4 2.52   9 2.53   9 2.53   9 2.53   9 2.53   6 2.55   6 2.55
                            12 2.55  12 2.55  10 2.56  10 2.56
   4  0.500  0.500  0.998-   3 2.52   3 2.52   9 2.52   9 2.52  10 2.53  10 2.53  10 2.53  10 2.53
                             7 2.56   7 2.56   1 2.56   1 2.56
   5  0.500  0.500  0.335-   2 2.52   2 2.52   8 2.52   8 2.52  11 2.53  11 2.53  11 2.53  11 2.53
                             7 2.56   7 2.56   1 2.56   1 2.56
   6  0.500  0.500  0.667-  12 2.53  12 2.53  12 2.53  12 2.53   9 2.55   9 2.55   3 2.55   3 2.55
                             8 2.55   8 2.55   2 2.55   2 2.55
   7  0.500  0.000  0.167-  11 2.52  11 2.52  10 2.52  10 2.52   1 2.53   1 2.53   1 2.53   1 2.53
                             4 2.56   4 2.56   5 2.56   5 2.56
   8  0.500  0.000  0.498-   5 2.52   5 2.52   2 2.53   2 2.53   2 2.53   2 2.53  12 2.55  12 2.55
                             6 2.55   6 2.55  11 2.56  11 2.56
   9  0.500  0.000  0.835-   4 2.52   4 2.52   3 2.53   3 2.53   3 2.53   3 2.53   6 2.55   6 2.55
                            12 2.55  12 2.55  10 2.56  10 2.56
  10  0.000  0.000  0.003-   1 2.52   1 2.52   7 2.52   7 2.52   4 2.53   4 2.53   4 2.53   4 2.53
                             3 2.56   3 2.56   9 2.56   9 2.56
  11  0.000  0.000  0.330-   1 2.52   1 2.52   7 2.52   7 2.52   5 2.53   5 2.53   5 2.53   5 2.53
                             2 2.56   2 2.56   8 2.56   8 2.56
  12  0.000  0.000  0.667-   6 2.53   6 2.53   6 2.53   6 2.53   8 2.55   8 2.55   2 2.55   2 2.55
                             9 2.55   9 2.55   3 2.55   3 2.55
 
  LATTYP: Found a simple tetragonal cell.
 ALAT       =     3.5838611138
 C/A-ratio  =     3.0196913732
  
  Lattice vectors:
  
 A1 = (   3.5838611138,   0.0000000000,   0.0000000000)
 A2 = (   0.0000000000,   3.5838506253,   0.0000000000)
 A3 = (   0.0000000000,   0.0000000000,  10.8221544878)


Analysis of symmetry for initial positions (statically):
=====================================================================
 Subroutine PRICEL returns:
 Original cell was already a primitive cell.
 

 Routine SETGRP: Setting up the symmetry group for a 
 simple tetragonal supercell.


 Subroutine GETGRP returns: Found  8 space group operations
 (whereof  8 operations were pure point group operations)
 out of a pool of 16 trial point group operations.


The static configuration has the point symmetry C_4v.


Analysis of symmetry for dynamics (positions and initial velocities):
=====================================================================
 Subroutine PRICEL returns:
 Original cell was already a primitive cell.
 

 Routine SETGRP: Setting up the symmetry group for a 
 simple tetragonal supercell.


 Subroutine GETGRP returns: Found  8 space group operations
 (whereof  8 operations were pure point group operations)
 out of a pool of 16 trial point group operations.


The dynamic configuration has the point symmetry C_4v.


Analysis of structural, dynamic, and magnetic symmetry:
=====================================================================
 Subroutine PRICEL returns:
 Original cell was already a primitive cell.
 

 Routine SETGRP: Setting up the symmetry group for a 
 simple tetragonal supercell.


 Subroutine GETGRP returns: Found  8 space group operations
 (whereof  8 operations were pure point group operations)
 out of a pool of 16 trial point group operations.


The overall configuration has the point symmetry C_4v.


 Subroutine INISYM returns: Found  8 space group operations
 (whereof  8 operations are pure point group operations),
 and found     1 'primitive' translations


----------------------------------------------------------------------------------------

                                     Primitive cell                                     

  volume of cell :     139.0000

  direct lattice vectors                    reciprocal lattice vectors
     3.583861114  0.000000000  0.000000000     0.279028670  0.000000000  0.000000000
     0.000000000  3.583850625  0.000000000     0.000000000  0.279029487  0.000000000
     0.000000000  0.000000000 10.822154488     0.000000000  0.000000000  0.092403042

  length of vectors
     3.583861114  3.583850625 10.822154488     0.279028670  0.279029487  0.092403042

  position of ions in fractional coordinates (direct lattice)
     0.000000000  0.500000000  0.166667804
     0.000000000  0.500000000  0.498489411
     0.000000000  0.500000000  0.834843097
     0.500000000  0.500000000  0.998114532
     0.500000000  0.500000000  0.335220762
     0.500000000  0.500000000  0.666671714
     0.500000000  0.000000000  0.166667332
     0.500000000  0.000000000  0.498491658
     0.500000000  0.000000000  0.834841004
     0.000000000  0.000000000  0.003445155
     0.000000000  0.000000000  0.329883947
     0.000000000  0.000000000  0.666663584

  ion indices of the primitive-cell ions
   primitive index   ion index
                 1           1
                 2           2
                 3           3
                 4           4
                 5           5
                 6           6
                 7           7
                 8           8
                 9           9
                10          10
                11          11
                12          12

----------------------------------------------------------------------------------------

 
 
 KPOINTS: pymatgen with grid density = 8800 / numb

Automatic generation of k-mesh.
 Grid dimensions read from file:
 generate k-points for:   13   13    4

 Generating k-lattice:

  Cartesian coordinates                     Fractional coordinates (reciprocal lattice)
     0.021463744  0.000000000  0.000000000     0.076923077  0.000000000  0.000000000
     0.000000000  0.021463807  0.000000000     0.000000000  0.076923077  0.000000000
     0.000000000  0.000000000  0.023100761     0.000000000  0.000000000  0.250000000

  Length of vectors
     0.021463744  0.021463807  0.023100761

  Shift w.r.t. Gamma in fractional coordinates (k-lattice)
     0.000000000  0.000000000  0.000000000

 TETIRR: Found   1010 inequivalent tetrahedra from     4056
 
 Subroutine IBZKPT returns following result:
 ===========================================
 
 Found     84 irreducible k-points:
 
 Following reciprocal coordinates:
            Coordinates               Weight
  0.000000  0.000000  0.000000      1.000000
  0.076923  0.000000  0.000000      4.000000
  0.153846  0.000000  0.000000      4.000000
  0.230769  0.000000  0.000000      4.000000
  0.307692  0.000000  0.000000      4.000000
  0.384615  0.000000  0.000000      4.000000
  0.461538  0.000000  0.000000      4.000000
  0.076923  0.076923  0.000000      4.000000
  0.153846  0.076923  0.000000      8.000000
  0.230769  0.076923  0.000000      8.000000
  0.307692  0.076923  0.000000      8.000000
  0.384615  0.076923  0.000000      8.000000
  0.461538  0.076923  0.000000      8.000000
  0.153846  0.153846  0.000000      4.000000
  0.230769  0.153846  0.000000      8.000000
  0.307692  0.153846  0.000000      8.000000
  0.384615  0.153846  0.000000      8.000000
  0.461538  0.153846  0.000000      8.000000
  0.230769  0.230769  0.000000      4.000000
  0.307692  0.230769  0.000000      8.000000
  0.384615  0.230769  0.000000      8.000000
  0.461538  0.230769  0.000000      8.000000
  0.307692  0.307692  0.000000      4.000000
  0.384615  0.307692  0.000000      8.000000
  0.461538  0.307692  0.000000      8.000000
  0.384615  0.384615  0.000000      4.000000
  0.461538  0.384615  0.000000      8.000000
  0.461538  0.461538  0.000000      4.000000
  0.000000  0.000000  0.250000      2.000000
  0.076923  0.000000  0.250000      8.000000
  0.153846  0.000000  0.250000      8.000000
  0.230769  0.000000  0.250000      8.000000
  0.307692  0.000000  0.250000      8.000000
  0.384615  0.000000  0.250000      8.000000
  0.461538  0.000000  0.250000      8.000000
  0.076923  0.076923  0.250000      8.000000
  0.153846  0.076923  0.250000     16.000000
  0.230769  0.076923  0.250000     16.000000
  0.307692  0.076923  0.250000     16.000000
  0.384615  0.076923  0.250000     16.000000
  0.461538  0.076923  0.250000     16.000000
  0.153846  0.153846  0.250000      8.000000
  0.230769  0.153846  0.250000     16.000000
  0.307692  0.153846  0.250000     16.000000
  0.384615  0.153846  0.250000     16.000000
  0.461538  0.153846  0.250000     16.000000
  0.230769  0.230769  0.250000      8.000000
  0.307692  0.230769  0.250000     16.000000
  0.384615  0.230769  0.250000     16.000000
  0.461538  0.230769  0.250000     16.000000
  0.307692  0.307692  0.250000      8.000000
  0.384615  0.307692  0.250000     16.000000
  0.461538  0.307692  0.250000     16.000000
  0.384615  0.384615  0.250000      8.000000
  0.461538  0.384615  0.250000     16.000000
  0.461538  0.461538  0.250000      8.000000
  0.000000  0.000000  0.500000      1.000000
  0.076923  0.000000  0.500000      4.000000
  0.153846  0.000000  0.500000      4.000000
  0.230769  0.000000  0.500000      4.000000
  0.307692  0.000000  0.500000      4.000000
  0.384615  0.000000  0.500000      4.000000
  0.461538  0.000000  0.500000      4.000000
  0.076923  0.076923  0.500000      4.000000
  0.153846  0.076923  0.500000      8.000000
  0.230769  0.076923  0.500000      8.000000
  0.307692  0.076923  0.500000      8.000000
  0.384615  0.076923  0.500000      8.000000
  0.461538  0.076923  0.500000      8.000000
  0.153846  0.153846  0.500000      4.000000
  0.230769  0.153846  0.500000      8.000000
  0.307692  0.153846  0.500000      8.000000
  0.384615  0.153846  0.500000      8.000000
  0.461538  0.153846  0.500000      8.000000
  0.230769  0.230769  0.500000      4.000000
  0.307692  0.230769  0.500000      8.000000
  0.384615  0.230769  0.500000      8.000000
  0.461538  0.230769  0.500000      8.000000
  0.307692  0.307692  0.500000      4.000000
  0.384615  0.307692  0.500000      8.000000
  0.461538  0.307692  0.500000      8.000000
  0.384615  0.384615  0.500000      4.000000
  0.461538  0.384615  0.500000      8.000000
  0.461538  0.461538  0.500000      4.000000
 
 Following cartesian coordinates:
            Coordinates               Weight
  0.000000  0.000000  0.000000      1.000000
  0.021464  0.000000  0.000000      4.000000
  0.042927  0.000000  0.000000      4.000000
  0.064391  0.000000  0.000000      4.000000
  0.085855  0.000000  0.000000      4.000000
  0.107319  0.000000  0.000000      4.000000
  0.128782  0.000000  0.000000      4.000000
  0.021464  0.021464  0.000000      4.000000
  0.042927  0.021464  0.000000      8.000000
  0.064391  0.021464  0.000000      8.000000
  0.085855  0.021464  0.000000      8.000000
  0.107319  0.021464  0.000000      8.000000
  0.128782  0.021464  0.000000      8.000000
  0.042927  0.042928  0.000000      4.000000
  0.064391  0.042928  0.000000      8.000000
  0.085855  0.042928  0.000000      8.000000
  0.107319  0.042928  0.000000      8.000000
  0.128782  0.042928  0.000000      8.000000
  0.064391  0.064391  0.000000      4.000000
  0.085855  0.064391  0.000000      8.000000
  0.107319  0.064391  0.000000      8.000000
  0.128782  0.064391  0.000000      8.000000
  0.085855  0.085855  0.000000      4.000000
  0.107319  0.085855  0.000000      8.000000
  0.128782  0.085855  0.000000      8.000000
  0.107319  0.107319  0.000000      4.000000
  0.128782  0.107319  0.000000      8.000000
  0.128782  0.128783  0.000000      4.000000
  0.000000  0.000000  0.023101      2.000000
  0.021464  0.000000  0.023101      8.000000
  0.042927  0.000000  0.023101      8.000000
  0.064391  0.000000  0.023101      8.000000
  0.085855  0.000000  0.023101      8.000000
  0.107319  0.000000  0.023101      8.000000
  0.128782  0.000000  0.023101      8.000000
  0.021464  0.021464  0.023101      8.000000
  0.042927  0.021464  0.023101     16.000000
  0.064391  0.021464  0.023101     16.000000
  0.085855  0.021464  0.023101     16.000000
  0.107319  0.021464  0.023101     16.000000
  0.128782  0.021464  0.023101     16.000000
  0.042927  0.042928  0.023101      8.000000
  0.064391  0.042928  0.023101     16.000000
  0.085855  0.042928  0.023101     16.000000
  0.107319  0.042928  0.023101     16.000000
  0.128782  0.042928  0.023101     16.000000
  0.064391  0.064391  0.023101      8.000000
  0.085855  0.064391  0.023101     16.000000
  0.107319  0.064391  0.023101     16.000000
  0.128782  0.064391  0.023101     16.000000
  0.085855  0.085855  0.023101      8.000000
  0.107319  0.085855  0.023101     16.000000
  0.128782  0.085855  0.023101     16.000000
  0.107319  0.107319  0.023101      8.000000
  0.128782  0.107319  0.023101     16.000000
  0.128782  0.128783  0.023101      8.000000
  0.000000  0.000000  0.046202      1.000000
  0.021464  0.000000  0.046202      4.000000
  0.042927  0.000000  0.046202      4.000000
  0.064391  0.000000  0.046202      4.000000
  0.085855  0.000000  0.046202      4.000000
  0.107319  0.000000  0.046202      4.000000
  0.128782  0.000000  0.046202      4.000000
  0.021464  0.021464  0.046202      4.000000
  0.042927  0.021464  0.046202      8.000000
  0.064391  0.021464  0.046202      8.000000
  0.085855  0.021464  0.046202      8.000000
  0.107319  0.021464  0.046202      8.000000
  0.128782  0.021464  0.046202      8.000000
  0.042927  0.042928  0.046202      4.000000
  0.064391  0.042928  0.046202      8.000000
  0.085855  0.042928  0.046202      8.000000
  0.107319  0.042928  0.046202      8.000000
  0.128782  0.042928  0.046202      8.000000
  0.064391  0.064391  0.046202      4.000000
  0.085855  0.064391  0.046202      8.000000
  0.107319  0.064391  0.046202      8.000000
  0.128782  0.064391  0.046202      8.000000
  0.085855  0.085855  0.046202      4.000000
  0.107319  0.085855  0.046202      8.000000
  0.128782  0.085855  0.046202      8.000000
  0.107319  0.107319  0.046202      4.000000
  0.128782  0.107319  0.046202      8.000000
  0.128782  0.128783  0.046202      4.000000
 


--------------------------------------------------------------------------------------------------------




 Dimension of arrays:
   k-points           NKPTS =     84   k-points in BZ     NKDIM =     84   number of bands    NBANDS=    128
   number of dos      NEDOS =    301   number of ions     NIONS =     12
   non local maximal  LDIM  =      6   non local SUM 2l+1 LMDIM =     18
   total plane-waves  NPLWV =  62720
   max r-space proj   IRMAX =      1   max aug-charges    IRDMAX=  27526
   dimension x,y,z NGX =    28 NGY =   28 NGZ =   80
   dimension x,y,z NGXF=    56 NGYF=   56 NGZF=  160
   support grid    NGXF=    56 NGYF=   56 NGZF=  160
   ions per type =               9   3
   NGX,Y,Z   is equivalent  to a cutoff of  12.99, 12.99, 12.29 a.u.
   NGXF,Y,Z  is equivalent  to a cutoff of  25.98, 25.98, 24.58 a.u.

 SYSTEM =  unknown system                          
 POSCAR =  Fe9 Pt3                                 

 Startparameter for this run:
   NWRITE =      2    write-flag & timer
   PREC   = accura    normal or accurate (medium, high low for compatibility)
   ISTART =      0    job   : 0-new  1-cont  2-samecut
   ICHARG =      2    charge: 1-file 2-atom 10-const
   ISPIN  =      2    spin polarized calculation?
   LNONCOLLINEAR =      F non collinear calculations
   LSORBIT =      F    spin-orbit coupling
   INIWAV =      1    electr: 0-lowe 1-rand  2-diag
   LASPH  =      F    aspherical Exc in radial PAW
 Electronic Relaxation 1
   ENCUT  =  520.0 eV  38.22 Ry    6.18 a.u.   6.66  6.66 20.12*2*pi/ulx,y,z
   ENINI  =  520.0     initial cutoff
   ENAUG  =  578.3 eV  augmentation charge cutoff
   NELM   =    200;   NELMIN=  2; NELMDL=  0     # of ELM steps 
   EDIFF  = 0.1E-05   stopping-criterion for ELM
   LREAL  =      F    real-space projection
   NLSPLINE    = F    spline interpolate recip. space projectors
   LCOMPAT=      F    compatible to vasp.4.4
   GGA_COMPAT  = T    GGA compatible to vasp.4.4-vasp.4.6
   LMAXPAW     = -100 max onsite density
   LMAXMIX     =    2 max onsite mixed and CHGCAR
   VOSKOWN=      0    Vosko Wilk Nusair interpolation
   ROPT   =    0.00000   0.00000
 Ionic relaxation
   EDIFFG = -.1E-01   stopping-criterion for IOM
   NSW    =      0    number of steps for IOM
   NBLOCK =      1;   KBLOCK =      1    inner block; outer block 
   IBRION =     -1    ionic relax: 0-MD 1-quasi-New 2-CG
   NFREE  =      0    steps in history (QN), initial steepest desc. (CG)
   ISIF   =      4    stress and relaxation
   IWAVPR =     10    prediction:  0-non 1-charg 2-wave 3-comb
   ISYM   =      2    0-nonsym 1-usesym 2-fastsym
   LCORR  =      T    Harris-Foulkes like correction to forces

   POTIM  = 0.5000    time-step for ionic-motion
   TEIN   =    0.0    initial temperature
   TEBEG  =    0.0;   TEEND  =   0.0 temperature during run
   SMASS  =  -3.00    Nose mass-parameter (am)
   estimated Nose-frequenzy (Omega)   =  0.10E-29 period in steps = 0.13E+47 mass=  -0.294E-27a.u.
   SCALEE = 1.0000    scale energy and forces
   NPACO  =    256;   APACO  = 10.0  distance and # of slots for P.C.
   PSTRESS=    0.0 pullay stress

  Mass of Ions in am
   POMASS =  55.85195.08
  Ionic Valenz
   ZVAL   =  14.00 10.00
  Atomic Wigner-Seitz radii
   RWIGS  =  -1.00 -1.00
  virtual crystal weights 
   VCA    =   1.00  1.00
   NELECT =     156.0000    total number of electrons
   NUPDOWN=      -1.0000    fix difference up-down

 DOS related values:
   EMIN   =  10.00;   EMAX   =-10.00  energy-range for DOS
   EFERMI =   0.00;   METHOD = LEGACY      
   ISMEAR =    -5;   SIGMA  =   0.20  broadening in eV -4-tet -1-fermi 0-gaus

 Electronic relaxation 2 (details)
   IALGO  =     38    algorithm
   LDIAG  =      T    sub-space diagonalisation (order eigenvalues)
   LSUBROT=      F    optimize rotation matrix (better conditioning)
   TURBO    =      0    0=normal 1=particle mesh
   IRESTART =      0    0=no restart 2=restart with 2 vectors
   NREBOOT  =      0    no. of reboots
   NMIN     =      0    reboot dimension
   EREF     =   0.00    reference energy to select bands
   IMIX   =      4    mixing-type and parameters
     AMIX     =   0.40;   BMIX     =  1.00
     AMIX_MAG =   1.60;   BMIX_MAG =  1.00
     AMIN     =   0.10
     WC   =   100.;   INIMIX=   1;  MIXPRE=   1;  MAXMIX= -45

 Intra band minimization:
   WEIMIN = 0.0000     energy-eigenvalue tresh-hold
   EBREAK =  0.20E-08  absolut break condition
   DEPER  =   0.30     relativ break condition  

   TIME   =   0.40     timestep for ELM

  volume/ion in A,a.u.               =      11.58        78.17
  Fermi-wavevector in a.u.,A,eV,Ry     =   1.701289  3.214970 39.380489  2.894384
  Thomas-Fermi vector in A             =   2.781269
 
 Write flags
   LWAVE        =      F    write WAVECAR
   LDOWNSAMPLE  =      F    k-point downsampling of WAVECAR
   LCHARG       =      T    write CHGCAR
   LVTOT        =      F    write LOCPOT, total local potential
   LVHAR        =      F    write LOCPOT, Hartree potential only
   WRT_POTENTIAL= false  ! write potential to hdf5 file
   LELF         =      F    write electronic localiz. function (ELF)
   LORBIT       =     11    0 simple, 1 ext, 2 COOP (PROOUT), +10 PAW based schemes


 Dipole corrections
   LMONO      =      F    monopole corrections only (constant potential shift)
   LDIPOL     =      F    correct potential (dipole corrections)
   IDIPOL     =      0    1-x, 2-y, 3-z, 4-all directions 
   EPSILON    =  1.0000000 bulk dielectric constant
   LVACPOTAV  =      F  vacuum potentials using an averaging scheme for the charge density
   VACPOTFLAT =  0.1000000 required flatness to determine vacuum potential
 Exchange correlation treatment:
   GGA     = PE    functional components
   XC_C    = 1    coefficients multiplying the functional components
   LIBXC   =     F    Libxc                    
   VOSKOWN =     0    Vosko Wilk Nusair interpolation
   LHFCALC =     F    Hartree Fock is set to
   LHFONE  =     F    Hartree Fock one center treatment
   AEXX    =    0.0000 exact exchange contribution

 Parameters of functionals:
   PE:
     No parameter
 
 Van der Waals corrections
   IVDW    =     0    specifies the selected vdW correction

 Linear response parameters
   LEPSILON=     F    determine dielectric tensor
   LRPA    =     F    only Hartree local field effects (RPA)
   LNABLA  =     F    use nabla operator in PAW spheres
   LVEL    =     F    velocity operator in full k-point grid
   CSHIFT  =0.1000    complex shift for real part using Kramers Kronig
   OMEGAMAX=  -1.0    maximum frequency
   DEG_THRESHOLD= 0.2000000E-02 threshold for treating states as degnerate
   RTIME   =   -0.100 relaxation time in fs
  (WPLASMAI=    0.000 imaginary part of plasma frequency in eV, 0.658/RTIME)
   DFIELD  = 0.0000000 0.0000000 0.0000000 field for delta impulse in time
 
  Optional k-point grid parameters
   LKPOINTS_OPT  =     F    use optional k-point grid
   KPOINTS_OPT_MODE=     1    mode for optional k-point grid
 
 Orbital magnetization related:
   ORBITALMAG=     F  switch on orbital magnetization
   LCHIMAG   =     F  perturbation theory with respect to B field
   DQ        =  0.001000  dq finite difference perturbation B field
   LLRAUG    =     F  two centre corrections for induced B field
   LBONE     =     F  B-component reconstruction in AE one-centre
   LVGVCALC  =     T  calculate vGv susceptibility
   LVGVAPPL  =     F  apply vGv susceptibility instead of pGv for G=0

 Random number generation:
   RANDOM_GENERATOR = DEFAULT
   PCG_SEED         = not used


--------------------------------------------------------------------------------------------------------


 Static calculation
 charge density and potential will be updated during run
 spin polarized calculation
 Variant of blocked Davidson
 Davidson routine will perform the subspace rotation
 perform sub-space diagonalisation
    after iterative eigenvector-optimisation
 modified Broyden-mixing scheme, WC =      100.0
 initial mixing is a Kerker type mixing with AMIX =  0.4000 and BMIX =      1.0000
 Hartree-type preconditioning will be used
 using additional bands           50
 reciprocal scheme for non local part
 use partial core corrections
 calculate Harris-corrections to forces 
   (improved forces if not selfconsistent)
 use gradient corrections 
 use of overlap-Matrix (Vanderbilt PP)
 Fermi weights with tetrahedron method with Bloechl corrections


--------------------------------------------------------------------------------------------------------


  energy-cutoff  :      520.00
  volume of cell :      139.00
      direct lattice vectors                 reciprocal lattice vectors
     3.583861114  0.000000000  0.000000000     0.279028670  0.000000000  0.000000000
     0.000000000  3.583850625  0.000000000     0.000000000  0.279029487  0.000000000
     0.000000000  0.000000000 10.822154488     0.000000000  0.000000000  0.092403042

  length of vectors
     3.583861114  3.583850625 10.822154488     0.279028670  0.279029487  0.092403042


 
 k-points in units of 2pi/SCALE and weight: pymatgen with grid density = 8800 / numb
   0.00000000  0.00000000  0.00000000       0.001
   0.02146374  0.00000000  0.00000000       0.006
   0.04292749  0.00000000  0.00000000       0.006
   0.06439123  0.00000000  0.00000000       0.006
   0.08585498  0.00000000  0.00000000       0.006
   0.10731872  0.00000000  0.00000000       0.006
   0.12878246  0.00000000  0.00000000       0.006
   0.02146374  0.02146381  0.00000000       0.006
   0.04292749  0.02146381  0.00000000       0.012
   0.06439123  0.02146381  0.00000000       0.012
   0.08585498  0.02146381  0.00000000       0.012
   0.10731872  0.02146381  0.00000000       0.012
   0.12878246  0.02146381  0.00000000       0.012
   0.04292749  0.04292761  0.00000000       0.006
   0.06439123  0.04292761  0.00000000       0.012
   0.08585498  0.04292761  0.00000000       0.012
   0.10731872  0.04292761  0.00000000       0.012
   0.12878246  0.04292761  0.00000000       0.012
   0.06439123  0.06439142  0.00000000       0.006
   0.08585498  0.06439142  0.00000000       0.012
   0.10731872  0.06439142  0.00000000       0.012
   0.12878246  0.06439142  0.00000000       0.012
   0.08585498  0.08585523  0.00000000       0.006
   0.10731872  0.08585523  0.00000000       0.012
   0.12878246  0.08585523  0.00000000       0.012
   0.10731872  0.10731903  0.00000000       0.006
   0.12878246  0.10731903  0.00000000       0.012
   0.12878246  0.12878284  0.00000000       0.006
   0.00000000  0.00000000  0.02310076       0.003
   0.02146374  0.00000000  0.02310076       0.012
   0.04292749  0.00000000  0.02310076       0.012
   0.06439123  0.00000000  0.02310076       0.012
   0.08585498  0.00000000  0.02310076       0.012
   0.10731872  0.00000000  0.02310076       0.012
   0.12878246  0.00000000  0.02310076       0.012
   0.02146374  0.02146381  0.02310076       0.012
   0.04292749  0.02146381  0.02310076       0.024
   0.06439123  0.02146381  0.02310076       0.024
   0.08585498  0.02146381  0.02310076       0.024
   0.10731872  0.02146381  0.02310076       0.024
   0.12878246  0.02146381  0.02310076       0.024
   0.04292749  0.04292761  0.02310076       0.012
   0.06439123  0.04292761  0.02310076       0.024
   0.08585498  0.04292761  0.02310076       0.024
   0.10731872  0.04292761  0.02310076       0.024
   0.12878246  0.04292761  0.02310076       0.024
   0.06439123  0.06439142  0.02310076       0.012
   0.08585498  0.06439142  0.02310076       0.024
   0.10731872  0.06439142  0.02310076       0.024
   0.12878246  0.06439142  0.02310076       0.024
   0.08585498  0.08585523  0.02310076       0.012
   0.10731872  0.08585523  0.02310076       0.024
   0.12878246  0.08585523  0.02310076       0.024
   0.10731872  0.10731903  0.02310076       0.012
   0.12878246  0.10731903  0.02310076       0.024
   0.12878246  0.12878284  0.02310076       0.012
   0.00000000  0.00000000  0.04620152       0.001
   0.02146374  0.00000000  0.04620152       0.006
   0.04292749  0.00000000  0.04620152       0.006
   0.06439123  0.00000000  0.04620152       0.006
   0.08585498  0.00000000  0.04620152       0.006
   0.10731872  0.00000000  0.04620152       0.006
   0.12878246  0.00000000  0.04620152       0.006
   0.02146374  0.02146381  0.04620152       0.006
   0.04292749  0.02146381  0.04620152       0.012
   0.06439123  0.02146381  0.04620152       0.012
   0.08585498  0.02146381  0.04620152       0.012
   0.10731872  0.02146381  0.04620152       0.012
   0.12878246  0.02146381  0.04620152       0.012
   0.04292749  0.04292761  0.04620152       0.006
   0.06439123  0.04292761  0.04620152       0.012
   0.08585498  0.04292761  0.04620152       0.012
   0.10731872  0.04292761  0.04620152       0.012
   0.12878246  0.04292761  0.04620152       0.012
   0.06439123  0.06439142  0.04620152       0.006
   0.08585498  0.06439142  0.04620152       0.012
   0.10731872  0.06439142  0.04620152       0.012
   0.12878246  0.06439142  0.04620152       0.012
   0.08585498  0.08585523  0.04620152       0.006
   0.10731872  0.08585523  0.04620152       0.012
   0.12878246  0.08585523  0.04620152       0.012
   0.10731872  0.10731903  0.04620152       0.006
   0.12878246  0.10731903  0.04620152       0.012
   0.12878246  0.12878284  0.04620152       0.006
 
 k-points in reciprocal lattice and weights: pymatgen with grid density = 8800 / numb
   0.00000000  0.00000000  0.00000000       0.001
   0.07692308  0.00000000  0.00000000       0.006
   0.15384615  0.00000000  0.00000000       0.006
   0.23076923  0.00000000  0.00000000       0.006
   0.30769231  0.00000000  0.00000000       0.006
   0.38461538  0.00000000  0.00000000       0.006
   0.46153846  0.00000000  0.00000000       0.006
   0.07692308  0.07692308  0.00000000       0.006
   0.15384615  0.07692308  0.00000000       0.012
   0.23076923  0.07692308  0.00000000       0.012
   0.30769231  0.07692308  0.00000000       0.012
   0.38461538  0.07692308  0.00000000       0.012
   0.46153846  0.07692308  0.00000000       0.012
   0.15384615  0.15384615  0.00000000       0.006
   0.23076923  0.15384615  0.00000000       0.012
   0.30769231  0.15384615  0.00000000       0.012
   0.38461538  0.15384615  0.00000000       0.012
   0.46153846  0.15384615  0.00000000       0.012
   0.23076923  0.23076923  0.00000000       0.006
   0.30769231  0.23076923  0.00000000       0.012
   0.38461538  0.23076923  0.00000000       0.012
   0.46153846  0.23076923  0.00000000       0.012
   0.30769231  0.30769231  0.00000000       0.006
   0.38461538  0.30769231  0.00000000       0.012
   0.46153846  0.30769231  0.00000000       0.012
   0.38461538  0.38461538  0.00000000       0.006
   0.46153846  0.38461538  0.00000000       0.012
   0.46153846  0.46153846  0.00000000       0.006
   0.00000000  0.00000000  0.25000000       0.003
   0.07692308  0.00000000  0.25000000       0.012
   0.15384615  0.00000000  0.25000000       0.012
   0.23076923  0.00000000  0.25000000       0.012
   0.30769231  0.00000000  0.25000000       0.012
   0.38461538  0.00000000  0.25000000       0.012
   0.46153846  0.00000000  0.25000000       0.012
   0.07692308  0.07692308  0.25000000       0.012
   0.15384615  0.07692308  0.25000000       0.024
   0.23076923  0.07692308  0.25000000       0.024
   0.30769231  0.07692308  0.25000000       0.024
   0.38461538  0.07692308  0.25000000       0.024
   0.46153846  0.07692308  0.25000000       0.024
   0.15384615  0.15384615  0.25000000       0.012
   0.23076923  0.15384615  0.25000000       0.024
   0.30769231  0.15384615  0.25000000       0.024
   0.38461538  0.15384615  0.25000000       0.024
   0.46153846  0.15384615  0.25000000       0.024
   0.23076923  0.23076923  0.25000000       0.012
   0.30769231  0.23076923  0.25000000       0.024
   0.38461538  0.23076923  0.25000000       0.024
   0.46153846  0.23076923  0.25000000       0.024
   0.30769231  0.30769231  0.25000000       0.012
   0.38461538  0.30769231  0.25000000       0.024
   0.46153846  0.30769231  0.25000000       0.024
   0.38461538  0.38461538  0.25000000       0.012
   0.46153846  0.38461538  0.25000000       0.024
   0.46153846  0.46153846  0.25000000       0.012
   0.00000000  0.00000000  0.50000000       0.001
   0.07692308  0.00000000  0.50000000       0.006
   0.15384615  0.00000000  0.50000000       0.006
   0.23076923  0.00000000  0.50000000       0.006
   0.30769231  0.00000000  0.50000000       0.006
   0.38461538  0.00000000  0.50000000       0.006
   0.46153846  0.00000000  0.50000000       0.006
   0.07692308  0.07692308  0.50000000       0.006
   0.15384615  0.07692308  0.50000000       0.012
   0.23076923  0.07692308  0.50000000       0.012
   0.30769231  0.07692308  0.50000000       0.012
   0.38461538  0.07692308  0.50000000       0.012
   0.46153846  0.07692308  0.50000000       0.012
   0.15384615  0.15384615  0.50000000       0.006
   0.23076923  0.15384615  0.50000000       0.012
   0.30769231  0.15384615  0.50000000       0.012
   0.38461538  0.15384615  0.50000000       0.012
   0.46153846  0.15384615  0.50000000       0.012
   0.23076923  0.23076923  0.50000000       0.006
   0.30769231  0.23076923  0.50000000       0.012
   0.38461538  0.23076923  0.50000000       0.012
   0.46153846  0.23076923  0.50000000       0.012
   0.30769231  0.30769231  0.50000000       0.006
   0.38461538  0.30769231  0.50000000       0.012
   0.46153846  0.30769231  0.50000000       0.012
   0.38461538  0.38461538  0.50000000       0.006
   0.46153846  0.38461538  0.50000000       0.012
   0.46153846  0.46153846  0.50000000       0.006
 
 position of ions in fractional coordinates (direct lattice) 
   0.00000000  0.50000000  0.16666780
   0.00000000  0.50000000  0.49848941
   0.00000000  0.50000000  0.83484310
   0.50000000  0.50000000  0.99811453
   0.50000000  0.50000000  0.33522076
   0.50000000  0.50000000  0.66667171
   0.50000000  0.00000000  0.16666733
   0.50000000  0.00000000  0.49849166
   0.50000000  0.00000000  0.83484100
   0.00000000  0.00000000  0.00344515
   0.00000000  0.00000000  0.32988395
   0.00000000  0.00000000  0.66666358
 
 position of ions in cartesian coordinates  (Angst):
   0.00000000  1.79192531  1.80370472
   0.00000000  1.79192531  5.39472942
   0.00000000  1.79192531  9.03480097
   1.79193056  1.79192531 10.80174966
   1.79193056  1.79192531  3.62781088
   1.79193056  1.79192531  7.21482428
   1.79193056  0.00000000  1.80369961
   1.79193056  0.00000000  5.39475374
   1.79193056  0.00000000  9.03477831
   0.00000000  0.00000000  0.03728399
   0.00000000  0.00000000  3.57005504
   0.00000000  0.00000000  7.21473629
 


--------------------------------------------------------------------------------------------------------


 k-point     1 :   0.0000 0.0000 0.0000  plane waves:    3713
 k-point     2 :   0.0769 0.0000 0.0000  plane waves:    3753
 k-point     3 :   0.1538 0.0000 0.0000  plane waves:    3767
 k-point     4 :   0.2308 0.0000 0.0000  plane waves:    3757
 k-point     5 :   0.3077 0.0000 0.0000  plane waves:    3757
 k-point     6 :   0.3846 0.0000 0.0000  plane waves:    3734
 k-point     7 :   0.4615 0.0000 0.0000  plane waves:    3740
 k-point     8 :   0.0769 0.0769 0.0000  plane waves:    3753
 k-point     9 :   0.1538 0.0769 0.0000  plane waves:    3760
 k-point    10 :   0.2308 0.0769 0.0000  plane waves:    3754
 k-point    11 :   0.3077 0.0769 0.0000  plane waves:    3744
 k-point    12 :   0.3846 0.0769 0.0000  plane waves:    3740
 k-point    13 :   0.4615 0.0769 0.0000  plane waves:    3743
 k-point    14 :   0.1538 0.1538 0.0000  plane waves:    3767
 k-point    15 :   0.2308 0.1538 0.0000  plane waves:    3746
 k-point    16 :   0.3077 0.1538 0.0000  plane waves:    3737
 k-point    17 :   0.3846 0.1538 0.0000  plane waves:    3724
 k-point    18 :   0.4615 0.1538 0.0000  plane waves:    3730
 k-point    19 :   0.2308 0.2308 0.0000  plane waves:    3761
 k-point    20 :   0.3077 0.2308 0.0000  plane waves:    3738
 k-point    21 :   0.3846 0.2308 0.0000  plane waves:    3733
 k-point    22 :   0.4615 0.2308 0.0000  plane waves:    3717
 k-point    23 :   0.3077 0.3077 0.0000  plane waves:    3738
 k-point    24 :   0.3846 0.3077 0.0000  plane waves:    3746
 k-point    25 :   0.4615 0.3077 0.0000  plane waves:    3730
 k-point    26 :   0.3846 0.3846 0.0000  plane waves:    3744
 k-point    27 :   0.4615 0.3846 0.0000  plane waves:    3744
 k-point    28 :   0.4615 0.4615 0.0000  plane waves:    3758
 k-point    29 :   0.0000 0.0000 0.2500  plane waves:    3752
 k-point    30 :   0.0769 0.0000 0.2500  plane waves:    3752
 k-point    31 :   0.1538 0.0000 0.2500  plane waves:    3756
 k-point    32 :   0.2308 0.0000 0.2500  plane waves:    3760
 k-point    33 :   0.3077 0.0000 0.2500  plane waves:    3750
 k-point    34 :   0.3846 0.0000 0.2500  plane waves:    3738
 k-point    35 :   0.4615 0.0000 0.2500  plane waves:    3736
 k-point    36 :   0.0769 0.0769 0.2500  plane waves:    3757
 k-point    37 :   0.1538 0.0769 0.2500  plane waves:    3762
 k-point    38 :   0.2308 0.0769 0.2500  plane waves:    3762
 k-point    39 :   0.3077 0.0769 0.2500  plane waves:    3743
 k-point    40 :   0.3846 0.0769 0.2500  plane waves:    3735
 k-point    41 :   0.4615 0.0769 0.2500  plane waves:    3738
 k-point    42 :   0.1538 0.1538 0.2500  plane waves:    3760
 k-point    43 :   0.2308 0.1538 0.2500  plane waves:    3747
 k-point    44 :   0.3077 0.1538 0.2500  plane waves:    3735
 k-point    45 :   0.3846 0.1538 0.2500  plane waves:    3731
 k-point    46 :   0.4615 0.1538 0.2500  plane waves:    3731
 k-point    47 :   0.2308 0.2308 0.2500  plane waves:    3745
 k-point    48 :   0.3077 0.2308 0.2500  plane waves:    3746
 k-point    49 :   0.3846 0.2308 0.2500  plane waves:    3732
 k-point    50 :   0.4615 0.2308 0.2500  plane waves:    3739
 k-point    51 :   0.3077 0.3077 0.2500  plane waves:    3732
 k-point    52 :   0.3846 0.3077 0.2500  plane waves:    3740
 k-point    53 :   0.4615 0.3077 0.2500  plane waves:    3737
 k-point    54 :   0.3846 0.3846 0.2500  plane waves:    3745
 k-point    55 :   0.4615 0.3846 0.2500  plane waves:    3746
 k-point    56 :   0.4615 0.4615 0.2500  plane waves:    3742
 k-point    57 :   0.0000 0.0000 0.5000  plane waves:    3768
 k-point    58 :   0.0769 0.0000 0.5000  plane waves:    3772
 k-point    59 :   0.1538 0.0000 0.5000  plane waves:    3762
 k-point    60 :   0.2308 0.0000 0.5000  plane waves:    3768
 k-point    61 :   0.3077 0.0000 0.5000  plane waves:    3750
 k-point    62 :   0.3846 0.0000 0.5000  plane waves:    3730
 k-point    63 :   0.4615 0.0000 0.5000  plane waves:    3732
 k-point    64 :   0.0769 0.0769 0.5000  plane waves:    3776
 k-point    65 :   0.1538 0.0769 0.5000  plane waves:    3764
 k-point    66 :   0.2308 0.0769 0.5000  plane waves:    3758
 k-point    67 :   0.3077 0.0769 0.5000  plane waves:    3736
 k-point    68 :   0.3846 0.0769 0.5000  plane waves:    3732
 k-point    69 :   0.4615 0.0769 0.5000  plane waves:    3738
 k-point    70 :   0.1538 0.1538 0.5000  plane waves:    3750
 k-point    71 :   0.2308 0.1538 0.5000  plane waves:    3746
 k-point    72 :   0.3077 0.1538 0.5000  plane waves:    3738
 k-point    73 :   0.3846 0.1538 0.5000  plane waves:    3742
 k-point    74 :   0.4615 0.1538 0.5000  plane waves:    3752
 k-point    75 :   0.2308 0.2308 0.5000  plane waves:    3736
 k-point    76 :   0.3077 0.2308 0.5000  plane waves:    3728
 k-point    77 :   0.3846 0.2308 0.5000  plane waves:    3736
 k-point    78 :   0.4615 0.2308 0.5000  plane waves:    3736
 k-point    79 :   0.3077 0.3077 0.5000  plane waves:    3728
 k-point    80 :   0.3846 0.3077 0.5000  plane waves:    3728
 k-point    81 :   0.4615 0.3077 0.5000  plane waves:    3726
 k-point    82 :   0.3846 0.3846 0.5000  plane waves:    3740
 k-point    83 :   0.4615 0.3846 0.5000  plane waves:    3750
 k-point    84 :   0.4615 0.4615 0.5000  plane waves:    3760

 maximum and minimum number of plane-waves per node :      3776     3713

 maximum number of plane-waves:      3776
 maximum index in each direction: 
   IXMAX=    6   IYMAX=    6   IZMAX=   20
   IXMIN=   -7   IYMIN=   -7   IZMIN=  -20


 serial   3D FFT for wavefunctions
 parallel 3D FFT for charge:
    minimum data exchange during FFTs selected (reduces bandwidth)


 total amount of memory used by VASP MPI-rank0   172792. kBytes
=======================================================================

   base      :      30000. kBytes
   nonl-proj :      92073. kBytes
   fftplans  :        848. kBytes
   grid      :       6490. kBytes
   one-center:        373. kBytes
   wavefun   :      43008. kBytes
 
     INWAV:  cpu time      0.0000: real time      0.0000
 Broyden mixing: mesh for mixing (old mesh)
   NGX = 13   NGY = 13   NGZ = 41
  (NGX  = 56   NGY  = 56   NGZ  =160)
  gives a total of   6929 points

 initial charge density was supplied:
 charge density of overlapping atoms calculated
 number of electron     156.0000000 magnetization      12.0950000
 keeping initial charge density in first step


--------------------------------------------------------------------------------------------------------


 Maximum index for augmentation-charges         1058 (set IRDMAX)


--------------------------------------------------------------------------------------------------------


 First call to EWALD:  gamma=   0.342
 Maximum number of real-space cells 4x 4x 2
 Maximum number of reciprocal cells 2x 2x 5

    FEWALD:  cpu time      0.0030: real time      0.0030


--------------------------------------- Ionic step        1  -------------------------------------------




--------------------------------------- Iteration      1(   1)  ---------------------------------------


    POTLOK:  cpu time      0.0257: real time      0.0438
    SETDIJ:  cpu time      0.0092: real time      0.0096
     EDDAV:  cpu time      5.3387: real time      5.3783
 BZINTS: Fermi energy:   24.940339;  156.000000 electrons
         Band energy: 0.736400E+03;  BLOECHL correction:   -0.066492
       DOS:  cpu time      0.1299: real time      0.1316
    --------------------------------------------
      LOOP:  cpu time      5.5034: real time      5.5633

 eigenvalue-minimisations  : 43136
 total energy-change (2. order) : 0.1759483E+04  (-0.8375726E+04)
 number of electron     156.0000000 magnetization      12.0950000
 augmentation part      156.0000000 magnetization      12.0950000

 Free energy of the ion-electron system (eV)
  ---------------------------------------------------
  alpha Z        PSCENC =      1224.38942132
  Ewald energy   TEWEN  =    -18799.39292388
  -Hartree energ DENC   =     -5642.35461211
  -exchange      EXHF   =         0.00000000
  -V(xc)+E(xc)   XCENC  =       660.46156251
  PAW double counting   =     20096.04689649   -20820.16955339
  entropy T*S    EENTRO =         0.00000000
  eigenvalues    EBANDS =       736.39976467
  atomic energy  EATOM  =     24304.10294433
  Solvation  Ediel_sol  =         0.00000000
  ---------------------------------------------------
  free energy    TOTEN  =      1759.48349995 eV

  energy without entropy =     1759.48349995  energy(sigma->0) =     1759.48349995


--------------------------------------------------------------------------------------------------------




--------------------------------------- Iteration      1(   2)  ---------------------------------------


     EDDAV:  cpu time      5.2647: real time      5.3146
 BZINTS: Fermi energy:   13.967004;  156.000000 electrons
         Band energy:-0.101701E+04;  BLOECHL correction:   -0.027488
       DOS:  cpu time      0.1303: real time      0.1315
    --------------------------------------------
      LOOP:  cpu time      5.3950: real time      5.4461

 eigenvalue-minimisations  : 43008
 total energy-change (2. order) :-0.1753408E+04  (-0.1662967E+04)
 number of electron     156.0000000 magnetization      12.0950000
 augmentation part      156.0000000 magnetization      12.0950000

 Free energy of the ion-electron system (eV)
  ---------------------------------------------------
  alpha Z        PSCENC =      1224.38942132
  Ewald energy   TEWEN  =    -18799.39292388
  -Hartree energ DENC   =     -5642.35461211
  -exchange      EXHF   =         0.00000000
  -V(xc)+E(xc)   XCENC  =       660.46156251
  PAW double counting   =     20096.04689649   -20820.16955339
  entropy T*S    EENTRO =         0.00000000
  eigenvalues    EBANDS =     -1017.00870191
  atomic energy  EATOM  =     24304.10294433
  Solvation  Ediel_sol  =         0.00000000
  ---------------------------------------------------
  free energy    TOTEN  =         6.07503337 eV

  energy without entropy =        6.07503337  energy(sigma->0) =        6.07503337


--------------------------------------------------------------------------------------------------------




--------------------------------------- Iteration      1(   3)  ---------------------------------------


     EDDAV:  cpu time      6.2955: real time      6.3494
 BZINTS: Fermi energy:   13.383487;  156.000000 electrons
         Band energy:-0.112604E+04;  BLOECHL correction:   -0.036296
       DOS:  cpu time      0.1309: real time      0.1319
    --------------------------------------------
      LOOP:  cpu time      6.4264: real time      6.4812

 eigenvalue-minimisations  : 50432
 total energy-change (2. order) :-0.1090362E+03  (-0.1077138E+03)
 number of electron     156.0000000 magnetization      12.0950000
 augmentation part      156.0000000 magnetization      12.0950000

 Free energy of the ion-electron system (eV)
  ---------------------------------------------------
  alpha Z        PSCENC =      1224.38942132
  Ewald energy   TEWEN  =    -18799.39292388
  -Hartree energ DENC   =     -5642.35461211
  -exchange      EXHF   =         0.00000000
  -V(xc)+E(xc)   XCENC  =       660.46156251
  PAW double counting   =     20096.04689649   -20820.16955339
  entropy T*S    EENTRO =         0.00000000
  eigenvalues    EBANDS =     -1126.04489474
  atomic energy  EATOM  =     24304.10294433
  Solvation  Ediel_sol  =         0.00000000
  ---------------------------------------------------
  free energy    TOTEN  =      -102.96115946 eV

  energy without entropy =     -102.96115946  energy(sigma->0) =     -102.96115946


--------------------------------------------------------------------------------------------------------




--------------------------------------- Iteration      1(   4)  ---------------------------------------


     EDDAV:  cpu time      5.6436: real time      5.6849
 BZINTS: Fermi energy:   13.378497;  156.000000 electrons
         Band energy:-0.112752E+04;  BLOECHL correction:   -0.036320
       DOS:  cpu time      0.1296: real time      0.1305
    --------------------------------------------
      LOOP:  cpu time      5.7732: real time      5.8154

 eigenvalue-minimisations  : 45952
 total energy-change (2. order) :-0.1476633E+01  (-0.1476340E+01)
 number of electron     156.0000000 magnetization      12.0950000
 augmentation part      156.0000000 magnetization      12.0950000

 Free energy of the ion-electron system (eV)
  ---------------------------------------------------
  alpha Z        PSCENC =      1224.38942132
  Ewald energy   TEWEN  =    -18799.39292388
  -Hartree energ DENC   =     -5642.35461211
  -exchange      EXHF   =         0.00000000
  -V(xc)+E(xc)   XCENC  =       660.46156251
  PAW double counting   =     20096.04689649   -20820.16955339
  entropy T*S    EENTRO =         0.00000000
  eigenvalues    EBANDS =     -1127.52152741
  atomic energy  EATOM  =     24304.10294433
  Solvation  Ediel_sol  =         0.00000000
  ---------------------------------------------------
  free energy    TOTEN  =      -104.43779213 eV

  energy without entropy =     -104.43779213  energy(sigma->0) =     -104.43779213


--------------------------------------------------------------------------------------------------------




--------------------------------------- Iteration      1(   5)  ---------------------------------------


     EDDAV:  cpu time      6.8090: real time      6.8662
 BZINTS: Fermi energy:   13.378450;  156.000000 electrons
         Band energy:-0.112755E+04;  BLOECHL correction:   -0.036320
       DOS:  cpu time      0.1294: real time      0.1306
    CHARGE:  cpu time      0.1410: real time      0.1421
    MIXING:  cpu time      0.0056: real time      0.0057
    --------------------------------------------
      LOOP:  cpu time      7.0851: real time      7.1447

 eigenvalue-minimisations  : 53184
 total energy-change (2. order) :-0.2550892E-01  (-0.2550806E-01)
 number of electron     155.9999808 magnetization      11.1432603
 augmentation part       79.2911178 magnetization       8.4688806

 Broyden mixing:
  rms(total) = 0.44040E+01    rms(broyden)= 0.44036E+01
  rms(prec ) = 0.48677E+01
  weight for this iteration     100.00

 Free energy of the ion-electron system (eV)
  ---------------------------------------------------
  alpha Z        PSCENC =      1224.38942132
  Ewald energy   TEWEN  =    -18799.39292388
  -Hartree energ DENC   =     -5642.35461211
  -exchange      EXHF   =         0.00000000
  -V(xc)+E(xc)   XCENC  =       660.46156251
  PAW double counting   =     20096.04689649   -20820.16955339
  entropy T*S    EENTRO =         0.00000000
  eigenvalues    EBANDS =     -1127.54703633
  atomic energy  EATOM  =     24304.10294433
  Solvation  Ediel_sol  =         0.00000000
  ---------------------------------------------------
  free energy    TOTEN  =      -104.46330105 eV

  energy without entropy =     -104.46330105  energy(sigma->0) =     -104.46330105


--------------------------------------------------------------------------------------------------------




--------------------------------------- Iteration      1(   6)  ---------------------------------------


    POTLOK:  cpu time      0.0331: real time      0.0444
    SETDIJ:  cpu time      0.0081: real time      0.0082
     EDDAV:  cpu time      6.7598: real time      6.8060
 BZINTS: Fermi energy:   10.785249;  156.000000 electrons
         Band energy:-0.152292E+04;  BLOECHL correction:   -0.029587
       DOS:  cpu time      0.1366: real time      0.1377
    CHARGE:  cpu time      0.1321: real time      0.1329
    MIXING:  cpu time      0.0030: real time      0.0037
    --------------------------------------------
      LOOP:  cpu time      7.0729: real time      7.1327

 eigenvalue-minimisations  : 52864
 total energy-change (2. order) :-0.4493894E+01  (-0.1647802E+02)
 number of electron     155.9999791 magnetization      10.9937450
 augmentation part       87.4699315 magnetization       8.2887844

 Broyden mixing:
  rms(total) = 0.58986E+01    rms(broyden)= 0.58984E+01
  rms(prec ) = 0.94521E+01
  weight for this iteration     100.00

 eigenvalues of (default mixing * dielectric matrix)
  average eigenvalue GAMMA=   0.3320
  0.3320

 Free energy of the ion-electron system (eV)
  ---------------------------------------------------
  alpha Z        PSCENC =      1224.38942132
  Ewald energy   TEWEN  =    -18799.39292388
  -Hartree energ DENC   =     -5253.95803526
  -exchange      EXHF   =         0.00000000
  -V(xc)+E(xc)   XCENC  =       643.17085330
  PAW double counting   =     20869.42125756   -21573.77065586
  entropy T*S    EENTRO =         0.00000000
  eigenvalues    EBANDS =     -1522.92005693
  atomic energy  EATOM  =     24304.10294433
  Solvation  Ediel_sol  =         0.00000000
  ---------------------------------------------------
  free energy    TOTEN  =      -108.95719544 eV

  energy without entropy =     -108.95719544  energy(sigma->0) =     -108.95719544


--------------------------------------------------------------------------------------------------------




--------------------------------------- Iteration      1(   7)  ---------------------------------------


    POTLOK:  cpu time      0.0319: real time      0.0445
    SETDIJ:  cpu time      0.0079: real time      0.0079
     EDDAV:  cpu time      6.7902: real time      6.8355
 BZINTS: Fermi energy:   11.482566;  156.000000 electrons
         Band energy:-0.145970E+04;  BLOECHL correction:   -0.034349
       DOS:  cpu time      0.1354: real time      0.1364
    CHARGE:  cpu time      0.1332: real time      0.1339
    MIXING:  cpu time      0.0033: real time      0.0034
    --------------------------------------------
      LOOP:  cpu time      7.1020: real time      7.1616

 eigenvalue-minimisations  : 52896
 total energy-change (2. order) :-0.1202163E+02  (-0.3291695E+02)
 number of electron     155.9999829 magnetization      10.0424816
 augmentation part       86.0540087 magnetization       9.4259960

 Broyden mixing:
  rms(total) = 0.79095E+01    rms(broyden)= 0.79090E+01
  rms(prec ) = 0.13820E+02
  weight for this iteration     100.00

 eigenvalues of (default mixing * dielectric matrix)
  average eigenvalue GAMMA=   0.3395
  0.5815  0.0975

 Free energy of the ion-electron system (eV)
  ---------------------------------------------------
  alpha Z        PSCENC =      1224.38942132
  Ewald energy   TEWEN  =    -18799.39292388
  -Hartree energ DENC   =     -5316.47937721
  -exchange      EXHF   =         0.00000000
  -V(xc)+E(xc)   XCENC  =       645.04007098
  PAW double counting   =     21196.84114303   -21915.77996610
  entropy T*S    EENTRO =         0.00000000
  eigenvalues    EBANDS =     -1459.70013477
  atomic energy  EATOM  =     24304.10294433
  Solvation  Ediel_sol  =         0.00000000
  ---------------------------------------------------
  free energy    TOTEN  =      -120.97882230 eV

  energy without entropy =     -120.97882230  energy(sigma->0) =     -120.97882230


--------------------------------------------------------------------------------------------------------




--------------------------------------- Iteration      1(   8)  ---------------------------------------


    POTLOK:  cpu time      0.0325: real time      0.0446
    SETDIJ:  cpu time      0.0078: real time      0.0078
     EDDAV:  cpu time      6.6240: real time      6.6696
 BZINTS: Fermi energy:   12.073999;  156.000000 electrons
         Band energy:-0.132788E+04;  BLOECHL correction:   -0.036789
       DOS:  cpu time      0.1366: real time      0.1376
    CHARGE:  cpu time      0.1324: real time      0.1332
    MIXING:  cpu time      0.0016: real time      0.0016
    --------------------------------------------
      LOOP:  cpu time      6.9350: real time      6.9945

 eigenvalue-minimisations  : 51776
 total energy-change (2. order) : 0.2487728E+02  (-0.2206893E+02)
 number of electron     155.9999794 magnetization       9.3391371
 augmentation part       82.9513702 magnetization       6.8543500

 Broyden mixing:
  rms(total) = 0.29183E+01    rms(broyden)= 0.29174E+01
  rms(prec ) = 0.40944E+01
  weight for this iteration     100.00

 eigenvalues of (default mixing * dielectric matrix)
  average eigenvalue GAMMA=   0.5283
  1.1118  0.3777  0.0953

 Free energy of the ion-electron system (eV)
  ---------------------------------------------------
  alpha Z        PSCENC =      1224.38942132
  Ewald energy   TEWEN  =    -18799.39292388
  -Hartree energ DENC   =     -5400.80806732
  -exchange      EXHF   =         0.00000000
  -V(xc)+E(xc)   XCENC  =       647.33133099
  PAW double counting   =     21827.37574516   -22571.22355232
  entropy T*S    EENTRO =         0.00000000
  eigenvalues    EBANDS =     -1327.87643672
  atomic energy  EATOM  =     24304.10294433
  Solvation  Ediel_sol  =         0.00000000
  ---------------------------------------------------
  free energy    TOTEN  =       -96.10153844 eV

  energy without entropy =      -96.10153844  energy(sigma->0) =      -96.10153844


--------------------------------------------------------------------------------------------------------




--------------------------------------- Iteration      1(   9)  ---------------------------------------


    POTLOK:  cpu time      0.0327: real time      0.0451
    SETDIJ:  cpu time      0.0083: real time      0.0083
     EDDAV:  cpu time      6.1805: real time      6.2226
 BZINTS: Fermi energy:   12.081106;  156.000000 electrons
         Band energy:-0.137687E+04;  BLOECHL correction:   -0.016784
       DOS:  cpu time      0.1364: real time      0.1373
    CHARGE:  cpu time      0.1322: real time      0.1332
    MIXING:  cpu time      0.0016: real time      0.0017
    --------------------------------------------
      LOOP:  cpu time      6.4917: real time      6.5482

 eigenvalue-minimisations  : 49472
 total energy-change (2. order) :-0.1350979E+02  (-0.2134478E+02)
 number of electron     155.9999805 magnetization       8.7349210
 augmentation part       83.8860562 magnetization       6.5234054

 Broyden mixing:
  rms(total) = 0.55578E+01    rms(broyden)= 0.55574E+01
  rms(prec ) = 0.74677E+01
  weight for this iteration     100.00

 eigenvalues of (default mixing * dielectric matrix)
  average eigenvalue GAMMA=   0.5266
  1.4605  0.4296  0.0897  0.1268

 Free energy of the ion-electron system (eV)
  ---------------------------------------------------
  alpha Z        PSCENC =      1224.38942132
  Ewald energy   TEWEN  =    -18799.39292388
  -Hartree energ DENC   =     -5358.39365034
  -exchange      EXHF   =         0.00000000
  -V(xc)+E(xc)   XCENC  =       645.43018349
  PAW double counting   =     22146.19727895   -22895.07148928
  entropy T*S    EENTRO =         0.00000000
  eigenvalues    EBANDS =     -1376.87309355
  atomic energy  EATOM  =     24304.10294433
  Solvation  Ediel_sol  =         0.00000000
  ---------------------------------------------------
  free energy    TOTEN  =      -109.61132896 eV

  energy without entropy =     -109.61132896  energy(sigma->0) =     -109.61132896


--------------------------------------------------------------------------------------------------------




--------------------------------------- Iteration      1(  10)  ---------------------------------------


    POTLOK:  cpu time      0.0337: real time      0.0450
    SETDIJ:  cpu time      0.0077: real time      0.0078
     EDDAV:  cpu time      6.1494: real time      6.1912
 BZINTS: Fermi energy:   11.414133;  156.000000 electrons
         Band energy:-0.140116E+04;  BLOECHL correction:   -0.041053
       DOS:  cpu time      0.1362: real time      0.1372
    CHARGE:  cpu time      0.1324: real time      0.1331
    MIXING:  cpu time      0.0022: real time      0.0023
    --------------------------------------------
      LOOP:  cpu time      6.4617: real time      6.5165

 eigenvalue-minimisations  : 49632
 total energy-change (2. order) : 0.1649497E+02  (-0.3808035E+01)
 number of electron     155.9999778 magnetization       8.6869336
 augmentation part       84.5520457 magnetization       6.4842333

 Broyden mixing:
  rms(total) = 0.21300E+01    rms(broyden)= 0.21293E+01
  rms(prec ) = 0.30136E+01
  weight for this iteration     100.00

 eigenvalues of (default mixing * dielectric matrix)
  average eigenvalue GAMMA=   0.4625
  1.4013  0.4185  0.2528  0.0923  0.1477

 Free energy of the ion-electron system (eV)
  ---------------------------------------------------
  alpha Z        PSCENC =      1224.38942132
  Ewald energy   TEWEN  =    -18799.39292388
  -Hartree energ DENC   =     -5312.46437368
  -exchange      EXHF   =         0.00000000
  -V(xc)+E(xc)   XCENC  =       643.53530752
  PAW double counting   =     22413.56111147   -23165.68934379
  entropy T*S    EENTRO =         0.00000000
  eigenvalues    EBANDS =     -1401.15849884
  atomic energy  EATOM  =     24304.10294433
  Solvation  Ediel_sol  =         0.00000000
  ---------------------------------------------------
  free energy    TOTEN  =       -93.11635555 eV

  energy without entropy =      -93.11635555  energy(sigma->0) =      -93.11635555


--------------------------------------------------------------------------------------------------------




--------------------------------------- Iteration      1(  11)  ---------------------------------------


    POTLOK:  cpu time      0.0335: real time      0.0451
    SETDIJ:  cpu time      0.0075: real time      0.0075
     EDDAV:  cpu time      6.4922: real time      6.5361
 BZINTS: Fermi energy:   11.442233;  156.000000 electrons
         Band energy:-0.140186E+04;  BLOECHL correction:   -0.040922
       DOS:  cpu time      0.1366: real time      0.1376
    CHARGE:  cpu time      0.1319: real time      0.1326
    MIXING:  cpu time      0.0018: real time      0.0018
    --------------------------------------------
      LOOP:  cpu time      6.8035: real time      6.8607

 eigenvalue-minimisations  : 51808
 total energy-change (2. order) :-0.1361519E+00  (-0.2573918E+01)
 number of electron     155.9999780 magnetization       8.5771455
 augmentation part       84.5308050 magnetization       6.7660164

 Broyden mixing:
  rms(total) = 0.25139E+01    rms(broyden)= 0.25135E+01
  rms(prec ) = 0.35597E+01
  weight for this iteration     100.00

 eigenvalues of (default mixing * dielectric matrix)
  average eigenvalue GAMMA=   0.4345
  1.3223  0.4773  0.4773  0.1485  0.0938  0.0879

 Free energy of the ion-electron system (eV)
  ---------------------------------------------------
  alpha Z        PSCENC =      1224.38942132
  Ewald energy   TEWEN  =    -18799.39292388
  -Hartree energ DENC   =     -5311.26898295
  -exchange      EXHF   =         0.00000000
  -V(xc)+E(xc)   XCENC  =       643.53234602
  PAW double counting   =     22424.97297579   -23177.73305790
  entropy T*S    EENTRO =         0.00000000
  eigenvalues    EBANDS =     -1401.85523018
  atomic energy  EATOM  =     24304.10294433
  Solvation  Ediel_sol  =         0.00000000
  ---------------------------------------------------
  free energy    TOTEN  =       -93.25250744 eV

  energy without entropy =      -93.25250744  energy(sigma->0) =      -93.25250744


--------------------------------------------------------------------------------------------------------




--------------------------------------- Iteration      1(  12)  ---------------------------------------


    POTLOK:  cpu time      0.0304: real time      0.0443
    SETDIJ:  cpu time      0.0084: real time      0.0085
     EDDAV:  cpu time      6.4069: real time      6.4521
 BZINTS: Fermi energy:   11.428381;  156.000000 electrons
         Band energy:-0.139611E+04;  BLOECHL correction:   -0.042231
       DOS:  cpu time      0.1360: real time      0.1371
    CHARGE:  cpu time      0.1325: real time      0.1333
    MIXING:  cpu time      0.0018: real time      0.0018
    --------------------------------------------
      LOOP:  cpu time      6.7160: real time      6.7770

 eigenvalue-minimisations  : 50944
 total energy-change (2. order) : 0.1565976E+01  (-0.1695791E+01)
 number of electron     155.9999779 magnetization       8.5860626
 augmentation part       84.3496967 magnetization       6.4823540

 Broyden mixing:
  rms(total) = 0.70161E+00    rms(broyden)= 0.70078E+00
  rms(prec ) = 0.87255E+00
  weight for this iteration     100.00

 eigenvalues of (default mixing * dielectric matrix)
  average eigenvalue GAMMA=   0.4994
  1.2572  0.7761  0.7761  0.3678  0.1387  0.0938  0.0861

 Free energy of the ion-electron system (eV)
  ---------------------------------------------------
  alpha Z        PSCENC =      1224.38942132
  Ewald energy   TEWEN  =    -18799.39292388
  -Hartree energ DENC   =     -5314.13829656
  -exchange      EXHF   =         0.00000000
  -V(xc)+E(xc)   XCENC  =       643.73365658
  PAW double counting   =     22434.79484622   -23189.06638492
  entropy T*S    EENTRO =         0.00000000
  eigenvalues    EBANDS =     -1396.10979419
  atomic energy  EATOM  =     24304.10294433
  Solvation  Ediel_sol  =         0.00000000
  ---------------------------------------------------
  free energy    TOTEN  =       -91.68653110 eV

  energy without entropy =      -91.68653110  energy(sigma->0) =      -91.68653110


--------------------------------------------------------------------------------------------------------




--------------------------------------- Iteration      1(  13)  ---------------------------------------


    POTLOK:  cpu time      0.0311: real time      0.0452
    SETDIJ:  cpu time      0.0079: real time      0.0079
     EDDAV:  cpu time      6.6569: real time      6.7059
 BZINTS: Fermi energy:   11.406359;  156.000000 electrons
         Band energy:-0.140099E+04;  BLOECHL correction:   -0.038654
       DOS:  cpu time      0.1364: real time      0.1373
    CHARGE:  cpu time      0.1331: real time      0.1338
    MIXING:  cpu time      0.0018: real time      0.0019
    --------------------------------------------
      LOOP:  cpu time      6.9672: real time      7.0320

 eigenvalue-minimisations  : 52640
 total energy-change (2. order) :-0.1303907E+00  (-0.1976290E+00)
 number of electron     155.9999787 magnetization       8.6169452
 augmentation part       84.4667480 magnetization       6.4561013

 Broyden mixing:
  rms(total) = 0.72549E+00    rms(broyden)= 0.72526E+00
  rms(prec ) = 0.99145E+00
  weight for this iteration     100.00

 eigenvalues of (default mixing * dielectric matrix)
  average eigenvalue GAMMA=   0.4609
  1.2828  0.7869  0.7869  0.3625  0.0937  0.0861  0.1341  0.1544

 Free energy of the ion-electron system (eV)
  ---------------------------------------------------
  alpha Z        PSCENC =      1224.38942132
  Ewald energy   TEWEN  =    -18799.39292388
  -Hartree energ DENC   =     -5308.91256700
  -exchange      EXHF   =         0.00000000
  -V(xc)+E(xc)   XCENC  =       643.73526267
  PAW double counting   =     22445.97508344   -23200.72395539
  entropy T*S    EENTRO =         0.00000000
  eigenvalues    EBANDS =     -1400.99018731
  atomic energy  EATOM  =     24304.10294433
  Solvation  Ediel_sol  =         0.00000000
  ---------------------------------------------------
  free energy    TOTEN  =       -91.81692183 eV

  energy without entropy =      -91.81692183  energy(sigma->0) =      -91.81692183


--------------------------------------------------------------------------------------------------------




--------------------------------------- Iteration      1(  14)  ---------------------------------------


    POTLOK:  cpu time      0.0338: real time      0.0450
    SETDIJ:  cpu time      0.0081: real time      0.0082
     EDDAV:  cpu time      6.6977: real time      6.7440
 BZINTS: Fermi energy:   11.403417;  156.000000 electrons
[...]
    113      27.2216      0.00000
    114      27.5385      0.00000
    115      27.6195      0.00000
    116      28.0290      0.00000
    117      28.0865      0.00000
    118      28.8630      0.00000
    119      29.0979      0.00000
    120      29.5028      0.00000
    121      29.5522      0.00000
    122      29.5677      0.00000
    123      30.1312      0.00000
    124      31.3803      0.00000
    125      31.5537      0.00000
    126      31.8110      0.00000
    127      31.9455      0.00000
    128      32.6979      0.00000


--------------------------------------------------------------------------------------------------------


 soft charge-density along one line, spin component           1
         0         1         2         3         4         5         6         7         8         9
 total charge-density along one line
 
 soft charge-density along one line, spin component           2
         0         1         2         3         4         5         6         7         8         9
 total charge-density along one line
 
 pseudopotential strength for first ion, spin component:           1
-42.103  -0.000   0.000   6.416   0.000  -0.000  -0.000  -0.000
 -0.000 -42.149  -0.000   0.000   6.436   0.000  -0.000   0.000
  0.000  -0.000 -42.085  -0.000   0.000   6.409   0.000  -0.000
  6.416   0.000  -0.000   5.939   0.000  -0.000  -0.000   0.000
  0.000   6.436   0.000   0.000   5.933   0.000   0.000  -0.000
 -0.000   0.000   6.409  -0.000   0.000   5.938  -0.000   0.000
 -0.000  -0.000   0.000  -0.000   0.000  -0.000   0.195  -0.000
 -0.000   0.000  -0.000   0.000  -0.000   0.000  -0.000   0.184
 -0.000  -0.000   0.000   0.000   0.000  -0.000  -0.000  -0.000
 -0.000  -0.000  -0.000   0.000   0.000   0.000  -0.000   0.000
 -0.000   0.000  -0.000   0.000  -0.000   0.000   0.000   0.000
 -0.000  -0.000   0.000   0.000   0.000  -0.000  -0.355  -0.000
 -0.000   0.000  -0.000   0.000  -0.000   0.000  -0.000  -0.366
 -0.000  -0.000   0.000   0.000   0.000  -0.000  -0.000  -0.000
 -0.000  -0.000  -0.000   0.000   0.000   0.000  -0.000   0.000
 -0.000   0.000  -0.000   0.000  -0.000   0.000   0.000   0.000
 -0.000   0.000   0.000  -0.000   0.000   0.000  -0.000   0.000
 -0.000   0.000   0.000  -0.000   0.000   0.000  -0.000   0.000
 pseudopotential strength for first ion, spin component:           2
-43.783  -0.000   0.000   7.126   0.000  -0.000  -0.000  -0.000
 -0.000 -43.821  -0.000   0.000   7.140   0.000  -0.000   0.000
  0.000  -0.000 -43.699  -0.000   0.000   7.091   0.000  -0.000
  7.126   0.000  -0.000   5.742   0.000  -0.000   0.000   0.000
  0.000   7.140   0.000   0.000   5.739   0.000   0.000  -0.000
 -0.000   0.000   7.091  -0.000   0.000   5.748  -0.000   0.000
 -0.000  -0.000   0.000   0.000   0.000  -0.000  -1.032  -0.000
 -0.000   0.000  -0.000   0.000  -0.000   0.000  -0.000  -1.170
 -0.000  -0.000   0.000   0.000   0.000  -0.000  -0.000  -0.000
 -0.000  -0.000  -0.000   0.000   0.000   0.000  -0.000   0.000
 -0.000   0.000  -0.000   0.000  -0.000   0.000   0.000   0.000
 -0.000  -0.000   0.000   0.000   0.000  -0.000  -1.561  -0.000
 -0.000   0.000  -0.000   0.000  -0.000   0.000  -0.000  -1.697
 -0.000  -0.000  -0.000   0.000   0.000   0.000  -0.000  -0.000
 -0.000  -0.000  -0.000   0.000   0.000   0.000  -0.000   0.000
 -0.000   0.000  -0.000   0.000  -0.000   0.000   0.000   0.000
 -0.000   0.000   0.000  -0.000   0.000   0.000  -0.000   0.000
 -0.000   0.000   0.000  -0.000   0.000   0.000  -0.000   0.000
 total augmentation occupancy for first ion, spin component:           1
  1.992   0.000   0.000  -0.025   0.000   0.000   0.000  -0.000   0.000   0.000   0.000   0.000   0.000   0.000   0.000   0.000
  0.000   1.992   0.000   0.000  -0.026   0.000   0.000  -0.000   0.000   0.000   0.000  -0.000   0.000  -0.000   0.000  -0.000
  0.000   0.000   1.992   0.000   0.000  -0.026  -0.000   0.000   0.000  -0.000   0.000   0.000   0.000  -0.000   0.000   0.000
 -0.025   0.000   0.000   0.229   0.000   0.000   0.000  -0.000   0.000  -0.000   0.000   0.000   0.000   0.000  -0.000   0.000
  0.000  -0.026   0.000   0.000   0.226   0.000  -0.000  -0.000  -0.000   0.000   0.000  -0.000   0.000   0.000   0.000  -0.000
  0.000   0.000  -0.026   0.000   0.000   0.194   0.000  -0.000   0.000  -0.000  -0.000   0.000  -0.000   0.000   0.000   0.000
  0.000   0.000  -0.000   0.000  -0.000   0.000   2.558   0.000   0.000   0.000   0.000  -1.524  -0.000   0.000   0.000   0.000
 -0.000  -0.000   0.000  -0.000  -0.000  -0.000   0.000   2.772  -0.000   0.000   0.000  -0.000  -2.151  -0.000   0.000   0.000
  0.000   0.000   0.000   0.000  -0.000   0.000   0.000  -0.000   3.209   0.000   0.289   0.000   0.000  -1.937  -0.000  -0.228
  0.000   0.000  -0.000  -0.000   0.000  -0.000   0.000   0.000   0.000   2.242   0.000   0.000   0.000  -0.000  -1.379   0.000
  0.000   0.000   0.000   0.000   0.000  -0.000   0.000   0.000   0.289   0.000   2.924   0.000   0.000  -0.224   0.000  -1.837
  0.000  -0.000   0.000   0.000  -0.000   0.000  -1.524  -0.000   0.000   0.000   0.000   1.929   0.000   0.000   0.000   0.000
  0.000   0.000   0.000   0.000   0.000  -0.000  -0.000  -2.151   0.000   0.000   0.000   0.000   2.798  -0.000   0.000   0.000
  0.000  -0.000  -0.000   0.000   0.000   0.000   0.000  -0.000  -1.937   0.000  -0.224   0.000  -0.000   2.056  -0.000   0.142
  0.000   0.000   0.000  -0.000   0.000   0.000   0.000   0.000  -0.000  -1.379   0.000   0.000   0.000  -0.000   1.788   0.000
  0.000  -0.000   0.000   0.000  -0.000   0.000   0.000   0.000  -0.228   0.000  -1.837   0.000   0.000   0.142   0.000   2.040
  0.000  -0.000   0.000  -0.000   0.000  -0.000   0.000   0.000  -0.139   0.000   0.256  -0.000   0.000   0.099   0.000  -0.232
 -0.000   0.000   0.000   0.000  -0.000   0.000   0.000   0.000   0.011   0.000  -0.013   0.000   0.000  -0.006   0.000   0.011
 total augmentation occupancy for first ion, spin component:           2
  0.002   0.000   0.000   0.006   0.000   0.000   0.000  -0.000   0.000   0.000  -0.000   0.000   0.000   0.000  -0.000   0.000
  0.000   0.001   0.000   0.000   0.005  -0.000   0.000   0.000  -0.000   0.000   0.000   0.000   0.000   0.000   0.000  -0.000
  0.000   0.000   0.002   0.000   0.000   0.006   0.000  -0.000   0.000  -0.000   0.000   0.000   0.000   0.000   0.000   0.000
  0.006   0.000   0.000  -0.012   0.000   0.000   0.000  -0.000   0.000   0.000   0.000   0.000   0.000   0.000  -0.000   0.000
  0.000   0.005   0.000   0.000  -0.009   0.000  -0.000  -0.000  -0.000  -0.000  -0.000   0.000  -0.000   0.000   0.000  -0.000
  0.000  -0.000   0.006   0.000   0.000  -0.012   0.000   0.000  -0.000  -0.000   0.000   0.000  -0.000   0.000   0.000  -0.000
  0.000   0.000   0.000   0.000  -0.000   0.000  -1.479  -0.000   0.000   0.000   0.000   0.661  -0.000   0.000   0.000   0.000
 -0.000   0.000  -0.000  -0.000  -0.000   0.000  -0.000  -1.394   0.000  -0.000   0.000   0.000   0.417   0.000  -0.000   0.000
  0.000  -0.000   0.000   0.000  -0.000  -0.000   0.000   0.000  -1.836   0.000  -0.226   0.000   0.000   0.799  -0.000   0.093
  0.000   0.000  -0.000  -0.000  -0.000  -0.000   0.000   0.000   0.000  -1.328  -0.000   0.000   0.000  -0.000   0.269   0.000
 -0.000   0.000   0.000   0.000  -0.000  -0.000   0.000   0.000  -0.226  -0.000  -1.902   0.000   0.000   0.096   0.000   0.672
  0.000   0.000   0.000   0.000   0.000   0.000   0.661   0.000   0.000   0.000   0.000  -0.149   0.000   0.000   0.000   0.000
  0.000   0.000   0.000   0.000  -0.000  -0.000  -0.000   0.417   0.000   0.000   0.000   0.000   0.135   0.000  -0.000   0.000
  0.000   0.000   0.000   0.000   0.000   0.000   0.000   0.000   0.799  -0.000   0.096   0.000   0.000  -0.233  -0.000  -0.043
 -0.000   0.000   0.000  -0.000   0.000   0.000   0.000   0.000  -0.000   0.269   0.000   0.000   0.000  -0.000   0.260   0.000
  0.000  -0.000   0.000   0.000  -0.000  -0.000   0.000   0.000   0.093   0.000   0.672   0.000  -0.000  -0.043   0.000  -0.033
  0.000  -0.000  -0.000   0.000  -0.000   0.000   0.000   0.000  -0.035  -0.000  -0.052   0.000   0.000   0.002   0.000   0.021
  0.000   0.000   0.000   0.000  -0.000   0.000   0.000   0.000  -0.004   0.000   0.002   0.000   0.000   0.000  -0.000  -0.000


------------------------ aborting loop because EDIFF is reached ----------------------------------------





 total charge

# of ion       s       p       d       tot
------------------------------------------
    1        0.386   6.408   6.112  12.906
    2        0.379   6.392   6.118  12.889
    3        0.379   6.392   6.118  12.889
    4        0.386   6.400   6.117  12.903
    5        0.386   6.400   6.117  12.903
    6        0.380   6.395   6.097  12.872
    7        0.386   6.408   6.112  12.906
    8        0.379   6.392   6.118  12.889
    9        0.379   6.392   6.118  12.889
   10        0.833   0.849   8.066   9.748
   11        0.833   0.849   8.066   9.748
   12        0.819   0.844   8.080   9.742
--------------------------------------------------
tot          5.926  60.124  79.236 145.286



 magnetization (x)

# of ion       s       p       d       tot
------------------------------------------
    1       -0.016  -0.020  -1.945  -1.981
    2        0.000  -0.012   2.312   2.300
    3        0.000  -0.012   2.312   2.300
    4        0.011   0.021   1.953   1.985
    5        0.011   0.021   1.954   1.985
    6       -0.002  -0.011   2.413   2.400
    7       -0.016  -0.020  -1.945  -1.981
    8        0.000  -0.012   2.312   2.300
    9        0.000  -0.012   2.312   2.300
   10       -0.011  -0.022   0.048   0.015
   11       -0.011  -0.022   0.048   0.015
   12       -0.037  -0.102   0.381   0.242
--------------------------------------------------
tot         -0.070  -0.202  12.153  11.880
 
    CHARGE:  cpu time      0.1324: real time      0.1331
    FORLOC:  cpu time      0.0020: real time      0.0022
    FORNL :  cpu time      0.6556: real time      0.6588
    STRESS:  cpu time      3.9426: real time      3.9768
    FORCOR:  cpu time      0.0197: real time      0.0199
    FORHAR:  cpu time      0.0026: real time      0.0027
    MIXING:  cpu time      0.0133: real time      0.0134
    OFIELD:  cpu time      0.0021: real time      0.0024

  FORCE on cell =-STRESS in cart. coord.  units (eV):
  Direction    XX          YY          ZZ          XY          YZ          ZX
  --------------------------------------------------------------------------------------
  Alpha Z  1224.38942  1224.38942  1224.38942
  Ewald   -6262.44889 -6262.44787 -6274.51568     0.00000    -0.00000     0.00000
  Hartree  1771.68268  1771.67864  1760.44282    -0.00000    -0.00000    -0.00000
  E(xc)    -946.52356  -946.52351  -946.48747     0.00000    -0.00000    -0.00000
  Local    1275.69398  1275.70659  1303.71772     0.00000     0.00000    -0.00000
  n-local  -192.15571  -204.74301  -198.50495    16.17353     0.20021     0.29817
  augment  1435.61313  1435.60737  1432.61339     0.00000     0.00000     0.00000
  Kinetic  1729.06044  1706.00190  1715.66646     5.72065    -0.15104    -0.09212
  Fock        0.00000     0.00000     0.00000     0.00000     0.00000     0.00000
  -------------------------------------------------------------------------------------
  Total      17.49051    17.49041    17.32170     0.00000     0.00000     0.00000
  in kB     201.60363   201.60245   199.65777     0.00000     0.00000     0.00000
  external pressure =      200.95 kB  Pullay stress =        0.00 kB


 VOLUME and BASIS-vectors are now :
 -----------------------------------------------------------------------------
  energy-cutoff  :      520.00
  volume of cell :      139.00
      direct lattice vectors                 reciprocal lattice vectors
     3.583861114  0.000000000  0.000000000     0.279028670  0.000000000  0.000000000
     0.000000000  3.583850625  0.000000000     0.000000000  0.279029487  0.000000000
     0.000000000  0.000000000 10.822154488     0.000000000  0.000000000  0.092403042

  length of vectors
     3.583861114  3.583850625 10.822154488     0.279028670  0.279029487  0.092403042


 FORCES acting on ions
    electron-ion (+dipol)            ewald-force                    non-local-force                 convergence-correction
 -----------------------------------------------------------------------------------------------
   -.432E-13 0.884E-12 0.123E-01   -.140E-13 0.128E-13 -.172E-01   0.247E-22 -.507E-22 0.782E-03   -.591E-13 0.298E-14 0.224E-02
   -.479E-13 0.933E-12 -.400E+02   0.224E-13 0.232E-13 0.405E+02   -.196E-18 -.356E-18 -.470E+00   -.358E-13 0.787E-14 0.253E-02
   -.402E-13 0.246E-11 0.400E+02   0.220E-13 -.111E-13 -.404E+02   0.176E-18 0.349E-19 0.471E+00   -.664E-13 0.629E-14 -.468E-02
   0.105E-11 0.734E-11 -.492E+01   0.481E-13 -.132E-14 0.337E+01   0.209E-18 -.161E-18 0.154E+01   -.249E-12 0.461E-14 -.287E-02
   0.106E-11 0.686E-11 0.491E+01   -.168E-13 0.824E-14 -.336E+01   0.125E-18 0.260E-19 -.154E+01   -.286E-12 -.321E-13 0.695E-02
   0.104E-11 -.398E-11 0.628E-01   0.530E-13 0.883E-14 -.587E-01   0.191E-22 0.263E-22 0.992E-04   -.262E-12 -.212E-13 -.408E-02
   0.106E-11 -.577E-13 0.142E-01   0.685E-13 0.573E-14 -.151E-01   -.463E-22 -.866E-22 0.782E-03   -.243E-12 0.247E-13 0.224E-02
   0.107E-11 -.135E-12 -.400E+02   -.712E-13 -.965E-14 0.404E+02   -.240E-18 0.702E-18 -.470E+00   -.232E-12 0.124E-13 0.253E-02
   0.107E-11 -.926E-13 0.400E+02   -.972E-15 0.254E-13 -.404E+02   -.267E-18 -.500E-20 0.471E+00   -.264E-12 0.867E-14 -.468E-02
   -.268E-13 -.793E-14 0.242E+02   -.871E-13 -.232E-13 -.243E+02   0.337E-18 0.239E-18 0.515E-01   0.482E-14 -.103E-13 -.209E-02
   -.307E-13 -.554E-13 -.243E+02   0.548E-13 -.136E-13 0.243E+02   0.276E-18 -.265E-18 -.508E-01   0.128E-13 -.897E-14 0.501E-02
   -.285E-13 -.445E-13 0.520E-02   -.564E-13 0.524E-15 -.235E-02   -.346E-22 0.231E-21 0.453E-03   0.914E-14 -.551E-14 -.291E-02
 -----------------------------------------------------------------------------------------------
   0.614E-11 0.141E-10 -.228E-02   0.224E-13 0.259E-13 -.355E-13   0.419E-18 0.215E-18 0.553E-02   -.167E-11 -.105E-13 0.182E-03
 
 
 POSITION                                       TOTAL-FORCE (eV/Angst)
 -----------------------------------------------------------------------------------
      0.00000      1.79193      1.80370         0.000000      0.000000     -0.000164
      0.00000      1.79193      5.39473         0.000000      0.000000     -0.006683
      0.00000      1.79193      9.03480         0.000000     -0.000000      0.006707
      1.79193      1.79193     10.80175        -0.000000     -0.000000     -0.017190
      1.79193      1.79193      3.62781        -0.000000     -0.000000      0.017358
      1.79193      1.79193      7.21482        -0.000000     -0.000000     -0.000096
      1.79193      0.00000      1.80370         0.000000      0.000000     -0.000164
      1.79193      0.00000      5.39475         0.000000      0.000000     -0.006683
      1.79193      0.00000      9.03478         0.000000      0.000000      0.006707
      0.00000      0.00000      0.03728         0.000000      0.000000     -0.033872
      0.00000      0.00000      3.57006         0.000000      0.000000      0.033978
      0.00000      0.00000      7.21474         0.000000      0.000000      0.000102
 -----------------------------------------------------------------------------------
    total drift:                                0.000000      0.000000      0.003430


--------------------------------------------------------------------------------------------------------



  FREE ENERGIE OF THE ION-ELECTRON SYSTEM (eV)
  ---------------------------------------------------
  free  energy   TOTEN  =       -92.42907450 eV

  energy  without entropy=      -92.42907450  energy(sigma->0) =      -92.42907450
 


--------------------------------------------------------------------------------------------------------


    POTLOK:  cpu time      0.0369: real time      0.0372


--------------------------------------------------------------------------------------------------------


     LOOP+:  cpu time    223.7793: real time    225.7245
 -----------------------------------------------------------------------------
|                                                                             |
|           W    W    AA    RRRRR   N    N  II  N    N   GGGG   !!!           |
|           W    W   A  A   R    R  NN   N  II  NN   N  G    G  !!!           |
|           W    W  A    A  R    R  N N  N  II  N N  N  G       !!!           |
|           W WW W  AAAAAA  RRRRR   N  N N  II  N  N N  G  GGG   !            |
|           WW  WW  A    A  R   R   N   NN  II  N   NN  G    G                |
|           W    W  A    A  R    R  N    N  II  N    N   GGGG   !!!           |
|                                                                             |
|     Tetrahedron method does not include variations of the Fermi             |
|     occupations, so forces and stress will be inaccurate. We suggest        |
|     using a different smearing scheme ISMEAR = 1 or 2 for metals in         |
|     relaxations.                                                            |
|                                                                             |
 -----------------------------------------------------------------------------

    4ORBIT:  cpu time      0.0000: real time      0.0000



 total charge

# of ion       s       p       d       tot
------------------------------------------
    1        0.386   6.408   6.112  12.906
    2        0.379   6.392   6.118  12.889
    3        0.379   6.392   6.118  12.889
    4        0.386   6.400   6.117  12.903
    5        0.386   6.400   6.117  12.903
    6        0.380   6.395   6.097  12.872
    7        0.386   6.408   6.112  12.906
    8        0.379   6.392   6.118  12.889
    9        0.379   6.392   6.118  12.889
   10        0.833   0.849   8.066   9.748
   11        0.833   0.849   8.066   9.748
   12        0.819   0.844   8.080   9.742
--------------------------------------------------
tot          5.926  60.124  79.236 145.286



 magnetization (x)

# of ion       s       p       d       tot
------------------------------------------
    1       -0.016  -0.020  -1.945  -1.981
    2        0.000  -0.012   2.312   2.300
    3        0.000  -0.012   2.312   2.300
    4        0.011   0.021   1.953   1.985
    5        0.011   0.021   1.954   1.985
    6       -0.002  -0.011   2.413   2.400
    7       -0.016  -0.020  -1.945  -1.981
    8        0.000  -0.012   2.312   2.300
    9        0.000  -0.012   2.312   2.300
   10       -0.011  -0.022   0.048   0.015
   11       -0.011  -0.022   0.048   0.015
   12       -0.037  -0.102   0.381   0.242
--------------------------------------------------
tot         -0.070  -0.202  12.153  11.880
 
 BZINTS: Fermi energy:   11.471315;  156.000000 electrons
         Band energy:-0.140026E+04;  BLOECHL correction:   -0.036993

 total amount of memory used by VASP MPI-rank0   172792. kBytes
=======================================================================

   base      :      30000. kBytes
   nonl-proj :      92073. kBytes
   fftplans  :        848. kBytes
   grid      :       6490. kBytes
   one-center:        373. kBytes
   wavefun   :      43008. kBytes
 
  
  
 General timing and accounting informations for this job:
 ========================================================
  
                  Total CPU time used (sec):      242.011
                            User time (sec):      233.213
                          System time (sec):        8.797
                         Elapsed time (sec):      249.787
  
                   Maximum memory used (kb):      923964.
                   Average memory used (kb):          N/A
  
                          Minor page faults:       218010
                          Major page faults:          147
                 Voluntary context switches:         9754
