       N       E                     dE             d eps       ncg     rms          rms(c)
DAV:   1    -0.110992235130E+02   -0.11099E+02   -0.45790E+03  7168   0.143E+02
DAV:   2    -0.148693000580E+02   -0.37701E+01   -0.37485E+01 10880   0.876E+00
DAV:   3    -0.148713753141E+02   -0.20753E-02   -0.20602E-02  7168   0.287E-01
DAV:   4    -0.148713764314E+02   -0.11173E-05   -0.11029E-05 14144   0.550E-03
DAV:   5    -0.148713764308E+02    0.61073E-09   -0.15692E-11  7168   0.598E-06    0.226E+00
DAV:   6    -0.148223203635E+02    0.49056E-01   -0.91103E-03 11520   0.111E-01    0.132E+00
DAV:   7    -0.147871699335E+02    0.35150E-01   -0.25564E-02 11136   0.175E-01    0.246E-01
DAV:   8    -0.147870729766E+02    0.96957E-04   -0.29973E-05  8896   0.882E-03    0.159E-02
DAV:   9    -0.147870685490E+02    0.44276E-05   -0.51235E-06 12992   0.237E-03    0.120E-03
DAV:  10    -0.147870666874E+02    0.18616E-05   -0.21265E-08  7616   0.239E-04    0.217E-04
DAV:  11    -0.147870665921E+02    0.95334E-07   -0.75489E-10  7040   0.352E-05
   1 F= -.14787067E+02 E0= -.14787067E+02  d E =0.000000E+00
