 vasp.6.4.3 19Mar24 (build Mar 26 2024 14:05:37) complex                        
  
 executed on             LinuxIFC date 2025.01.03  04:48:40
 running   64 mpi-ranks, on    1 nodes
 distrk:  each k-point on   64 cores,    1 groups
 distr:  one band on NCORE=   1 cores,   64 groups


--------------------------------------------------------------------------------------------------------


 INCAR:
   ALGO = Normal
   EDIFF = 1e-06
   EDIFFG = -0.01
   ENCUT = 520
   GGA = Pe
   IBRION = -1
   ISIF = 4
   ISMEAR = -5
   LCHARG = False
   LREAL = False
   LWAVE = False
   NELM = 200
   NSW = 0
   PREC = Accurate
   SIGMA = 0.2

 POTCAR:    PAW_PBE Al 04Jan2001                  
 -----------------------------------------------------------------------------
|                                                                             |
|           W    W    AA    RRRRR   N    N  II  N    N   GGGG   !!!           |
|           W    W   A  A   R    R  NN   N  II  NN   N  G    G  !!!           |
|           W    W  A    A  R    R  N N  N  II  N N  N  G       !!!           |
|           W WW W  AAAAAA  RRRRR   N  N N  II  N  N N  G  GGG   !            |
|           WW  WW  A    A  R   R   N   NN  II  N   NN  G    G                |
|           W    W  A    A  R    R  N    N  II  N    N   GGGG   !!!           |
|                                                                             |
|     For optimal performance we recommend to set                             |
|       NCORE = 2 up to number-of-cores-per-socket                            |
|     NCORE specifies how many cores store one orbital (NPAR=cpu/NCORE).      |
|     This setting can greatly improve the performance of VASP for DFT.       |
|     The default, NCORE=1 might be grossly inefficient on modern             |
|     multi-core architectures or massively parallel machines. Do your        |
|     own testing! More info at https://www.vasp.at/wiki/index.php/NCORE      |
|     Unfortunately you need to use the default for GW and RPA                |
|     calculations (for HF NCORE is supported but not extensively tested      |
|     yet).                                                                   |
|                                                                             |
 -----------------------------------------------------------------------------

 POTCAR:    PAW_PBE Al 04Jan2001                  
   SHA256 =  17880443556af62b473fe41b62a467bd001ad55d2cabe504a3f22e34d4e9db96 Al/POTCAR             
   COPYR  = (c) Copyright 04Jan2001 Georg Kresse                                                    
   COPYR  = This file is part of the software VASP. Any use, copying, and all other rights are regul
   COPYR  = If you do not have a valid VASP license, you may not use, copy or distribute this file. 
   VRHFIN =Al: s2p1                                                                                 
   LEXCH  = PE                                                                                      
   EATOM  =    53.5387 eV,    3.9350 Ry                                                             
                                                                                                    
   TITEL  = PAW_PBE Al 04Jan2001                                                                    
   LULTRA =        F    use ultrasoft PP ?                                                          
   IUNSCR =        1    unscreen: 0-lin 1-nonlin 2-no                                               
   RPACOR =    1.500    partial core radius                                                         
   POMASS =   26.981; ZVAL   =    3.000    mass and valenz                                          
   RCORE  =    1.900    outmost cutoff radius                                                       
   RWIGS  =    2.650; RWIGS  =    1.402    wigner-seitz radius (au A)                               
   ENMAX  =  240.300; ENMIN  =  180.225 eV                                                          
   ICORE  =        2    local potential                                                             
   LCOR   =        T    correct aug charges                                                         
   LPAW   =        T    paw PP                                                                      
   EAUG   =  291.052                                                                                
   DEXC   =    0.000                                                                                
   RMAX   =    1.939    core radius for proj-oper                                                   
   RAUG   =    1.300    factor for augmentation sphere                                              
   RDEP   =    1.966    radius for radial grids                                                     
   RDEPT  =    1.856    core radius for aug-charge                                                  
                                                                                                    
   Atomic configuration                                                                             
    6 entries                                                                                       
     n  l   j            E        occ.                                                              
     1  0  0.50     -1511.1048   2.0000                                                             
     2  0  0.50      -108.1629   2.0000                                                             
     2  1  1.50       -69.6402   6.0000                                                             
     3  0  0.50        -7.7528   2.0000                                                             
     3  1  1.50        -2.7121   1.0000                                                             
     3  2  2.50        -2.7212   0.0000                                                             
   Description                                                                                      
     l       E           TYP  RCUT    TYP  RCUT                                                     
     0     -7.7528455     23  1.900                                                                 
     0     -3.3096929     23  1.900                                                                 
     1     -2.7120682     23  1.900                                                                 
     1     13.6058260     23  1.900                                                                 
     2     -2.7211652      7  1.900                                                                 
  local pseudopotential read in
  partial core-charges read in
  partial kinetic energy density read in
  atomic valenz-charges read in
  non local Contribution for L=           0  read in
    real space projection operators read in
  non local Contribution for L=           0  read in
    real space projection operators read in
  non local Contribution for L=           1  read in
    real space projection operators read in
  non local Contribution for L=           1  read in
    real space projection operators read in
    PAW grid and wavefunctions read in
 
   number of l-projection  operators is LMAX  =           4
   number of lm-projection operators is LMMAX =           8
 
  PAW_PBE Al 04Jan2001                  :
 energy of atom  1       EATOM=  -53.5387
 kinetic energy error for atom=    0.0002 (will be added to EATOM!!)
 
 
 POSCAR: Al4
  positions in direct lattice
  velocities in cartesian coordinates


 exchange-correlation table for PE
   RHO(1)=    0.500       N(1)  =     2000
   RHO(2)=  100.500       N(2)  =     4000
 


--------------------------------------------------------------------------------------------------------


 ion  position               nearest neighbor table
   1  0.000  0.000  0.000-   4 2.97   4 2.97   2 2.97   3 2.97   2 2.97   2 2.97   2 2.97   3 2.97
                             3 2.97   3 2.97   4 2.97   4 2.97
   2  0.000  0.500  0.500-   3 2.97   3 2.97   1 2.97   4 2.97   1 2.97   1 2.97   1 2.97   4 2.97
                             4 2.97   4 2.97   3 2.97   3 2.97
   3  0.500  0.000  0.500-   2 2.97   2 2.97   1 2.97   4 2.97   1 2.97   4 2.97   4 2.97   1 2.97
                             4 2.97   1 2.97   2 2.97   2 2.97
   4  0.500  0.500  0.000-   1 2.97   1 2.97   2 2.97   3 2.97   2 2.97   3 2.97   3 2.97   3 2.97
                             2 2.97   2 2.97   1 2.97   1 2.97
 
  LATTYP: Found a simple cubic cell.
 ALAT       =     4.1983364538
  
  Lattice vectors:
  
 A1 = (   4.1983364538,   0.0000000000,   0.0000000000)
 A2 = (   0.0000000000,   4.1983364538,   0.0000000000)
 A3 = (   0.0000000000,   0.0000000000,   4.1983364538)


Analysis of symmetry for initial positions (statically):
=====================================================================
 Subroutine PRICEL returns following result:
 
  LATTYP: Found a face centered cubic cell.
 ALAT       =     4.1983364538
  
  Lattice vectors:
  
 A1 = (   2.0991682269,  -2.0991682269,   0.0000000000)
 A2 = (   2.0991682269,   0.0000000000,   2.0991682269)
 A3 = (  -0.0000000000,  -2.0991682269,   2.0991682269)
 
   4 primitive cells build up your supercell.
 

 Routine SETGRP: Setting up the symmetry group for a 
 simple cubic supercell.


 Subroutine GETGRP returns: Found 48 space group operations
 (whereof 48 operations were pure point group operations)
 out of a pool of 48 trial point group operations.


The static configuration has the point symmetry O_h .


Analysis of symmetry for dynamics (positions and initial velocities):
=====================================================================
 Subroutine PRICEL returns following result:
 
  LATTYP: Found a face centered cubic cell.
 ALAT       =     4.1983364538
  
  Lattice vectors:
  
 A1 = (   2.0991682269,  -2.0991682269,   0.0000000000)
 A2 = (   2.0991682269,   0.0000000000,   2.0991682269)
 A3 = (  -0.0000000000,  -2.0991682269,   2.0991682269)
 
   4 primitive cells build up your supercell.
 

 Routine SETGRP: Setting up the symmetry group for a 
 simple cubic supercell.


 Subroutine GETGRP returns: Found 48 space group operations
 (whereof 48 operations were pure point group operations)
 out of a pool of 48 trial point group operations.


The dynamic configuration has the point symmetry O_h .


 Subroutine INISYM returns: Found 48 space group operations
 (whereof 48 operations are pure point group operations),
 and found     4 'primitive' translations


----------------------------------------------------------------------------------------

                                     Primitive cell                                     

  volume of cell :      18.5000

  direct lattice vectors                    reciprocal lattice vectors
     2.099168227 -2.099168227  0.000000000     0.238189581 -0.238189581 -0.238189581
     2.099168227  0.000000000  2.099168227     0.238189581  0.238189581  0.238189581
    -0.000000000 -2.099168227  2.099168227    -0.238189581 -0.238189581  0.238189581

  length of vectors
     2.968672176  2.968672176  2.968672176     0.412556456  0.412556456  0.412556456

  position of ions in fractional coordinates (direct lattice)
     0.000000000  0.000000000  0.000000000

  ion indices of the primitive-cell ions
   primitive index   ion index
                 1           1

----------------------------------------------------------------------------------------

 
 
 KPOINTS: pymatgen with grid density = 4001 / numb

Automatic generation of k-mesh.
 Grid dimensions read from file:
 generate k-points for:   10   10   10

 Generating k-lattice:

  Cartesian coordinates                     Fractional coordinates (reciprocal lattice)
     0.023818958 -0.000000000  0.000000000     0.100000000  0.000000000  0.000000000
     0.000000000  0.023818958  0.000000000     0.000000000  0.100000000  0.000000000
    -0.000000000 -0.000000000  0.023818958     0.000000000  0.000000000  0.100000000

  Length of vectors
     0.023818958  0.023818958  0.023818958

  Shift w.r.t. Gamma in fractional coordinates (k-lattice)
     0.000000000  0.000000000  0.000000000

 TETIRR: Found    492 inequivalent tetrahedra from     6000
 
 Subroutine IBZKPT returns following result:
 ===========================================
 
 Found     56 irreducible k-points:
 
 Following reciprocal coordinates:
            Coordinates               Weight
  0.000000  0.000000  0.000000      1.000000
  0.100000  0.000000  0.000000      6.000000
  0.200000  0.000000  0.000000      6.000000
  0.300000  0.000000  0.000000      6.000000
  0.400000  0.000000  0.000000      6.000000
  0.500000  0.000000  0.000000      3.000000
  0.100000  0.100000  0.000000     12.000000
  0.200000  0.100000  0.000000     24.000000
  0.300000  0.100000  0.000000     24.000000
  0.400000  0.100000  0.000000     24.000000
  0.500000  0.100000  0.000000     12.000000
  0.200000  0.200000  0.000000     12.000000
  0.300000  0.200000  0.000000     24.000000
  0.400000  0.200000  0.000000     24.000000
  0.500000  0.200000  0.000000     12.000000
  0.300000  0.300000  0.000000     12.000000
  0.400000  0.300000  0.000000     24.000000
  0.500000  0.300000  0.000000     12.000000
  0.400000  0.400000  0.000000     12.000000
  0.500000  0.400000  0.000000     12.000000
  0.500000  0.500000  0.000000      3.000000
  0.100000  0.100000  0.100000      8.000000
  0.200000  0.100000  0.100000     24.000000
  0.300000  0.100000  0.100000     24.000000
  0.400000  0.100000  0.100000     24.000000
  0.500000  0.100000  0.100000     12.000000
  0.200000  0.200000  0.100000     24.000000
  0.300000  0.200000  0.100000     48.000000
  0.400000  0.200000  0.100000     48.000000
  0.500000  0.200000  0.100000     24.000000
  0.300000  0.300000  0.100000     24.000000
  0.400000  0.300000  0.100000     48.000000
  0.500000  0.300000  0.100000     24.000000
  0.400000  0.400000  0.100000     24.000000
  0.500000  0.400000  0.100000     24.000000
  0.500000  0.500000  0.100000      6.000000
  0.200000  0.200000  0.200000      8.000000
  0.300000  0.200000  0.200000     24.000000
  0.400000  0.200000  0.200000     24.000000
  0.500000  0.200000  0.200000     12.000000
  0.300000  0.300000  0.200000     24.000000
  0.400000  0.300000  0.200000     48.000000
  0.500000  0.300000  0.200000     24.000000
  0.400000  0.400000  0.200000     24.000000
  0.500000  0.400000  0.200000     24.000000
  0.500000  0.500000  0.200000      6.000000
  0.300000  0.300000  0.300000      8.000000
  0.400000  0.300000  0.300000     24.000000
  0.500000  0.300000  0.300000     12.000000
  0.400000  0.400000  0.300000     24.000000
  0.500000  0.400000  0.300000     24.000000
  0.500000  0.500000  0.300000      6.000000
  0.400000  0.400000  0.400000      8.000000
  0.500000  0.400000  0.400000     12.000000
  0.500000  0.500000  0.400000      6.000000
  0.500000  0.500000  0.500000      1.000000
 
 Following cartesian coordinates:
            Coordinates               Weight
  0.000000  0.000000  0.000000      1.000000
  0.023819  0.000000  0.000000      6.000000
  0.047638  0.000000  0.000000      6.000000
  0.071457  0.000000  0.000000      6.000000
  0.095276  0.000000  0.000000      6.000000
  0.119095  0.000000  0.000000      3.000000
  0.023819  0.023819  0.000000     12.000000
  0.047638  0.023819  0.000000     24.000000
  0.071457  0.023819  0.000000     24.000000
  0.095276  0.023819  0.000000     24.000000
  0.119095  0.023819  0.000000     12.000000
  0.047638  0.047638  0.000000     12.000000
  0.071457  0.047638  0.000000     24.000000
  0.095276  0.047638  0.000000     24.000000
  0.119095  0.047638  0.000000     12.000000
  0.071457  0.071457  0.000000     12.000000
  0.095276  0.071457  0.000000     24.000000
  0.119095  0.071457  0.000000     12.000000
  0.095276  0.095276  0.000000     12.000000
  0.119095  0.095276  0.000000     12.000000
  0.119095  0.119095  0.000000      3.000000
  0.023819  0.023819  0.023819      8.000000
  0.047638  0.023819  0.023819     24.000000
  0.071457  0.023819  0.023819     24.000000
  0.095276  0.023819  0.023819     24.000000
  0.119095  0.023819  0.023819     12.000000
  0.047638  0.047638  0.023819     24.000000
  0.071457  0.047638  0.023819     48.000000
  0.095276  0.047638  0.023819     48.000000
  0.119095  0.047638  0.023819     24.000000
  0.071457  0.071457  0.023819     24.000000
  0.095276  0.071457  0.023819     48.000000
  0.119095  0.071457  0.023819     24.000000
  0.095276  0.095276  0.023819     24.000000
  0.119095  0.095276  0.023819     24.000000
  0.119095  0.119095  0.023819      6.000000
  0.047638  0.047638  0.047638      8.000000
  0.071457  0.047638  0.047638     24.000000
  0.095276  0.047638  0.047638     24.000000
  0.119095  0.047638  0.047638     12.000000
  0.071457  0.071457  0.047638     24.000000
  0.095276  0.071457  0.047638     48.000000
  0.119095  0.071457  0.047638     24.000000
  0.095276  0.095276  0.047638     24.000000
  0.119095  0.095276  0.047638     24.000000
  0.119095  0.119095  0.047638      6.000000
  0.071457  0.071457  0.071457      8.000000
  0.095276  0.071457  0.071457     24.000000
  0.119095  0.071457  0.071457     12.000000
  0.095276  0.095276  0.071457     24.000000
  0.119095  0.095276  0.071457     24.000000
  0.119095  0.119095  0.071457      6.000000
  0.095276  0.095276  0.095276      8.000000
  0.119095  0.095276  0.095276     12.000000
  0.119095  0.119095  0.095276      6.000000
  0.119095  0.119095  0.119095      1.000000
 


--------------------------------------------------------------------------------------------------------




 Dimension of arrays:
   k-points           NKPTS =     56   k-points in BZ     NKDIM =     56   number of bands    NBANDS=     64
   number of dos      NEDOS =    301   number of ions     NIONS =      4
   non local maximal  LDIM  =      4   non local SUM 2l+1 LMDIM =      8
   total plane-waves  NPLWV =  32768
   max r-space proj   IRMAX =      1   max aug-charges    IRDMAX=  17432
   dimension x,y,z NGX =    32 NGY =   32 NGZ =   32
   dimension x,y,z NGXF=    64 NGYF=   64 NGZF=   64
   support grid    NGXF=    64 NGYF=   64 NGZF=   64
   ions per type =               4
   NGX,Y,Z   is equivalent  to a cutoff of  12.67, 12.67, 12.67 a.u.
   NGXF,Y,Z  is equivalent  to a cutoff of  25.34, 25.34, 25.34 a.u.

 SYSTEM =  unknown system                          
 POSCAR =  Al4                                     

 Startparameter for this run:
   NWRITE =      2    write-flag & timer
   PREC   = accura    normal or accurate (medium, high low for compatibility)
   ISTART =      0    job   : 0-new  1-cont  2-samecut
   ICHARG =      2    charge: 1-file 2-atom 10-const
   ISPIN  =      1    spin polarized calculation?
   LNONCOLLINEAR =      F non collinear calculations
   LSORBIT =      F    spin-orbit coupling
   INIWAV =      1    electr: 0-lowe 1-rand  2-diag
   LASPH  =      F    aspherical Exc in radial PAW
 Electronic Relaxation 1
   ENCUT  =  520.0 eV  38.22 Ry    6.18 a.u.   7.81  7.81  7.81*2*pi/ulx,y,z
   ENINI  =  520.0     initial cutoff
   ENAUG  =  291.1 eV  augmentation charge cutoff
   NELM   =    200;   NELMIN=  2; NELMDL=  0     # of ELM steps 
   EDIFF  = 0.1E-05   stopping-criterion for ELM
   LREAL  =      F    real-space projection
   NLSPLINE    = F    spline interpolate recip. space projectors
   LCOMPAT=      F    compatible to vasp.4.4
   GGA_COMPAT  = T    GGA compatible to vasp.4.4-vasp.4.6
   LMAXPAW     = -100 max onsite density
   LMAXMIX     =    2 max onsite mixed and CHGCAR
   VOSKOWN=      0    Vosko Wilk Nusair interpolation
   ROPT   =    0.00000
 Ionic relaxation
   EDIFFG = -.1E-01   stopping-criterion for IOM
   NSW    =      0    number of steps for IOM
   NBLOCK =      1;   KBLOCK =      1    inner block; outer block 
   IBRION =     -1    ionic relax: 0-MD 1-quasi-New 2-CG
   NFREE  =      0    steps in history (QN), initial steepest desc. (CG)
   ISIF   =      4    stress and relaxation
   IWAVPR =     10    prediction:  0-non 1-charg 2-wave 3-comb
   ISYM   =      2    0-nonsym 1-usesym 2-fastsym
   LCORR  =      T    Harris-Foulkes like correction to forces

   POTIM  = 0.5000    time-step for ionic-motion
   TEIN   =    0.0    initial temperature
   TEBEG  =    0.0;   TEEND  =   0.0 temperature during run
   SMASS  =  -3.00    Nose mass-parameter (am)
   estimated Nose-frequenzy (Omega)   =  0.10E-29 period in steps = 0.13E+47 mass=  -0.403E-27a.u.
   SCALEE = 1.0000    scale energy and forces
   NPACO  =    256;   APACO  = 10.0  distance and # of slots for P.C.
   PSTRESS=    0.0 pullay stress

  Mass of Ions in am
   POMASS =  26.98
  Ionic Valenz
   ZVAL   =   3.00
  Atomic Wigner-Seitz radii
   RWIGS  =  -1.00
  virtual crystal weights 
   VCA    =   1.00
   NELECT =      12.0000    total number of electrons
   NUPDOWN=      -1.0000    fix difference up-down

 DOS related values:
   EMIN   =  10.00;   EMAX   =-10.00  energy-range for DOS
   EFERMI =   0.00;   METHOD = LEGACY      
   ISMEAR =    -5;   SIGMA  =   0.20  broadening in eV -4-tet -1-fermi 0-gaus

 Electronic relaxation 2 (details)
   IALGO  =     38    algorithm
   LDIAG  =      T    sub-space diagonalisation (order eigenvalues)
   LSUBROT=      F    optimize rotation matrix (better conditioning)
   TURBO    =      0    0=normal 1=particle mesh
   IRESTART =      0    0=no restart 2=restart with 2 vectors
   NREBOOT  =      0    no. of reboots
   NMIN     =      0    reboot dimension
   EREF     =   0.00    reference energy to select bands
   IMIX   =      4    mixing-type and parameters
     AMIX     =   0.40;   BMIX     =  1.00
     AMIX_MAG =   1.60;   BMIX_MAG =  1.00
     AMIN     =   0.10
     WC   =   100.;   INIMIX=   1;  MIXPRE=   1;  MAXMIX= -45

 Intra band minimization:
   WEIMIN = 0.0000     energy-eigenvalue tresh-hold
   EBREAK =  0.39E-08  absolut break condition
   DEPER  =   0.30     relativ break condition  

   TIME   =   0.40     timestep for ELM

  volume/ion in A,a.u.               =      18.50       124.84
  Fermi-wavevector in a.u.,A,eV,Ry     =   0.892739  1.687033 10.843619  0.796984
  Thomas-Fermi vector in A             =   2.014727
 
 Write flags
   LWAVE        =      F    write WAVECAR
   LDOWNSAMPLE  =      F    k-point downsampling of WAVECAR
   LCHARG       =      F    write CHGCAR
   LVTOT        =      F    write LOCPOT, total local potential
   LVHAR        =      F    write LOCPOT, Hartree potential only
   WRT_POTENTIAL= false  ! write potential to hdf5 file
   LELF         =      F    write electronic localiz. function (ELF)
   LORBIT       =      0    0 simple, 1 ext, 2 COOP (PROOUT), +10 PAW based schemes


 Dipole corrections
   LMONO      =      F    monopole corrections only (constant potential shift)
   LDIPOL     =      F    correct potential (dipole corrections)
   IDIPOL     =      0    1-x, 2-y, 3-z, 4-all directions 
   EPSILON    =  1.0000000 bulk dielectric constant
   LVACPOTAV  =      F  vacuum potentials using an averaging scheme for the charge density
   VACPOTFLAT =  0.1000000 required flatness to determine vacuum potential
 Exchange correlation treatment:
   GGA     = PE    functional components
   XC_C    = 1    coefficients multiplying the functional components
   LIBXC   =     F    Libxc                    
   VOSKOWN =     0    Vosko Wilk Nusair interpolation
   LHFCALC =     F    Hartree Fock is set to
   LHFONE  =     F    Hartree Fock one center treatment
   AEXX    =    0.0000 exact exchange contribution

 Parameters of functionals:
   PE:
     No parameter
 
 Van der Waals corrections
   IVDW    =     0    specifies the selected vdW correction

 Linear response parameters
   LEPSILON=     F    determine dielectric tensor
   LRPA    =     F    only Hartree local field effects (RPA)
   LNABLA  =     F    use nabla operator in PAW spheres
   LVEL    =     F    velocity operator in full k-point grid
   CSHIFT  =0.1000    complex shift for real part using Kramers Kronig
   OMEGAMAX=  -1.0    maximum frequency
   DEG_THRESHOLD= 0.2000000E-02 threshold for treating states as degnerate
   RTIME   =   -0.100 relaxation time in fs
  (WPLASMAI=    0.000 imaginary part of plasma frequency in eV, 0.658/RTIME)
   DFIELD  = 0.0000000 0.0000000 0.0000000 field for delta impulse in time
 
  Optional k-point grid parameters
   LKPOINTS_OPT  =     F    use optional k-point grid
   KPOINTS_OPT_MODE=     1    mode for optional k-point grid
 
 Orbital magnetization related:
   ORBITALMAG=     F  switch on orbital magnetization
   LCHIMAG   =     F  perturbation theory with respect to B field
   DQ        =  0.001000  dq finite difference perturbation B field
   LLRAUG    =     F  two centre corrections for induced B field
   LBONE     =     F  B-component reconstruction in AE one-centre
   LVGVCALC  =     T  calculate vGv susceptibility
   LVGVAPPL  =     F  apply vGv susceptibility instead of pGv for G=0

 Random number generation:
   RANDOM_GENERATOR = DEFAULT
   PCG_SEED         = not used


--------------------------------------------------------------------------------------------------------


 Static calculation
 charge density and potential will be updated during run
 non-spin polarized calculation
 Variant of blocked Davidson
 Davidson routine will perform the subspace rotation
 perform sub-space diagonalisation
    after iterative eigenvector-optimisation
 modified Broyden-mixing scheme, WC =      100.0
 initial mixing is a Kerker type mixing with AMIX =  0.4000 and BMIX =      1.0000
 Hartree-type preconditioning will be used
 using additional bands           58
 reciprocal scheme for non local part
 use partial core corrections
 calculate Harris-corrections to forces 
   (improved forces if not selfconsistent)
 use gradient corrections 
 use of overlap-Matrix (Vanderbilt PP)
 Fermi weights with tetrahedron method with Bloechl corrections


--------------------------------------------------------------------------------------------------------


  energy-cutoff  :      520.00
  volume of cell :       74.00
      direct lattice vectors                 reciprocal lattice vectors
     4.198336454  0.000000000  0.000000000     0.238189581 -0.000000000  0.000000000
     0.000000000  4.198336454  0.000000000     0.000000000  0.238189581  0.000000000
     0.000000000  0.000000000  4.198336454    -0.000000000 -0.000000000  0.238189581

  length of vectors
     4.198336454  4.198336454  4.198336454     0.238189581  0.238189581  0.238189581


 
 k-points in units of 2pi/SCALE and weight: pymatgen with grid density = 4001 / numb
   0.00000000  0.00000000  0.00000000       0.001
   0.02381896  0.00000000  0.00000000       0.006
   0.04763792  0.00000000  0.00000000       0.006
   0.07145687  0.00000000  0.00000000       0.006
   0.09527583  0.00000000  0.00000000       0.006
   0.11909479  0.00000000  0.00000000       0.003
   0.02381896  0.02381896  0.00000000       0.012
   0.04763792  0.02381896  0.00000000       0.024
   0.07145687  0.02381896  0.00000000       0.024
   0.09527583  0.02381896  0.00000000       0.024
   0.11909479  0.02381896  0.00000000       0.012
   0.04763792  0.04763792  0.00000000       0.012
   0.07145687  0.04763792  0.00000000       0.024
   0.09527583  0.04763792  0.00000000       0.024
   0.11909479  0.04763792  0.00000000       0.012
   0.07145687  0.07145687  0.00000000       0.012
   0.09527583  0.07145687  0.00000000       0.024
   0.11909479  0.07145687  0.00000000       0.012
   0.09527583  0.09527583  0.00000000       0.012
   0.11909479  0.09527583  0.00000000       0.012
   0.11909479  0.11909479  0.00000000       0.003
   0.02381896  0.02381896  0.02381896       0.008
   0.04763792  0.02381896  0.02381896       0.024
   0.07145687  0.02381896  0.02381896       0.024
   0.09527583  0.02381896  0.02381896       0.024
   0.11909479  0.02381896  0.02381896       0.012
   0.04763792  0.04763792  0.02381896       0.024
   0.07145687  0.04763792  0.02381896       0.048
   0.09527583  0.04763792  0.02381896       0.048
   0.11909479  0.04763792  0.02381896       0.024
   0.07145687  0.07145687  0.02381896       0.024
   0.09527583  0.07145687  0.02381896       0.048
   0.11909479  0.07145687  0.02381896       0.024
   0.09527583  0.09527583  0.02381896       0.024
   0.11909479  0.09527583  0.02381896       0.024
   0.11909479  0.11909479  0.02381896       0.006
   0.04763792  0.04763792  0.04763792       0.008
   0.07145687  0.04763792  0.04763792       0.024
   0.09527583  0.04763792  0.04763792       0.024
   0.11909479  0.04763792  0.04763792       0.012
   0.07145687  0.07145687  0.04763792       0.024
   0.09527583  0.07145687  0.04763792       0.048
   0.11909479  0.07145687  0.04763792       0.024
   0.09527583  0.09527583  0.04763792       0.024
   0.11909479  0.09527583  0.04763792       0.024
   0.11909479  0.11909479  0.04763792       0.006
   0.07145687  0.07145687  0.07145687       0.008
   0.09527583  0.07145687  0.07145687       0.024
   0.11909479  0.07145687  0.07145687       0.012
   0.09527583  0.09527583  0.07145687       0.024
   0.11909479  0.09527583  0.07145687       0.024
   0.11909479  0.11909479  0.07145687       0.006
   0.09527583  0.09527583  0.09527583       0.008
   0.11909479  0.09527583  0.09527583       0.012
   0.11909479  0.11909479  0.09527583       0.006
   0.11909479  0.11909479  0.11909479       0.001
 
 k-points in reciprocal lattice and weights: pymatgen with grid density = 4001 / numb
   0.00000000  0.00000000  0.00000000       0.001
   0.10000000  0.00000000  0.00000000       0.006
   0.20000000  0.00000000  0.00000000       0.006
   0.30000000  0.00000000  0.00000000       0.006
   0.40000000  0.00000000  0.00000000       0.006
   0.50000000  0.00000000  0.00000000       0.003
   0.10000000  0.10000000  0.00000000       0.012
   0.20000000  0.10000000  0.00000000       0.024
   0.30000000  0.10000000  0.00000000       0.024
   0.40000000  0.10000000  0.00000000       0.024
   0.50000000  0.10000000  0.00000000       0.012
   0.20000000  0.20000000  0.00000000       0.012
   0.30000000  0.20000000  0.00000000       0.024
   0.40000000  0.20000000  0.00000000       0.024
   0.50000000  0.20000000  0.00000000       0.012
   0.30000000  0.30000000  0.00000000       0.012
   0.40000000  0.30000000  0.00000000       0.024
   0.50000000  0.30000000  0.00000000       0.012
   0.40000000  0.40000000  0.00000000       0.012
   0.50000000  0.40000000  0.00000000       0.012
   0.50000000  0.50000000  0.00000000       0.003
   0.10000000  0.10000000  0.10000000       0.008
   0.20000000  0.10000000  0.10000000       0.024
   0.30000000  0.10000000  0.10000000       0.024
   0.40000000  0.10000000  0.10000000       0.024
   0.50000000  0.10000000  0.10000000       0.012
   0.20000000  0.20000000  0.10000000       0.024
   0.30000000  0.20000000  0.10000000       0.048
   0.40000000  0.20000000  0.10000000       0.048
   0.50000000  0.20000000  0.10000000       0.024
   0.30000000  0.30000000  0.10000000       0.024
   0.40000000  0.30000000  0.10000000       0.048
   0.50000000  0.30000000  0.10000000       0.024
   0.40000000  0.40000000  0.10000000       0.024
   0.50000000  0.40000000  0.10000000       0.024
   0.50000000  0.50000000  0.10000000       0.006
   0.20000000  0.20000000  0.20000000       0.008
   0.30000000  0.20000000  0.20000000       0.024
   0.40000000  0.20000000  0.20000000       0.024
   0.50000000  0.20000000  0.20000000       0.012
   0.30000000  0.30000000  0.20000000       0.024
   0.40000000  0.30000000  0.20000000       0.048
   0.50000000  0.30000000  0.20000000       0.024
   0.40000000  0.40000000  0.20000000       0.024
   0.50000000  0.40000000  0.20000000       0.024
   0.50000000  0.50000000  0.20000000       0.006
   0.30000000  0.30000000  0.30000000       0.008
   0.40000000  0.30000000  0.30000000       0.024
   0.50000000  0.30000000  0.30000000       0.012
   0.40000000  0.40000000  0.30000000       0.024
   0.50000000  0.40000000  0.30000000       0.024
   0.50000000  0.50000000  0.30000000       0.006
   0.40000000  0.40000000  0.40000000       0.008
   0.50000000  0.40000000  0.40000000       0.012
   0.50000000  0.50000000  0.40000000       0.006
   0.50000000  0.50000000  0.50000000       0.001
 
 position of ions in fractional coordinates (direct lattice) 
   0.00000000  0.00000000  0.00000000
   0.00000000  0.50000000  0.50000000
   0.50000000  0.00000000  0.50000000
   0.50000000  0.50000000  0.00000000
 
 position of ions in cartesian coordinates  (Angst):
   0.00000000  0.00000000  0.00000000
   0.00000000  2.09916823  2.09916823
   2.09916823  0.00000000  2.09916823
   2.09916823  2.09916823  0.00000000
 


--------------------------------------------------------------------------------------------------------


 k-point     1 :   0.0000 0.0000 0.0000  plane waves:    1935
 k-point     2 :   0.1000 0.0000 0.0000  plane waves:    1983
 k-point     3 :   0.2000 0.0000 0.0000  plane waves:    1984
 k-point     4 :   0.3000 0.0000 0.0000  plane waves:    1992
 k-point     5 :   0.4000 0.0000 0.0000  plane waves:    1988
 k-point     6 :   0.5000 0.0000 0.0000  plane waves:    1984
 k-point     7 :   0.1000 0.1000 0.0000  plane waves:    1985
 k-point     8 :   0.2000 0.1000 0.0000  plane waves:    1987
 k-point     9 :   0.3000 0.1000 0.0000  plane waves:    1990
 k-point    10 :   0.4000 0.1000 0.0000  plane waves:    1994
 k-point    11 :   0.5000 0.1000 0.0000  plane waves:    2002
 k-point    12 :   0.2000 0.2000 0.0000  plane waves:    1999
 k-point    13 :   0.3000 0.2000 0.0000  plane waves:    1992
 k-point    14 :   0.4000 0.2000 0.0000  plane waves:    1987
 k-point    15 :   0.5000 0.2000 0.0000  plane waves:    1996
 k-point    16 :   0.3000 0.3000 0.0000  plane waves:    1993
 k-point    17 :   0.4000 0.3000 0.0000  plane waves:    1998
 k-point    18 :   0.5000 0.3000 0.0000  plane waves:    1998
 k-point    19 :   0.4000 0.4000 0.0000  plane waves:    2001
 k-point    20 :   0.5000 0.4000 0.0000  plane waves:    1994
 k-point    21 :   0.5000 0.5000 0.0000  plane waves:    2000
 k-point    22 :   0.1000 0.1000 0.1000  plane waves:    1992
 k-point    23 :   0.2000 0.1000 0.1000  plane waves:    1985
 k-point    24 :   0.3000 0.1000 0.1000  plane waves:    1990
 k-point    25 :   0.4000 0.1000 0.1000  plane waves:    1991
 k-point    26 :   0.5000 0.1000 0.1000  plane waves:    1986
 k-point    27 :   0.2000 0.2000 0.1000  plane waves:    1986
 k-point    28 :   0.3000 0.2000 0.1000  plane waves:    1989
 k-point    29 :   0.4000 0.2000 0.1000  plane waves:    1991
 k-point    30 :   0.5000 0.2000 0.1000  plane waves:    1996
 k-point    31 :   0.3000 0.3000 0.1000  plane waves:    1989
 k-point    32 :   0.4000 0.3000 0.1000  plane waves:    2003
 k-point    33 :   0.5000 0.3000 0.1000  plane waves:    2006
 k-point    34 :   0.4000 0.4000 0.1000  plane waves:    2007
 k-point    35 :   0.5000 0.4000 0.1000  plane waves:    2000
 k-point    36 :   0.5000 0.5000 0.1000  plane waves:    2008
 k-point    37 :   0.2000 0.2000 0.2000  plane waves:    1983
 k-point    38 :   0.3000 0.2000 0.2000  plane waves:    1987
 k-point    39 :   0.4000 0.2000 0.2000  plane waves:    1986
 k-point    40 :   0.5000 0.2000 0.2000  plane waves:    1998
 k-point    41 :   0.3000 0.3000 0.2000  plane waves:    1988
 k-point    42 :   0.4000 0.3000 0.2000  plane waves:    2000
 k-point    43 :   0.5000 0.3000 0.2000  plane waves:    1990
 k-point    44 :   0.4000 0.4000 0.2000  plane waves:    1993
 k-point    45 :   0.5000 0.4000 0.2000  plane waves:    2002
 k-point    46 :   0.5000 0.5000 0.2000  plane waves:    2008
 k-point    47 :   0.3000 0.3000 0.3000  plane waves:    1980
 k-point    48 :   0.4000 0.3000 0.3000  plane waves:    1990
 k-point    49 :   0.5000 0.3000 0.3000  plane waves:    2004
 k-point    50 :   0.4000 0.4000 0.3000  plane waves:    1990
 k-point    51 :   0.5000 0.4000 0.3000  plane waves:    1988
 k-point    52 :   0.5000 0.5000 0.3000  plane waves:    1980
 k-point    53 :   0.4000 0.4000 0.4000  plane waves:    2004
 k-point    54 :   0.5000 0.4000 0.4000  plane waves:    1976
 k-point    55 :   0.5000 0.5000 0.4000  plane waves:    1960
 k-point    56 :   0.5000 0.5000 0.5000  plane waves:    2008

 maximum and minimum number of plane-waves per node :      2008     1935

 maximum number of plane-waves:      2008
 maximum index in each direction: 
   IXMAX=    7   IYMAX=    7   IZMAX=    7
   IXMIN=   -8   IYMIN=   -8   IZMIN=   -8


 serial   3D FFT for wavefunctions
 parallel 3D FFT for charge:
    minimum data exchange during FFTs selected (reduces bandwidth)


 total amount of memory used by VASP MPI-rank0    41201. kBytes
=======================================================================

   base      :      30000. kBytes
   nonl-proj :       7471. kBytes
   fftplans  :        299. kBytes
   grid      :       1527. kBytes
   one-center:         12. kBytes
   wavefun   :       1892. kBytes
 
     INWAV:  cpu time      0.0000: real time      0.0000
 Broyden mixing: mesh for mixing (old mesh)
   NGX = 15   NGY = 15   NGZ = 15
  (NGX  = 64   NGY  = 64   NGZ  = 64)
  gives a total of   3375 points

 initial charge density was supplied:
 charge density of overlapping atoms calculated
 number of electron      12.0000000 magnetization 
 keeping initial charge density in first step


--------------------------------------------------------------------------------------------------------


 Maximum index for augmentation-charges          793 (set IRDMAX)


--------------------------------------------------------------------------------------------------------


 First call to EWALD:  gamma=   0.422
 Maximum number of real-space cells 3x 3x 3
 Maximum number of reciprocal cells 3x 3x 3

    FEWALD:  cpu time      0.0025: real time      0.0025


--------------------------------------- Ionic step        1  -------------------------------------------




--------------------------------------- Iteration      1(   1)  ---------------------------------------


    POTLOK:  cpu time      0.0100: real time      0.0129
    SETDIJ:  cpu time      0.0045: real time      0.0048
     EDDAV:  cpu time      2.6840: real time      2.7004
 BZINTS: Fermi energy:    7.445184;   12.000000 electrons
         Band energy: 0.371132E+02;  BLOECHL correction:   -0.230677
       DOS:  cpu time      0.0136: real time      0.0142
    --------------------------------------------
      LOOP:  cpu time      2.7122: real time      2.7324

 eigenvalue-minimisations  :  7168
 total energy-change (2. order) :-0.1109922E+02  (-0.4578974E+03)
 number of electron      12.0000000 magnetization 
 augmentation part       12.0000000 magnetization 

 Free energy of the ion-electron system (eV)
  ---------------------------------------------------
  alpha Z        PSCENC =        -0.72622917
  Ewald energy   TEWEN  =      -283.05942382
  -Hartree energ DENC   =        -0.63493233
  -exchange      EXHF   =         0.00000000
  -V(xc)+E(xc)   XCENC  =      -105.76381979
  PAW double counting   =       264.80062850     -136.98248303
  entropy T*S    EENTRO =         0.00000000
  eigenvalues    EBANDS =        37.11320786
  atomic energy  EATOM  =       214.15382826
  Solvation  Ediel_sol  =         0.00000000
  ---------------------------------------------------
  free energy    TOTEN  =       -11.09922351 eV

  energy without entropy =      -11.09922351  energy(sigma->0) =      -11.09922351


--------------------------------------------------------------------------------------------------------




--------------------------------------- Iteration      1(   2)  ---------------------------------------


     EDDAV:  cpu time      5.8406: real time      5.8769
 BZINTS: Fermi energy:    6.858434;   12.000000 electrons
         Band energy: 0.333431E+02;  BLOECHL correction:   -0.234448
       DOS:  cpu time      0.0111: real time      0.0112
    --------------------------------------------
      LOOP:  cpu time      5.8517: real time      5.8881

 eigenvalue-minimisations  : 10880
 total energy-change (2. order) :-0.3770077E+01  (-0.3748483E+01)
 number of electron      12.0000000 magnetization 
 augmentation part       12.0000000 magnetization 

 Free energy of the ion-electron system (eV)
  ---------------------------------------------------
  alpha Z        PSCENC =        -0.72622917
  Ewald energy   TEWEN  =      -283.05942382
  -Hartree energ DENC   =        -0.63493233
  -exchange      EXHF   =         0.00000000
  -V(xc)+E(xc)   XCENC  =      -105.76381979
  PAW double counting   =       264.80062850     -136.98248303
  entropy T*S    EENTRO =         0.00000000
  eigenvalues    EBANDS =        33.34313131
  atomic energy  EATOM  =       214.15382826
  Solvation  Ediel_sol  =         0.00000000
  ---------------------------------------------------
  free energy    TOTEN  =       -14.86930006 eV

  energy without entropy =      -14.86930006  energy(sigma->0) =      -14.86930006


--------------------------------------------------------------------------------------------------------




--------------------------------------- Iteration      1(   3)  ---------------------------------------


     EDDAV:  cpu time      2.7289: real time      2.7467
 BZINTS: Fermi energy:    6.858065;   12.000000 electrons
         Band energy: 0.333411E+02;  BLOECHL correction:   -0.234460
       DOS:  cpu time      0.0117: real time      0.0117
    --------------------------------------------
      LOOP:  cpu time      2.7406: real time      2.7584

 eigenvalue-minimisations  :  7168
 total energy-change (2. order) :-0.2075256E-02  (-0.2060213E-02)
 number of electron      12.0000000 magnetization 
 augmentation part       12.0000000 magnetization 

 Free energy of the ion-electron system (eV)
  ---------------------------------------------------
  alpha Z        PSCENC =        -0.72622917
  Ewald energy   TEWEN  =      -283.05942382
  -Hartree energ DENC   =        -0.63493233
  -exchange      EXHF   =         0.00000000
  -V(xc)+E(xc)   XCENC  =      -105.76381979
  PAW double counting   =       264.80062850     -136.98248303
  entropy T*S    EENTRO =         0.00000000
  eigenvalues    EBANDS =        33.34105606
  atomic energy  EATOM  =       214.15382826
  Solvation  Ediel_sol  =         0.00000000
  ---------------------------------------------------
  free energy    TOTEN  =       -14.87137531 eV

  energy without entropy =      -14.87137531  energy(sigma->0) =      -14.87137531


--------------------------------------------------------------------------------------------------------




--------------------------------------- Iteration      1(   4)  ---------------------------------------


     EDDAV:  cpu time     10.5933: real time     10.6521
 BZINTS: Fermi energy:    6.858065;   12.000000 electrons
         Band energy: 0.333411E+02;  BLOECHL correction:   -0.234460
       DOS:  cpu time      0.0114: real time      0.0115
    --------------------------------------------
      LOOP:  cpu time     10.6046: real time     10.6635

 eigenvalue-minimisations  : 14144
 total energy-change (2. order) :-0.1117299E-05  (-0.1102926E-05)
 number of electron      12.0000000 magnetization 
 augmentation part       12.0000000 magnetization 

 Free energy of the ion-electron system (eV)
  ---------------------------------------------------
  alpha Z        PSCENC =        -0.72622917
  Ewald energy   TEWEN  =      -283.05942382
  -Hartree energ DENC   =        -0.63493233
  -exchange      EXHF   =         0.00000000
  -V(xc)+E(xc)   XCENC  =      -105.76381979
  PAW double counting   =       264.80062850     -136.98248303
  entropy T*S    EENTRO =         0.00000000
  eigenvalues    EBANDS =        33.34105494
  atomic energy  EATOM  =       214.15382826
  Solvation  Ediel_sol  =         0.00000000
  ---------------------------------------------------
  free energy    TOTEN  =       -14.87137643 eV

  energy without entropy =      -14.87137643  energy(sigma->0) =      -14.87137643


--------------------------------------------------------------------------------------------------------




--------------------------------------- Iteration      1(   5)  ---------------------------------------


     EDDAV:  cpu time      2.9491: real time      2.9683
 BZINTS: Fermi energy:    6.858065;   12.000000 electrons
         Band energy: 0.333411E+02;  BLOECHL correction:   -0.234460
       DOS:  cpu time      0.0114: real time      0.0115
    CHARGE:  cpu time      0.0283: real time      0.0289
    MIXING:  cpu time      0.0027: real time      0.0028
    --------------------------------------------
      LOOP:  cpu time      2.9915: real time      3.0114

 eigenvalue-minimisations  :  7168
 total energy-change (2. order) : 0.6107257E-09  (-0.1569214E-11)
 number of electron      12.0000000 magnetization 
 augmentation part       -0.1586969 magnetization 

 Broyden mixing:
  rms(total) = 0.22610E+00    rms(broyden)= 0.22610E+00
  rms(prec ) = 0.43942E+00
  weight for this iteration     100.00

 Free energy of the ion-electron system (eV)
  ---------------------------------------------------
  alpha Z        PSCENC =        -0.72622917
  Ewald energy   TEWEN  =      -283.05942382
  -Hartree energ DENC   =        -0.63493233
  -exchange      EXHF   =         0.00000000
  -V(xc)+E(xc)   XCENC  =      -105.76381979
  PAW double counting   =       264.80062850     -136.98248303
  entropy T*S    EENTRO =         0.00000000
  eigenvalues    EBANDS =        33.34105494
  atomic energy  EATOM  =       214.15382826
  Solvation  Ediel_sol  =         0.00000000
  ---------------------------------------------------
  free energy    TOTEN  =       -14.87137643 eV

  energy without entropy =      -14.87137643  energy(sigma->0) =      -14.87137643


--------------------------------------------------------------------------------------------------------




--------------------------------------- Iteration      1(   6)  ---------------------------------------


    POTLOK:  cpu time      0.0131: real time      0.0134
    SETDIJ:  cpu time      0.0012: real time      0.0012
     EDDAV:  cpu time      6.8731: real time      6.9115
 BZINTS: Fermi energy:    6.838076;   12.000000 electrons
         Band energy: 0.331156E+02;  BLOECHL correction:   -0.234599
       DOS:  cpu time      0.0116: real time      0.0117
    CHARGE:  cpu time      0.0247: real time      0.0248
    MIXING:  cpu time      0.0014: real time      0.0014
    --------------------------------------------
      LOOP:  cpu time      6.9251: real time      6.9641

 eigenvalue-minimisations  : 11520
 total energy-change (2. order) : 0.4905607E-01  (-0.9110263E-03)
 number of electron      12.0000000 magnetization 
 augmentation part       -0.1612633 magnetization 

 Broyden mixing:
  rms(total) = 0.13188E+00    rms(broyden)= 0.13188E+00
  rms(prec ) = 0.26957E+00
  weight for this iteration     100.00

 eigenvalues of (default mixing * dielectric matrix)
  average eigenvalue GAMMA=   2.3255
  2.3255

 Free energy of the ion-electron system (eV)
  ---------------------------------------------------
  alpha Z        PSCENC =        -0.72622917
  Ewald energy   TEWEN  =      -283.05942382
  -Hartree energ DENC   =        -0.47745462
  -exchange      EXHF   =         0.00000000
  -V(xc)+E(xc)   XCENC  =      -105.65981729
  PAW double counting   =       348.43950917     -220.60838201
  entropy T*S    EENTRO =         0.00000000
  eigenvalues    EBANDS =        33.11564912
  atomic energy  EATOM  =       214.15382826
  Solvation  Ediel_sol  =         0.00000000
  ---------------------------------------------------
  free energy    TOTEN  =       -14.82232036 eV

  energy without entropy =      -14.82232036  energy(sigma->0) =      -14.82232036


--------------------------------------------------------------------------------------------------------




--------------------------------------- Iteration      1(   7)  ---------------------------------------


    POTLOK:  cpu time      0.0110: real time      0.0224
    SETDIJ:  cpu time      0.0012: real time      0.0012
     EDDAV:  cpu time      6.2944: real time      6.3293
 BZINTS: Fermi energy:    6.812256;   12.000000 electrons
         Band energy: 0.328355E+02;  BLOECHL correction:   -0.234875
       DOS:  cpu time      0.0107: real time      0.0108
    CHARGE:  cpu time      0.0251: real time      0.0252
    MIXING:  cpu time      0.0011: real time      0.0011
    --------------------------------------------
      LOOP:  cpu time      6.3435: real time      6.3900

 eigenvalue-minimisations  : 11136
 total energy-change (2. order) : 0.3515043E-01  (-0.2556378E-02)
 number of electron      12.0000000 magnetization 
 augmentation part       -0.1659299 magnetization 

 Broyden mixing:
  rms(total) = 0.24580E-01    rms(broyden)= 0.24580E-01
  rms(prec ) = 0.26466E-01
  weight for this iteration     100.00

 eigenvalues of (default mixing * dielectric matrix)
  average eigenvalue GAMMA=   2.6983
  2.6983  2.6983

 Free energy of the ion-electron system (eV)
  ---------------------------------------------------
  alpha Z        PSCENC =        -0.72622917
  Ewald energy   TEWEN  =      -283.05942382
  -Hartree energ DENC   =        -0.39007707
  -exchange      EXHF   =         0.00000000
  -V(xc)+E(xc)   XCENC  =      -105.44478413
  PAW double counting   =       501.75495941     -373.91091101
  entropy T*S    EENTRO =         0.00000000
  eigenvalues    EBANDS =        32.83546760
  atomic energy  EATOM  =       214.15382826
  Solvation  Ediel_sol  =         0.00000000
  ---------------------------------------------------
  free energy    TOTEN  =       -14.78716993 eV

  energy without entropy =      -14.78716993  energy(sigma->0) =      -14.78716993


--------------------------------------------------------------------------------------------------------




--------------------------------------- Iteration      1(   8)  ---------------------------------------


    POTLOK:  cpu time      0.0132: real time      0.0136
    SETDIJ:  cpu time      0.0012: real time      0.0012
     EDDAV:  cpu time      4.6527: real time      4.6780
 BZINTS: Fermi energy:    6.813079;   12.000000 electrons
         Band energy: 0.328465E+02;  BLOECHL correction:   -0.234889
       DOS:  cpu time      0.0108: real time      0.0109
    CHARGE:  cpu time      0.0245: real time      0.0246
    MIXING:  cpu time      0.0004: real time      0.0004
    --------------------------------------------
      LOOP:  cpu time      4.7029: real time      4.7287

 eigenvalue-minimisations  :  8896
 total energy-change (2. order) : 0.9695692E-04  (-0.2997298E-05)
 number of electron      12.0000000 magnetization 
 augmentation part       -0.1661763 magnetization 

 Broyden mixing:
  rms(total) = 0.15940E-02    rms(broyden)= 0.15940E-02
  rms(prec ) = 0.34035E-02
  weight for this iteration     100.00

 eigenvalues of (default mixing * dielectric matrix)
  average eigenvalue GAMMA=   2.1232
  1.0646  2.5305  2.7746

 Free energy of the ion-electron system (eV)
  ---------------------------------------------------
  alpha Z        PSCENC =        -0.72622917
  Ewald energy   TEWEN  =      -283.05942382
  -Hartree energ DENC   =        -0.40085322
  -exchange      EXHF   =         0.00000000
  -V(xc)+E(xc)   XCENC  =      -105.43029224
  PAW double counting   =       464.82645546     -336.99706566
  entropy T*S    EENTRO =         0.00000000
  eigenvalues    EBANDS =        32.84650742
  atomic energy  EATOM  =       214.15382826
  Solvation  Ediel_sol  =         0.00000000
  ---------------------------------------------------
  free energy    TOTEN  =       -14.78707298 eV

  energy without entropy =      -14.78707298  energy(sigma->0) =      -14.78707298


--------------------------------------------------------------------------------------------------------




--------------------------------------- Iteration      1(   9)  ---------------------------------------


    POTLOK:  cpu time      0.0118: real time      0.0131
    SETDIJ:  cpu time      0.0012: real time      0.0012
     EDDAV:  cpu time      9.3040: real time      9.3525
 BZINTS: Fermi energy:    6.812769;   12.000000 electrons
         Band energy: 0.328432E+02;  BLOECHL correction:   -0.234893
       DOS:  cpu time      0.0120: real time      0.0120
    CHARGE:  cpu time      0.0256: real time      0.0257
    MIXING:  cpu time      0.0003: real time      0.0003
    --------------------------------------------
      LOOP:  cpu time      9.3548: real time      9.4048

 eigenvalue-minimisations  : 12992
 total energy-change (2. order) : 0.4427625E-05  (-0.5123531E-06)
 number of electron      12.0000000 magnetization 
 augmentation part       -0.1662457 magnetization 

 Broyden mixing:
  rms(total) = 0.11999E-03    rms(broyden)= 0.11998E-03
  rms(prec ) = 0.17504E-03
  weight for this iteration     100.00

 eigenvalues of (default mixing * dielectric matrix)
  average eigenvalue GAMMA=   2.1981
  0.9972  2.6499  2.6499  2.4953

 Free energy of the ion-electron system (eV)
  ---------------------------------------------------
  alpha Z        PSCENC =        -0.72622917
  Ewald energy   TEWEN  =      -283.05942382
  -Hartree energ DENC   =        -0.40132597
  -exchange      EXHF   =         0.00000000
  -V(xc)+E(xc)   XCENC  =      -105.42682345
  PAW double counting   =       465.92270183     -338.09304331
  entropy T*S    EENTRO =         0.00000000
  eigenvalues    EBANDS =        32.84324708
  atomic energy  EATOM  =       214.15382826
  Solvation  Ediel_sol  =         0.00000000
  ---------------------------------------------------
  free energy    TOTEN  =       -14.78706855 eV

  energy without entropy =      -14.78706855  energy(sigma->0) =      -14.78706855


--------------------------------------------------------------------------------------------------------




--------------------------------------- Iteration      1(  10)  ---------------------------------------


    POTLOK:  cpu time      0.0127: real time      0.0135
    SETDIJ:  cpu time      0.0012: real time      0.0012
     EDDAV:  cpu time      3.7384: real time      3.7599
 BZINTS: Fermi energy:    6.812723;   12.000000 electrons
         Band energy: 0.328427E+02;  BLOECHL correction:   -0.234893
       DOS:  cpu time      0.0113: real time      0.0114
    CHARGE:  cpu time      0.0253: real time      0.0254
    MIXING:  cpu time      0.0003: real time      0.0003
    --------------------------------------------
      LOOP:  cpu time      3.7893: real time      3.8117

 eigenvalue-minimisations  :  7616
 total energy-change (2. order) : 0.1861578E-05  (-0.2126502E-08)
 number of electron      12.0000000 magnetization 
 augmentation part       -0.1662425 magnetization 

 Broyden mixing:
  rms(total) = 0.21666E-04    rms(broyden)= 0.21663E-04
  rms(prec ) = 0.40956E-04
  weight for this iteration     100.00

 eigenvalues of (default mixing * dielectric matrix)
  average eigenvalue GAMMA=   1.9871
  2.6732  2.6732  2.4941  0.9835  1.1116

 Free energy of the ion-electron system (eV)
  ---------------------------------------------------
  alpha Z        PSCENC =        -0.72622917
  Ewald energy   TEWEN  =      -283.05942382
  -Hartree energ DENC   =        -0.40131043
  -exchange      EXHF   =         0.00000000
  -V(xc)+E(xc)   XCENC  =      -105.42695585
  PAW double counting   =       465.83705301     -338.00672269
  entropy T*S    EENTRO =         0.00000000
  eigenvalues    EBANDS =        32.84269401
  atomic energy  EATOM  =       214.15382826
  Solvation  Ediel_sol  =         0.00000000
  ---------------------------------------------------
  free energy    TOTEN  =       -14.78706669 eV

  energy without entropy =      -14.78706669  energy(sigma->0) =      -14.78706669


--------------------------------------------------------------------------------------------------------




--------------------------------------- Iteration      1(  11)  ---------------------------------------


    POTLOK:  cpu time      0.0123: real time      0.0142
    SETDIJ:  cpu time      0.0012: real time      0.0013
     EDDAV:  cpu time      4.0308: real time      4.0530
 BZINTS: Fermi energy:    6.812718;   12.000000 electrons
         Band energy: 0.328426E+02;  BLOECHL correction:   -0.234893
       DOS:  cpu time      0.0108: real time      0.0109
    --------------------------------------------
      LOOP:  cpu time      4.0551: real time      4.0794

 eigenvalue-minimisations  :  7040
 total energy-change (2. order) : 0.9533386E-07  (-0.7548856E-10)
 number of electron      12.0000000 magnetization 
 augmentation part       -0.1662425 magnetization 

 Free energy of the ion-electron system (eV)
  ---------------------------------------------------
  alpha Z        PSCENC =        -0.72622917
  Ewald energy   TEWEN  =      -283.05942382
  -Hartree energ DENC   =        -0.40132592
  -exchange      EXHF   =         0.00000000
  -V(xc)+E(xc)   XCENC  =      -105.42692471
  PAW double counting   =       465.84365771     -338.01328468
  entropy T*S    EENTRO =         0.00000000
  eigenvalues    EBANDS =        32.84263575
  atomic energy  EATOM  =       214.15382826
  Solvation  Ediel_sol  =         0.00000000
  ---------------------------------------------------
  free energy    TOTEN  =       -14.78706659 eV

  energy without entropy =      -14.78706659  energy(sigma->0) =      -14.78706659


--------------------------------------------------------------------------------------------------------




 average (electrostatic) potential at core
  the test charge radii are     1.0406
  (the norm of the test charge is              1.0000)
       1 -73.9272       2 -73.9272       3 -73.9272       4 -73.9272
 
 
 
 E-fermi :   6.8127     XC(G=0):  -9.7896     alpha+bet :-13.2681

 val. band max:        7.0816005226   @ k =   0.5000   0.5000   0.1000
 cond. band min:       6.5764262842   @ k =   0.1000   0.1000   0.0000
 fundamental gap:     -0.5051742385
 Fermi energy:         6.8127177668

 k-point     1 :       0.0000    0.0000    0.0000
  band No.  band energies     occupation 
      1      -3.5109      2.00000
      2       4.2090      2.00000
      3       4.2090      2.00000
      4       4.2090      2.00000
      5       5.2513      2.00000
      6       5.2513      2.00000
      7       5.2513      2.00000
      8      11.9452      0.00000
      9      11.9452      0.00000
     10      11.9452      0.00000
     11      11.9452      0.00000
     12      11.9452      0.00000
     13      11.9452      0.00000
     14      12.0836      0.00000
     15      12.0836      0.00000
     16      12.0836      0.00000
     17      14.9370      0.00000
     18      14.9370      0.00000
     19      14.9370      0.00000
     20      18.8610      0.00000
     21      18.8610      0.00000
     22      18.8610      0.00000
     23      19.5313      0.00000
     24      19.5313      0.00000
     25      19.5313      0.00000
     26      22.5189      0.00000
     27      25.1037      0.00000
     28      25.1037      0.00000
     29      27.4840      0.00000
     30      29.8675      0.00000
     31      29.8675      0.00000
     32      29.8675      0.00000
     33      30.5861      0.00000
     34      30.5861      0.00000
     35      30.5861      0.00000
     36      31.9835      0.00000
     37      31.9835      0.00000
     38      31.9835      0.00000
     39      31.9835      0.00000
     40      31.9835      0.00000
     41      31.9835      0.00000
     42      36.9964      0.00000
     43      37.4050      0.00000
     44      37.4050      0.00000
     45      37.4050      0.00000
     46      37.6502      0.00000
     47      37.6502      0.00000
     48      37.6502      0.00000
     49      37.6502      0.00000
     50      37.6502      0.00000
     51      37.6502      0.00000
     52      38.1710      0.00000
     53      38.1710      0.00000
     54      38.1710      0.00000
     55      39.2950      0.00000
     56      39.2950      0.00000
     57      39.2950      0.00000
     58      44.7261      0.00000
     59      44.7261      0.00000
     60      44.7261      0.00000
     61      44.7261      0.00000
     62      44.7261      0.00000
     63      44.7261      0.00000
     64      45.2124      0.00000

 k-point     2 :       0.1000    0.0000    0.0000
  band No.  band energies     occupation 
      1      -3.4269      2.00000
      2       3.1115      2.00000
      3       4.2867      2.00000
      4       4.2867      2.00000
      5       5.3339      2.00239
      6       5.3339      2.05629
      7       6.4963      1.48608
      8      10.5280      0.00000
      9      10.5280      0.00000
     10      11.3514      0.00000
     11      11.3514      0.00000
     12      12.0179      0.00000
     13      12.0179      0.00000
     14      12.1663      0.00000
     15      13.6558      0.00000
     16      13.6558      0.00000
     17      15.0135      0.00000
     18      15.6575      0.00000
     19      15.6575      0.00000
     20      17.7982      0.00000
     21      17.7982      0.00000
     22      18.2824      0.00000
     23      19.3216      0.00000
     24      20.7136      0.00000
     25      20.7136      0.00000
     26      23.2651      0.00000
     27      24.0382      0.00000
     28      25.1811      0.00000
     29      27.5243      0.00000
     30      29.9700      0.00000
     31      29.9700      0.00000
     32      30.0988      0.00000
     33      30.0988      0.00000
     34      30.2767      0.00000
     35      30.9460      0.00000
     36      30.9460      0.00000
     37      31.0045      0.00000
     38      31.6592      0.00000
     39      31.6592      0.00000
     40      32.0008      0.00000
     41      32.0008      0.00000
     42      37.1962      0.00000
     43      37.1962      0.00000
     44      37.3556      0.00000
     45      37.4190      0.00000
     46      37.7012      0.00000
     47      37.7012      0.00000
     48      37.7482      0.00000
     49      37.7482      0.00000
     50      37.8775      0.00000
     51      37.8775      0.00000
     52      37.8785      0.00000
     53      38.6503      0.00000
     54      38.6503      0.00000
     55      39.6187      0.00000
     56      39.8985      0.00000
     57      39.8985      0.00000
     58      42.4997      0.00000
     59      42.4997      0.00000
     60      42.6308      0.00000
     61      43.9908      0.00000
     62      43.9908      0.00000
     63      44.0285      0.00000
     64      44.0285      0.00000

 k-point     3 :       0.2000    0.0000    0.0000
  band No.  band energies     occupation 
      1      -3.1753      2.00000
      2       1.7668      2.00000
      3       4.5201      2.00000
      4       4.5201      2.00000
      5       5.5812      2.03208
      6       5.5812      2.48847
      7       8.2830     -0.14755
      8       9.2002      0.00000
      9       9.2002      0.00000
     10      10.2632      0.00000
     11      10.2632      0.00000
     12      12.2363      0.00000
     13      12.2363      0.00000
     14      12.4143      0.00000
     15      15.2416      0.00000
     16      15.4477      0.00000
     17      15.4477      0.00000
     18      16.5901      0.00000
     19      16.5901      0.00000
     20      17.1221      0.00000
     21      17.1221      0.00000
     22      17.1793      0.00000
     23      18.7720      0.00000
     24      21.8453      0.00000
     25      22.2708      0.00000
     26      22.2708      0.00000
     27      24.8707      0.00000
     28      25.4126      0.00000
     29      28.1453      0.00000
     30      28.7969      0.00000
     31      28.7969      0.00000
     32      28.8144      0.00000
     33      28.8144      0.00000
     34      29.5377      0.00000
     35      30.2855      0.00000
     36      30.2855      0.00000
     37      30.8501      0.00000
     38      30.8501      0.00000
     39      32.0471      0.00000
     40      32.0471      0.00000
     41      32.7498      0.00000
     42      35.9853      0.00000
     43      36.7701      0.00000
     44      36.7701      0.00000
     45      37.7737      0.00000
     46      37.7737      0.00000
     47      37.8530      0.00000
     48      37.8530      0.00000
     49      38.0738      0.00000
     50      38.0738      0.00000
     51      38.7626      0.00000
     52      39.1102      0.00000
     53      39.5315      0.00000
     54      39.5571      0.00000
     55      39.5571      0.00000
     56      39.6142      0.00000
     57      40.4697      0.00000
     58      40.4697      0.00000
     59      41.0628      0.00000
     60      41.0628      0.00000
     61      42.7284      0.00000
     62      42.7284      0.00000
     63      43.0524      0.00000
     64      43.0524      0.00000

 k-point     4 :       0.3000    0.0000    0.0000
  band No.  band energies     occupation 
      1      -2.7568      2.00000
      2       0.5500      2.00000
      3       4.9093      2.00000
      4       4.9093      2.00000
      5       5.9913      2.04142
      6       5.9913      2.52913
      7       8.0286      0.00000
      8       8.0286      0.00000
      9       9.1631      0.00000
     10       9.1631      0.00000
     11      10.2334      0.00000
     12      12.6002      0.00000
     13      12.6002      0.00000
     14      12.8266      0.00000
     15      15.5078      0.00000
     16      15.5078      0.00000
     17      15.6161      0.00000
     18      16.0507      0.00000
     19      17.3891      0.00000
     20      17.3891      0.00000
     21      18.0054      0.00000
     22      18.8316      0.00000
     23      18.8316      0.00000
     24      19.4796      0.00000
     25      23.9023      0.00000
     26      23.9023      0.00000
     27      25.7955      0.00000
     28      26.4224      0.00000
     29      26.4224      0.00000
     30      26.8363      0.00000
     31      27.0370      0.00000
     32      27.0370      0.00000
     33      28.6518      0.00000
     34      29.1497      0.00000
     35      29.7772      0.00000
     36      29.7772      0.00000
     37      30.8394      0.00000
     38      30.8394      0.00000
     39      32.1061      0.00000
     40      32.1061      0.00000
     41      34.2123      0.00000
     42      34.5261      0.00000
     43      36.2355      0.00000
     44      36.2355      0.00000
     45      36.6548      0.00000
     46      36.6548      0.00000
     47      36.7254      0.00000
     48      38.1013      0.00000
     49      38.1013      0.00000
     50      38.4506      0.00000
     51      38.4506      0.00000
     52      38.8254      0.00000
     53      39.7623      0.00000
     54      39.7623      0.00000
     55      40.4865      0.00000
     56      40.4865      0.00000
     57      40.8166      0.00000
     58      41.0163      0.00000
     59      41.6062      0.00000
     60      41.6062      0.00000
     61      41.7150      0.00000
     62      41.7150      0.00000
     63      42.2779      0.00000
     64      42.2779      0.00000

 k-point     5 :       0.4000    0.0000    0.0000
  band No.  band energies     occupation 
      1      -2.1727      2.00000
      2      -0.5161      2.00000
      3       5.4544      2.00000
      4       5.4544      2.00000
      5       6.5599      1.98191
      6       6.5599      1.99823
      7       7.0138      0.00000
      8       7.0138      0.00000
      9       8.1620      0.00000
     10       8.1620      0.00000
     11      12.3187      0.00000
     12      13.1098      0.00000
     13      13.1098      0.00000
     14      13.4016      0.00000
     15      14.5647      0.00000
     16      14.5647      0.00000
     17      15.0238      0.00000
     18      16.1289      0.00000
     19      16.6886      0.00000
     20      17.6371      0.00000
     21      19.4735      0.00000
     22      19.4735      0.00000
     23      20.6097      0.00000
     24      20.6097      0.00000
     25      24.0187      0.00000
     26      24.0187      0.00000
     27      25.1596      0.00000
     28      25.1596      0.00000
     29      25.5402      0.00000
     30      25.5402      0.00000
     31      26.3251      0.00000
     32      27.7789      0.00000
     33      28.5250      0.00000
     34      28.5250      0.00000
     35      29.0338      0.00000
     36      30.3552      0.00000
     37      31.6781      0.00000
     38      31.6781      0.00000
     39      32.1554      0.00000
     40      32.1554      0.00000
     41      33.0772      0.00000
     42      33.9917      0.00000
     43      34.4118      0.00000
     44      34.4118      0.00000
     45      35.4558      0.00000
     46      36.6928      0.00000
     47      36.6928      0.00000
     48      37.7893      0.00000
     49      38.4331      0.00000
     50      38.4331      0.00000
     51      38.8624      0.00000
     52      38.8624      0.00000
     53      39.5615      0.00000
     54      39.5615      0.00000
     55      40.2847      0.00000
     56      40.2847      0.00000
     57      40.6390      0.00000
     58      40.6390      0.00000
     59      41.7890      0.00000
     60      41.7890      0.00000
     61      42.8364      0.00000
     62      43.2453      0.00000
     63      43.2453      0.00000
     64      43.8901      0.00000

 k-point     6 :       0.5000    0.0000    0.0000
  band No.  band energies     occupation 
      1      -1.4249      2.00000
      2      -1.4249      2.00000
      3       6.1558      2.00000
      4       6.1558      2.00000
      5       6.1558      2.00000
      6       6.1558      2.00000
      7       7.2175      0.00000
      8       7.2175      0.00000
      9       7.3581      0.00000
     10       7.3581      0.00000
     11      13.7648      0.00000
     12      13.7648      0.00000
     13      13.7648      0.00000
     14      13.7648      0.00000
     15      14.1361      0.00000
     16      14.1361      0.00000
     17      14.5128      0.00000
     18      14.5128      0.00000
     19      16.7751      0.00000
     20      16.7751      0.00000
     21      21.6898      0.00000
     22      21.6898      0.00000
     23      21.6898      0.00000
     24      21.6898      0.00000
     25      21.8090      0.00000
     26      21.8090      0.00000
     27      23.9169      0.00000
     28      23.9169      0.00000
     29      26.9919      0.00000
     30      26.9919      0.00000
     31      27.1041      0.00000
     32      27.1041      0.00000
     33      27.1041      0.00000
     34      27.1041      0.00000
     35      31.4243      0.00000
     36      31.4243      0.00000
     37      31.6779      0.00000
     38      31.6779      0.00000
     39      32.1747      0.00000
     40      32.1747      0.00000
     41      32.8599      0.00000
     42      32.8599      0.00000
     43      32.8599      0.00000
     44      32.8599      0.00000
     45      36.6373      0.00000
     46      36.6373      0.00000
     47      36.7281      0.00000
     48      36.7281      0.00000
     49      38.7986      0.00000
     50      38.7986      0.00000
     51      38.7986      0.00000
     52      38.7986      0.00000
     53      39.8620      0.00000
     54      39.8620      0.00000
     55      39.8620      0.00000
     56      39.8620      0.00000
     57      40.1799      0.00000
     58      40.1799      0.00000
     59      41.6220      0.00000
     60      41.6220      0.00000
     61      45.0878      0.00000
     62      45.0878      0.00000
     63      45.0940      0.00000
     64      45.0943      0.00000

 k-point     7 :       0.1000    0.1000    0.0000
  band No.  band energies     occupation 
      1      -3.3430      2.00000
      2       3.1917      2.00000
      3       3.1917      2.00000
      4       4.3645      2.00000
      5       5.4165      2.05550
      6       6.5764      2.15891
      7       6.5764      0.98864
      8       9.4588      0.00000
      9      10.6057      0.00000
     10      10.6057      0.00000
     11      11.4259      0.00000
     12      11.4259      0.00000
     13      12.0912      0.00000
     14      13.4177      0.00000
     15      13.7334      0.00000
     16      13.7334      0.00000
     17      15.7320      0.00000
     18      15.7320      0.00000
     19      16.5057      0.00000
     20      16.6820      0.00000
     21      17.0917      0.00000
     22      19.0240      0.00000
     23      19.6202      0.00000
     24      20.5846      0.00000
     25      21.0173      0.00000
     26      23.8090      0.00000
     27      24.0500      0.00000
     28      24.5549      0.00000
     29      27.3605      0.00000
     30      29.4940      0.00000
     31      29.4940      0.00000
     32      29.7253      0.00000
     33      30.0780      0.00000
     34      30.8322      0.00000
     35      30.8754      0.00000
     36      31.0925      0.00000
     37      31.1520      0.00000
     38      31.1520      0.00000
     39      31.5136      0.00000
     40      31.6679      0.00000
     41      31.6679      0.00000
     42      36.1258      0.00000
     43      36.6556      0.00000
     44      36.6556      0.00000
     45      37.7931      0.00000
     46      37.9046      0.00000
     47      37.9046      0.00000
     48      37.9498      0.00000
     49      37.9498      0.00000
     50      38.3716      0.00000
     51      38.4559      0.00000
     52      38.4559      0.00000
     53      38.7111      0.00000
     54      38.7526      0.00000
     55      39.9170      0.00000
     56      40.3263      0.00000
     57      40.3263      0.00000
     58      41.3153      0.00000
     59      41.3153      0.00000
     60      42.9531      0.00000
     61      42.9531      0.00000
     62      43.2911      0.00000
     63      43.8362      0.00000
     64      44.0060      0.00000

 k-point     8 :       0.2000    0.1000    0.0000
  band No.  band energies     occupation 
      1      -3.0915      2.00000
      2       1.8479      2.00000
      3       3.4318      2.00000
      4       4.5979      2.00000
      5       5.6635      2.10144
      6       6.8165      0.92923
      7       8.1683     -0.07708
      8       8.3617      0.00000
      9       9.2780      0.00000
     10      10.3398      0.00000
     11      10.8386      0.00000
     12      11.3836      0.00000
     13      11.6491      0.00000
     14      13.9664      0.00000
     15      14.7016      0.00000
     16      15.4307      0.00000
     17      15.5247      0.00000
     18      15.9541      0.00000
     19      15.9905      0.00000
     20      17.1933      0.00000
     21      18.0570      0.00000
     22      18.4108      0.00000
     23      19.2942      0.00000
     24      21.7139      0.00000
     25      21.9254      0.00000
     26      22.1940      0.00000
     27      24.6142      0.00000
     28      25.6160      0.00000
     29      27.6460      0.00000
     30      27.7491      0.00000
     31      28.5028      0.00000
     32      28.6229      0.00000
     33      28.8607      0.00000
     34      29.8381      0.00000
     35      30.4142      0.00000
     36      30.8312      0.00000
     37      30.9546      0.00000
     38      31.1008      0.00000
     39      31.4669      0.00000
     40      31.6855      0.00000
     41      33.1962      0.00000
     42      35.3300      0.00000
     43      35.3553      0.00000
     44      36.0149      0.00000
     45      37.4168      0.00000
     46      37.9744      0.00000
     47      37.9855      0.00000
     48      38.0385      0.00000
     49      38.5576      0.00000
     50      38.9002      0.00000
     51      38.9495      0.00000
     52      39.0189      0.00000
     53      39.2023      0.00000
     54      39.3670      0.00000
     55      39.6383      0.00000
     56      40.1335      0.00000
     57      40.1729      0.00000
     58      40.3263      0.00000
     59      41.5327      0.00000
     60      41.6770      0.00000
     61      41.9603      0.00000
     62      43.1077      0.00000
     63      43.2266      0.00000
     64      44.2601      0.00000

 k-point     9 :       0.3000    0.1000    0.0000
  band No.  band energies     occupation 
      1      -2.6732      2.00000
      2       0.6318      2.00000
      3       3.8315      2.00000
      4       4.9871      2.00000
      5       6.0726      2.04585
      6       7.0006      0.55295
      7       7.2150      0.00000
      8       8.1065      0.00000
      9       9.2416      0.00000
     10      10.3107      0.00000
     11      10.3209      0.00000
     12      11.2263      0.00000
     13      12.0203      0.00000
     14      14.2991      0.00000
     15      14.3541      0.00000
     16      14.9395      0.00000
     17      16.3193      0.00000
     18      16.5504      0.00000
     19      17.3880      0.00000
     20      17.4653      0.00000
     21      18.4876      0.00000
     22      18.8976      0.00000
     23      19.6914      0.00000
     24      19.8107      0.00000
     25      23.3703      0.00000
     26      23.6118      0.00000
     27      25.1652      0.00000
     28      25.4243      0.00000
     29      26.4837      0.00000
     30      26.9928      0.00000
     31      27.4458      0.00000
     32      27.4958      0.00000
     33      28.0408      0.00000
     34      28.4930      0.00000
     35      29.7042      0.00000
     36      30.2001      0.00000
     37      31.0222      0.00000
     38      31.2474      0.00000
     39      31.6899      0.00000
     40      32.2799      0.00000
     41      33.6307      0.00000
     42      34.6739      0.00000
     43      35.0716      0.00000
     44      35.3956      0.00000
     45      35.7616      0.00000
     46      37.6772      0.00000
     47      37.8209      0.00000
     48      37.8218      0.00000
     49      38.0496      0.00000
     50      38.4519      0.00000
     51      38.8748      0.00000
     52      39.0553      0.00000
     53      39.4094      0.00000
     54      39.4837      0.00000
     55      39.5554      0.00000
     56      39.6618      0.00000
     57      40.6291      0.00000
     58      41.1696      0.00000
     59      41.8024      0.00000
     60      42.1755      0.00000
     61      42.3889      0.00000
     62      43.0224      0.00000
     63      43.3127      0.00000
     64      44.8752      0.00000

 k-point    10 :       0.4000    0.1000    0.0000
  band No.  band energies     occupation 
      1      -2.0894      2.00000
      2      -0.4338      2.00000
      3       4.3898      2.00000
      4       5.5323      2.00000
      5       5.9751      2.00816
      6       6.6441      1.84096
      7       7.0917      0.00000
      8       7.7647      0.00000
      9       8.2465      0.00000
     10       9.3372      0.00000
     11      11.7679      0.00000
     12      12.3941      0.00000
     13      12.5381      0.00000
     14      13.3072      0.00000
     15      14.0034      0.00000
     16      14.8955      0.00000
     17      16.4248      0.00000
     18      16.8120      0.00000
     19      16.8201      0.00000
     20      18.2420      0.00000
     21      18.5688      0.00000
     22      19.5483      0.00000
     23      20.6461      0.00000
     24      21.6162      0.00000
     25      23.1869      0.00000
     26      24.0873      0.00000
     27      24.7858      0.00000
     28      25.1130      0.00000
     29      25.1938      0.00000
     30      26.0797      0.00000
     31      26.2256      0.00000
     32      26.5506      0.00000
     33      28.3600      0.00000
     34      29.0704      0.00000
     35      29.3864      0.00000
     36      29.4223      0.00000
     37      31.4128      0.00000
     38      31.6532      0.00000
[...]
     64      45.4093      0.00000

 k-point    52 :       0.5000    0.5000    0.3000
  band No.  band energies     occupation 
      1       1.3681      2.00000
      2       1.3681      2.00000
      3       1.3681      2.00000
      4       1.3681      2.00000
      5       4.5937      2.00000
      6       4.5937      2.00000
      7       4.5937      2.00000
      8       4.5937      2.07425
      9      13.9773      0.00000
     10      13.9773      0.00000
     11      13.9773      0.00000
     12      13.9773      0.00000
     13      16.2294      0.00000
     14      16.2294      0.00000
     15      16.2294      0.00000
     16      16.2294      0.00000
     17      17.9749      0.00000
     18      17.9749      0.00000
     19      17.9749      0.00000
     20      17.9749      0.00000
     21      19.2728      0.00000
     22      19.2728      0.00000
     23      19.2728      0.00000
     24      19.2728      0.00000
     25      21.8208      0.00000
     26      21.8208      0.00000
     27      21.8208      0.00000
     28      21.8208      0.00000
     29      24.1174      0.00000
     30      24.1174      0.00000
     31      24.1174      0.00000
     32      24.1174      0.00000
     33      27.7974      0.00000
     34      27.7974      0.00000
     35      27.7974      0.00000
     36      27.7974      0.00000
     37      29.1701      0.00000
     38      29.1701      0.00000
     39      29.1701      0.00000
     40      29.1701      0.00000
     41      34.6695      0.00000
     42      34.6695      0.00000
     43      34.6695      0.00000
     44      34.6695      0.00000
     45      36.6434      0.00000
     46      36.6434      0.00000
     47      36.6434      0.00000
     48      36.6434      0.00000
     49      38.2816      0.00000
     50      38.2816      0.00000
     51      38.2816      0.00000
     52      38.2816      0.00000
     53      42.8243      0.00000
     54      42.8243      0.00000
     55      42.8243      0.00000
     56      42.8243      0.00000
     57      43.8185      0.00000
     58      43.8185      0.00000
     59      43.8185      0.00000
     60      43.8185      0.00000
     61      45.2616      0.00000
     62      45.2616      0.00000
     63      45.2616      0.00000
     64      45.2616      0.00000

 k-point    53 :       0.4000    0.4000    0.4000
  band No.  band energies     occupation 
      1       0.4697      2.00000
      2       2.0988      2.00000
      3       2.0988      2.00000
      4       2.0988      2.00000
      5       3.7145      2.00000
      6       3.7145      2.00000
      7       3.7145      2.00000
      8       5.3133      2.06626
      9      14.6527      0.00000
     10      14.6527      0.00000
     11      14.6527      0.00000
     12      15.4443      0.00000
     13      15.4443      0.00000
     14      15.4443      0.00000
     15      16.8579      0.00000
     16      16.8579      0.00000
     17      17.1249      0.00000
     18      17.1249      0.00000
     19      17.1249      0.00000
     20      18.4815      0.00000
     21      18.4815      0.00000
     22      19.9017      0.00000
     23      19.9017      0.00000
     24      19.9017      0.00000
     25      20.3163      0.00000
     26      22.1030      0.00000
     27      22.3148      0.00000
     28      22.3148      0.00000
     29      22.3148      0.00000
     30      23.5330      0.00000
     31      23.5330      0.00000
     32      23.5330      0.00000
     33      27.8970      0.00000
     34      27.8970      0.00000
     35      27.8970      0.00000
     36      28.3572      0.00000
     37      28.3572      0.00000
     38      30.1149      0.00000
     39      30.1149      0.00000
     40      30.1149      0.00000
     41      34.3647      0.00000
     42      35.7740      0.00000
     43      35.7740      0.00000
     44      35.7740      0.00000
     45      35.8656      0.00000
     46      35.8656      0.00000
     47      35.8656      0.00000
     48      37.0914      0.00000
     49      37.0914      0.00000
     50      37.0914      0.00000
     51      37.5482      0.00000
     52      37.5482      0.00000
     53      42.5837      0.00000
     54      43.1909      0.00000
     55      43.1909      0.00000
     56      43.1909      0.00000
     57      44.1015      0.00000
     58      44.2240      0.00000
     59      44.2240      0.00000
     60      45.5866      0.00000
     61      45.5866      0.00000
     62      45.5866      0.00000
     63      45.8376      0.00000
     64      45.8376      0.00000

 k-point    54 :       0.5000    0.4000    0.4000
  band No.  band energies     occupation 
      1       1.2050      2.00000
      2       1.2050      2.00000
      3       2.7886      2.00000
      4       2.7886      2.00000
      5       2.8676      2.00000
      6       2.8676      2.00000
      7       4.4359      2.00000
      8       4.4359      2.02311
      9      15.1870      0.00000
     10      15.1870      0.00000
     11      15.2806      0.00000
     12      15.2806      0.00000
     13      16.0927      0.00000
     14      16.0927      0.00000
     15      16.5749      0.00000
     16      16.5749      0.00000
     17      17.5030      0.00000
     18      17.5030      0.00000
     19      18.2927      0.00000
     20      18.2927      0.00000
     21      18.6917      0.00000
     22      18.6917      0.00000
     23      19.1026      0.00000
     24      19.1026      0.00000
     25      21.1063      0.00000
     26      21.1063      0.00000
     27      22.0688      0.00000
     28      22.0688      0.00000
     29      22.2605      0.00000
     30      22.2605      0.00000
     31      23.0633      0.00000
     32      23.0633      0.00000
     33      28.2371      0.00000
     34      28.2371      0.00000
     35      28.9900      0.00000
     36      28.9900      0.00000
     37      29.6305      0.00000
     38      29.6305      0.00000
     39      29.7839      0.00000
     40      29.7839      0.00000
     41      35.3947      0.00000
     42      35.3947      0.00000
     43      35.4824      0.00000
     44      35.4824      0.00000
     45      35.8372      0.00000
     46      35.8372      0.00000
     47      36.0515      0.00000
     48      36.0515      0.00000
     49      37.0189      0.00000
     50      37.0189      0.00000
     51      37.1591      0.00000
     52      37.1591      0.00000
     53      42.6537      0.00000
     54      42.6537      0.00000
     55      42.7841      0.00000
     56      42.7841      0.00000
     57      44.8243      0.00000
     58      44.8243      0.00000
     59      44.8994      0.00000
     60      44.8994      0.00000
     61      46.2252      0.00000
     62      46.2252      0.00000
     63      46.2441      0.00000
     64      46.2441      0.00000

 k-point    55 :       0.5000    0.5000    0.4000
  band No.  band energies     occupation 
      1       1.9368      2.00000
      2       1.9368      2.00000
      3       1.9368      2.00000
      4       1.9368      2.00000
      5       3.5546      2.00000
      6       3.5546      2.00000
      7       3.5546      2.00000
      8       3.5546      2.00000
      9      15.8237      0.00000
     10      15.8237      0.00000
     11      15.8237      0.00000
     12      15.8237      0.00000
     13      16.7107      0.00000
     14      16.7107      0.00000
     15      16.7107      0.00000
     16      16.7107      0.00000
     17      18.1182      0.00000
     18      18.1182      0.00000
     19      18.1182      0.00000
     20      18.1182      0.00000
     21      18.3484      0.00000
     22      18.3484      0.00000
     23      18.3484      0.00000
     24      18.3484      0.00000
     25      21.0684      0.00000
     26      21.0684      0.00000
     27      21.0684      0.00000
     28      21.0684      0.00000
     29      22.1457      0.00000
     30      22.1457      0.00000
     31      22.1457      0.00000
     32      22.1457      0.00000
     33      29.3088      0.00000
     34      29.3088      0.00000
     35      29.3088      0.00000
     36      29.3088      0.00000
     37      29.8058      0.00000
     38      29.8058      0.00000
     39      29.8058      0.00000
     40      29.8058      0.00000
     41      35.2923      0.00000
     42      35.2923      0.00000
     43      35.2923      0.00000
     44      35.2923      0.00000
     45      36.1856      0.00000
     46      36.1856      0.00000
     47      36.1856      0.00000
     48      36.1856      0.00000
     49      36.4038      0.00000
     50      36.4038      0.00000
     51      36.4038      0.00000
     52      36.4038      0.00000
     53      42.2666      0.00000
     54      42.2666      0.00000
     55      42.2666      0.00000
     56      42.2666      0.00000
     57      45.7123      0.00000
     58      45.7123      0.00000
     59      45.7123      0.00000
     60      45.7123      0.00000
     61      46.4017      0.00000
     62      46.4017      0.00000
     63      46.4017      0.00000
     64      46.4017      0.00000

 k-point    56 :       0.5000    0.5000    0.5000
  band No.  band energies     occupation 
      1       2.6228      2.00000
      2       2.6228      2.00000
      3       2.6228      2.00000
      4       2.6228      2.00000
      5       2.7112      2.00000
      6       2.7112      2.00000
      7       2.7112      2.00000
      8       2.7112      2.00000
      9      17.1065      0.00000
     10      17.1065      0.00000
     11      17.1065      0.00000
     12      17.1065      0.00000
     13      17.1065      0.00000
     14      17.1065      0.00000
     15      17.1065      0.00000
     16      17.1065      0.00000
     17      17.8047      0.00000
     18      17.8047      0.00000
     19      17.8047      0.00000
     20      17.8047      0.00000
     21      17.8047      0.00000
     22      17.8047      0.00000
     23      17.8047      0.00000
     24      17.8047      0.00000
     25      20.7269      0.00000
     26      20.7269      0.00000
     27      20.7269      0.00000
     28      20.7269      0.00000
     29      21.2643      0.00000
     30      21.2643      0.00000
     31      21.2643      0.00000
     32      21.2643      0.00000
     33      30.0427      0.00000
     34      30.0427      0.00000
     35      30.0427      0.00000
     36      30.0427      0.00000
     37      30.0427      0.00000
     38      30.0427      0.00000
     39      30.0427      0.00000
     40      30.0427      0.00000
     41      35.5443      0.00000
     42      35.5443      0.00000
     43      35.5443      0.00000
     44      35.5443      0.00000
     45      35.5443      0.00000
     46      35.5443      0.00000
     47      35.5443      0.00000
     48      35.5443      0.00000
     49      36.0538      0.00000
     50      36.0538      0.00000
     51      36.0538      0.00000
     52      36.0538      0.00000
     53      41.7396      0.00000
     54      41.7396      0.00000
     55      41.7396      0.00000
     56      41.7396      0.00000
     57      46.6172      0.00000
     58      46.6172      0.00000
     59      46.6172      0.00000
     60      46.6172      0.00000
     61      47.5910      0.00000
     62      47.5910      0.00000
     63      47.5910      0.00000
     64      47.5910      0.00000


--------------------------------------------------------------------------------------------------------


 soft charge-density along one line, spin component           1
         0         1         2         3         4         5         6         7         8         9
 total charge-density along one line
 
 pseudopotential strength for first ion, spin component:           1
  8.481  14.456  -0.000  -0.000  -0.000  -0.000  -0.000   0.000
 14.456  24.642  -0.000  -0.000   0.000  -0.000  -0.000   0.000
 -0.000  -0.000   1.983   0.000   0.000   5.726   0.000   0.000
 -0.000  -0.000   0.000   1.983   0.000   0.000   5.726   0.000
 -0.000   0.000   0.000   0.000   1.983   0.000   0.000   5.726
 -0.000  -0.000   5.726   0.000   0.000  16.445   0.000   0.000
 -0.000  -0.000   0.000   5.726   0.000   0.000  16.445   0.000
  0.000   0.000   0.000   0.000   5.726   0.000   0.000  16.445
 total augmentation occupancy for first ion, spin component:           1
  2.899  -0.624  -0.000   0.000  -0.000   0.000  -0.000   0.000
 -0.624   0.209   0.000  -0.000  -0.000  -0.000  -0.000   0.000
 -0.000   0.000   0.947   0.000   0.000  -0.057  -0.000  -0.000
  0.000  -0.000   0.000   0.947   0.000  -0.000  -0.057  -0.000
 -0.000  -0.000   0.000   0.000   0.947  -0.000  -0.000  -0.057
  0.000  -0.000  -0.057  -0.000  -0.000   0.004   0.000   0.000
 -0.000  -0.000  -0.000  -0.057  -0.000   0.000   0.004   0.000
  0.000   0.000  -0.000  -0.000  -0.057   0.000   0.000   0.004


------------------------ aborting loop because EDIFF is reached ----------------------------------------


    CHARGE:  cpu time      0.0253: real time      0.0254
    FORLOC:  cpu time      0.0005: real time      0.0006
    FORNL :  cpu time      0.0310: real time      0.0315
    STRESS:  cpu time      0.4740: real time      0.4799
    FORCOR:  cpu time      0.0039: real time      0.0040
    FORHAR:  cpu time      0.0013: real time      0.0013
    MIXING:  cpu time      0.0004: real time      0.0004
    OFIELD:  cpu time      0.0004: real time      0.0004

  FORCE on cell =-STRESS in cart. coord.  units (eV):
  Direction    XX          YY          ZZ          XY          YZ          ZX
  --------------------------------------------------------------------------------------
  Alpha Z    -0.72623    -0.72623    -0.72623
  Ewald     -94.35318   -94.35318   -94.35318    -0.00000     0.00000     0.00000
  Hartree     0.13378     0.13378     0.13378    -0.00000    -0.00000    -0.00000
  E(xc)     -33.09988   -33.09988   -33.09988    -0.00000     0.00000     0.00000
  Local      -0.71923    -0.71923    -0.71923     0.00000     0.00000     0.00000
  n-local    73.27170    73.92759    75.23356     0.00473     0.50138     0.15449
  augment    -4.44200    -4.44200    -4.44200     0.00000     0.00000     0.00000
  Kinetic    53.54320    55.39625    58.76081     1.68788    -7.73979    -1.33076
  Fock        0.00000     0.00000     0.00000     0.00000     0.00000     0.00000
  -------------------------------------------------------------------------------------
  Total      -3.16237    -3.16237    -3.16237    -0.00000    -0.00000    -0.00000
  in kB     -68.46869   -68.46869   -68.46869    -0.00000    -0.00000    -0.00000
  external pressure =      -68.47 kB  Pullay stress =        0.00 kB


 VOLUME and BASIS-vectors are now :
 -----------------------------------------------------------------------------
  energy-cutoff  :      520.00
  volume of cell :       74.00
      direct lattice vectors                 reciprocal lattice vectors
     4.198336454  0.000000000  0.000000000     0.238189581 -0.000000000  0.000000000
     0.000000000  4.198336454  0.000000000     0.000000000  0.238189581  0.000000000
     0.000000000  0.000000000  4.198336454    -0.000000000 -0.000000000  0.238189581

  length of vectors
     4.198336454  4.198336454  4.198336454     0.238189581  0.238189581  0.238189581


 FORCES acting on ions
    electron-ion (+dipol)            ewald-force                    non-local-force                 convergence-correction
 -----------------------------------------------------------------------------------------------
   0.374E-14 0.185E-14 0.194E-15   -.380E-15 -.355E-15 -.624E-15   0.247E-20 0.554E-19 -.382E-19   -.428E-17 -.105E-14 -.108E-15
   0.224E-14 -.117E-14 -.150E-14   -.383E-15 0.585E-15 0.280E-15   -.607E-19 -.238E-19 -.497E-19   0.515E-17 0.105E-14 0.895E-16
   -.236E-14 0.177E-14 -.473E-13   0.440E-15 -.640E-15 0.275E-15   0.129E-19 0.683E-19 0.180E-18   0.760E-17 -.748E-15 0.106E-15
   -.127E-14 -.313E-14 -.555E-14   0.463E-15 0.302E-15 -.647E-16   0.229E-20 -.606E-19 0.307E-19   -.313E-17 0.754E-15 -.896E-16
 -----------------------------------------------------------------------------------------------
   0.235E-14 -.671E-15 -.541E-13   0.140E-15 -.108E-15 -.133E-15   -.431E-19 0.393E-19 0.123E-18   0.534E-17 0.655E-17 -.223E-17
 
 
 POSITION                                       TOTAL-FORCE (eV/Angst)
 -----------------------------------------------------------------------------------
      0.00000      0.00000      0.00000        -0.000000     -0.000000      0.000000
      0.00000      2.09917      2.09917        -0.000000      0.000000      0.000000
      2.09917      0.00000      2.09917         0.000000     -0.000000     -0.000000
      2.09917      2.09917      0.00000         0.000000      0.000000     -0.000000
 -----------------------------------------------------------------------------------
    total drift:                                0.000000     -0.000000     -0.000000


--------------------------------------------------------------------------------------------------------



  FREE ENERGIE OF THE ION-ELECTRON SYSTEM (eV)
  ---------------------------------------------------
  free  energy   TOTEN  =       -14.78706659 eV

  energy  without entropy=      -14.78706659  energy(sigma->0) =      -14.78706659
 


--------------------------------------------------------------------------------------------------------


    POTLOK:  cpu time      0.0067: real time      0.0070


--------------------------------------------------------------------------------------------------------


     LOOP+:  cpu time     60.6336: real time     61.0282
 -----------------------------------------------------------------------------
|                                                                             |
|           W    W    AA    RRRRR   N    N  II  N    N   GGGG   !!!           |
|           W    W   A  A   R    R  NN   N  II  NN   N  G    G  !!!           |
|           W    W  A    A  R    R  N N  N  II  N N  N  G       !!!           |
|           W WW W  AAAAAA  RRRRR   N  N N  II  N  N N  G  GGG   !            |
|           WW  WW  A    A  R   R   N   NN  II  N   NN  G    G                |
|           W    W  A    A  R    R  N    N  II  N    N   GGGG   !!!           |
|                                                                             |
|     Tetrahedron method does not include variations of the Fermi             |
|     occupations, so forces and stress will be inaccurate. We suggest        |
|     using a different smearing scheme ISMEAR = 1 or 2 for metals in         |
|     relaxations.                                                            |
|                                                                             |
 -----------------------------------------------------------------------------

    4ORBIT:  cpu time      0.0000: real time      0.0000
 BZINTS: Fermi energy:    6.812718;   12.000000 electrons
         Band energy: 0.328426E+02;  BLOECHL correction:   -0.234893

 total amount of memory used by VASP MPI-rank0    41201. kBytes
=======================================================================

   base      :      30000. kBytes
   nonl-proj :       7471. kBytes
   fftplans  :        299. kBytes
   grid      :       1527. kBytes
   one-center:         12. kBytes
   wavefun   :       1892. kBytes
 
  
  
 General timing and accounting informations for this job:
 ========================================================
  
                  Total CPU time used (sec):       63.857
                            User time (sec):       61.505
                          System time (sec):        2.351
                         Elapsed time (sec):       66.351
  
                   Maximum memory used (kb):      707316.
                   Average memory used (kb):          N/A
  
                          Minor page faults:       135343
                          Major page faults:          141
                 Voluntary context switches:         4816
