  16  16   1   0
  0.1775000E+02  0.7257635E-09  0.7257635E-09  0.5448886E-09  0.5000000E-15
  1.000000000000000E-004
  CAR 
 unknown system                          
     12.33979333    -52.90436383  301      4.70441013      1.00000000
    -52.904  0.0000E+00  0.0000E+00  0.0000E+00  0.0000E+00
    -52.687  0.0000E+00  0.0000E+00  0.0000E+00  0.0000E+00
    -52.469  0.0000E+00  0.0000E+00  0.0000E+00  0.0000E+00
    -52.252  0.0000E+00  0.0000E+00  0.0000E+00  0.0000E+00
    -52.034  0.0000E+00  0.0000E+00  0.0000E+00  0.0000E+00
    -51.817  0.0000E+00  0.0000E+00  0.0000E+00  0.0000E+00
    -51.599  0.0000E+00  0.0000E+00  0.0000E+00  0.0000E+00
    -51.382  0.0000E+00  0.0000E+00  0.0000E+00  0.0000E+00
    -51.165  0.0000E+00  0.0000E+00  0.0000E+00  0.0000E+00
    -50.947  0.0000E+00  0.0000E+00  0.0000E+00  0.0000E+00
    -50.730  0.0000E+00  0.0000E+00  0.0000E+00  0.0000E+00
    -50.512  0.0000E+00  0.0000E+00  0.0000E+00  0.0000E+00
    -50.295  0.0000E+00  0.0000E+00  0.0000E+00  0.0000E+00
    -50.077  0.0000E+00  0.0000E+00  0.0000E+00  0.0000E+00
    -49.860  0.3991E+02  0.3991E+02  0.4475E+01  0.4475E+01
    -49.642  0.3155E+02  0.3155E+02  0.1026E+02  0.1026E+02
    -49.425  0.7882E+01  0.7882E+01  0.1200E+02  0.1200E+02
    -49.207  0.0000E+00  0.0000E+00  0.1200E+02  0.1200E+02
    -48.990  0.0000E+00  0.0000E+00  0.1200E+02  0.1200E+02
    -48.772  0.0000E+00  0.0000E+00  0.1200E+02  0.1200E+02
    -48.555  0.0000E+00  0.0000E+00  0.1200E+02  0.1200E+02
    -48.337  0.0000E+00  0.0000E+00  0.1200E+02  0.1200E+02
    -48.120  0.0000E+00  0.0000E+00  0.1200E+02  0.1200E+02
    -47.902  0.0000E+00  0.0000E+00  0.1200E+02  0.1200E+02
    -47.685  0.0000E+00  0.0000E+00  0.1200E+02  0.1200E+02
    -47.467  0.0000E+00  0.0000E+00  0.1200E+02  0.1200E+02
    -47.250  0.3243E+02  0.3243E+02  0.1685E+02  0.1685E+02
    -47.032  0.1285E+02  0.1285E+02  0.1830E+02  0.1830E+02
    -46.815  0.2496E+02  0.2496E+02  0.2400E+02  0.2400E+02
    -46.597  0.0000E+00  0.0000E+00  0.2400E+02  0.2400E+02
    -46.380  0.0000E+00  0.0000E+00  0.2400E+02  0.2400E+02
    -46.162  0.0000E+00  0.0000E+00  0.2400E+02  0.2400E+02
    -45.945  0.0000E+00  0.0000E+00  0.2400E+02  0.2400E+02
    -45.728  0.0000E+00  0.0000E+00  0.2400E+02  0.2400E+02
    -45.510  0.0000E+00  0.0000E+00  0.2400E+02  0.2400E+02
    -45.293  0.0000E+00  0.0000E+00  0.2400E+02  0.2400E+02
    -45.075  0.0000E+00  0.0000E+00  0.2400E+02  0.2400E+02
    -44.858  0.0000E+00  0.0000E+00  0.2400E+02  0.2400E+02
    -44.640  0.0000E+00  0.0000E+00  0.2400E+02  0.2400E+02
    -44.423  0.0000E+00  0.0000E+00  0.2400E+02  0.2400E+02
    -44.205  0.0000E+00  0.0000E+00  0.2400E+02  0.2400E+02
    -43.988  0.0000E+00  0.0000E+00  0.2400E+02  0.2400E+02
    -43.770  0.0000E+00  0.0000E+00  0.2400E+02  0.2400E+02
    -43.553  0.0000E+00  0.0000E+00  0.2400E+02  0.2400E+02
    -43.335  0.0000E+00  0.0000E+00  0.2400E+02  0.2400E+02
    -43.118  0.0000E+00  0.0000E+00  0.2400E+02  0.2400E+02
    -42.900  0.0000E+00  0.0000E+00  0.2400E+02  0.2400E+02
    -42.683  0.0000E+00  0.0000E+00  0.2400E+02  0.2400E+02
    -42.465  0.0000E+00  0.0000E+00  0.2400E+02  0.2400E+02
    -42.248  0.0000E+00  0.0000E+00  0.2400E+02  0.2400E+02
    -42.030  0.0000E+00  0.0000E+00  0.2400E+02  0.2400E+02
    -41.813  0.0000E+00  0.0000E+00  0.2400E+02  0.2400E+02
    -41.595  0.0000E+00  0.0000E+00  0.2400E+02  0.2400E+02
    -41.378  0.0000E+00  0.0000E+00  0.2400E+02  0.2400E+02
    -41.160  0.0000E+00  0.0000E+00  0.2400E+02  0.2400E+02
    -40.943  0.0000E+00  0.0000E+00  0.2400E+02  0.2400E+02
    -40.725  0.0000E+00  0.0000E+00  0.2400E+02  0.2400E+02
    -40.508  0.0000E+00  0.0000E+00  0.2400E+02  0.2400E+02
    -40.290  0.0000E+00  0.0000E+00  0.2400E+02  0.2400E+02
    -40.073  0.0000E+00  0.0000E+00  0.2400E+02  0.2400E+02
    -39.856  0.0000E+00  0.0000E+00  0.2400E+02  0.2400E+02
    -39.638  0.0000E+00  0.0000E+00  0.2400E+02  0.2400E+02
    -39.421  0.0000E+00  0.0000E+00  0.2400E+02  0.2400E+02
    -39.203  0.0000E+00  0.0000E+00  0.2400E+02  0.2400E+02
    -38.986  0.0000E+00  0.0000E+00  0.2400E+02  0.2400E+02
    -38.768  0.0000E+00  0.0000E+00  0.2400E+02  0.2400E+02
    -38.551  0.0000E+00  0.0000E+00  0.2400E+02  0.2400E+02
    -38.333  0.0000E+00  0.0000E+00  0.2400E+02  0.2400E+02
    -38.116  0.0000E+00  0.0000E+00  0.2400E+02  0.2400E+02
    -37.898  0.0000E+00  0.0000E+00  0.2400E+02  0.2400E+02
    -37.681  0.0000E+00  0.0000E+00  0.2400E+02  0.2400E+02
    -37.463  0.0000E+00  0.0000E+00  0.2400E+02  0.2400E+02
    -37.246  0.0000E+00  0.0000E+00  0.2400E+02  0.2400E+02
    -37.028  0.0000E+00  0.0000E+00  0.2400E+02  0.2400E+02
    -36.811  0.0000E+00  0.0000E+00  0.2400E+02  0.2400E+02
    -36.593  0.0000E+00  0.0000E+00  0.2400E+02  0.2400E+02
    -36.376  0.0000E+00  0.0000E+00  0.2400E+02  0.2400E+02
    -36.158  0.0000E+00  0.0000E+00  0.2400E+02  0.2400E+02
    -35.941  0.0000E+00  0.0000E+00  0.2400E+02  0.2400E+02
    -35.723  0.0000E+00  0.0000E+00  0.2400E+02  0.2400E+02
    -35.506  0.0000E+00  0.0000E+00  0.2400E+02  0.2400E+02
    -35.288  0.0000E+00  0.0000E+00  0.2400E+02  0.2400E+02
    -35.071  0.0000E+00  0.0000E+00  0.2400E+02  0.2400E+02
    -34.853  0.0000E+00  0.0000E+00  0.2400E+02  0.2400E+02
    -34.636  0.0000E+00  0.0000E+00  0.2400E+02  0.2400E+02
    -34.419  0.0000E+00  0.0000E+00  0.2400E+02  0.2400E+02
    -34.201  0.0000E+00  0.0000E+00  0.2400E+02  0.2400E+02
    -33.984  0.0000E+00  0.0000E+00  0.2400E+02  0.2400E+02
    -33.766  0.0000E+00  0.0000E+00  0.2400E+02  0.2400E+02
    -33.549  0.0000E+00  0.0000E+00  0.2400E+02  0.2400E+02
    -33.331  0.0000E+00  0.0000E+00  0.2400E+02  0.2400E+02
    -33.114  0.0000E+00  0.0000E+00  0.2400E+02  0.2400E+02
    -32.896  0.0000E+00  0.0000E+00  0.2400E+02  0.2400E+02
    -32.679  0.0000E+00  0.0000E+00  0.2400E+02  0.2400E+02
    -32.461  0.0000E+00  0.0000E+00  0.2400E+02  0.2400E+02
    -32.244  0.0000E+00  0.0000E+00  0.2400E+02  0.2400E+02
    -32.026  0.0000E+00  0.0000E+00  0.2400E+02  0.2400E+02
    -31.809  0.0000E+00  0.0000E+00  0.2400E+02  0.2400E+02
    -31.591  0.0000E+00  0.0000E+00  0.2400E+02  0.2400E+02
    -31.374  0.0000E+00  0.0000E+00  0.2400E+02  0.2400E+02
    -31.156  0.0000E+00  0.0000E+00  0.2400E+02  0.2400E+02
    -30.939  0.0000E+00  0.0000E+00  0.2400E+02  0.2400E+02
    -30.721  0.0000E+00  0.0000E+00  0.2400E+02  0.2400E+02
    -30.504  0.0000E+00  0.0000E+00  0.2400E+02  0.2400E+02
    -30.286  0.0000E+00  0.0000E+00  0.2400E+02  0.2400E+02
    -30.069  0.0000E+00  0.0000E+00  0.2400E+02  0.2400E+02
    -29.851  0.0000E+00  0.0000E+00  0.2400E+02  0.2400E+02
    -29.634  0.0000E+00  0.0000E+00  0.2400E+02  0.2400E+02
    -29.416  0.0000E+00  0.0000E+00  0.2400E+02  0.2400E+02
    -29.199  0.0000E+00  0.0000E+00  0.2400E+02  0.2400E+02
    -28.982  0.0000E+00  0.0000E+00  0.2400E+02  0.2400E+02
    -28.764  0.0000E+00  0.0000E+00  0.2400E+02  0.2400E+02
    -28.547  0.0000E+00  0.0000E+00  0.2400E+02  0.2400E+02
    -28.329  0.0000E+00  0.0000E+00  0.2400E+02  0.2400E+02
    -28.112  0.0000E+00  0.0000E+00  0.2400E+02  0.2400E+02
    -27.894  0.0000E+00  0.0000E+00  0.2400E+02  0.2400E+02
    -27.677  0.0000E+00  0.0000E+00  0.2400E+02  0.2400E+02
    -27.459  0.0000E+00  0.0000E+00  0.2400E+02  0.2400E+02
    -27.242  0.0000E+00  0.0000E+00  0.2400E+02  0.2400E+02
    -27.024  0.0000E+00  0.0000E+00  0.2400E+02  0.2400E+02
    -26.807  0.0000E+00  0.0000E+00  0.2400E+02  0.2400E+02
    -26.589  0.0000E+00  0.0000E+00  0.2400E+02  0.2400E+02
    -26.372  0.0000E+00  0.0000E+00  0.2400E+02  0.2400E+02
    -26.154  0.0000E+00  0.0000E+00  0.2400E+02  0.2400E+02
    -25.937  0.0000E+00  0.0000E+00  0.2400E+02  0.2400E+02
    -25.719  0.0000E+00  0.0000E+00  0.2400E+02  0.2400E+02
    -25.502  0.0000E+00  0.0000E+00  0.2400E+02  0.2400E+02
    -25.284  0.0000E+00  0.0000E+00  0.2400E+02  0.2400E+02
    -25.067  0.0000E+00  0.0000E+00  0.2400E+02  0.2400E+02
    -24.849  0.0000E+00  0.0000E+00  0.2400E+02  0.2400E+02
    -24.632  0.0000E+00  0.0000E+00  0.2400E+02  0.2400E+02
    -24.414  0.0000E+00  0.0000E+00  0.2400E+02  0.2400E+02
    -24.197  0.0000E+00  0.0000E+00  0.2400E+02  0.2400E+02
    -23.979  0.0000E+00  0.0000E+00  0.2400E+02  0.2400E+02
    -23.762  0.0000E+00  0.0000E+00  0.2400E+02  0.2400E+02
    -23.544  0.0000E+00  0.0000E+00  0.2400E+02  0.2400E+02
    -23.327  0.0000E+00  0.0000E+00  0.2400E+02  0.2400E+02
    -23.110  0.0000E+00  0.0000E+00  0.2400E+02  0.2400E+02
    -22.892  0.0000E+00  0.0000E+00  0.2400E+02  0.2400E+02
    -22.675  0.0000E+00  0.0000E+00  0.2400E+02  0.2400E+02
    -22.457  0.0000E+00  0.0000E+00  0.2400E+02  0.2400E+02
    -22.240  0.0000E+00  0.0000E+00  0.2400E+02  0.2400E+02
    -22.022  0.0000E+00  0.0000E+00  0.2400E+02  0.2400E+02
    -21.805  0.0000E+00  0.0000E+00  0.2400E+02  0.2400E+02
    -21.587  0.0000E+00  0.0000E+00  0.2400E+02  0.2400E+02
    -21.370  0.0000E+00  0.0000E+00  0.2400E+02  0.2400E+02
    -21.152  0.0000E+00  0.0000E+00  0.2400E+02  0.2400E+02
    -20.935  0.0000E+00  0.0000E+00  0.2400E+02  0.2400E+02
    -20.717  0.0000E+00  0.0000E+00  0.2400E+02  0.2400E+02
    -20.500  0.0000E+00  0.0000E+00  0.2400E+02  0.2400E+02
    -20.282  0.0000E+00  0.0000E+00  0.2400E+02  0.2400E+02
    -20.065  0.0000E+00  0.0000E+00  0.2400E+02  0.2400E+02
    -19.847  0.0000E+00  0.0000E+00  0.2400E+02  0.2400E+02
    -19.630  0.0000E+00  0.0000E+00  0.2400E+02  0.2400E+02
    -19.412  0.0000E+00  0.0000E+00  0.2400E+02  0.2400E+02
    -19.195  0.0000E+00  0.0000E+00  0.2400E+02  0.2400E+02
    -18.977  0.0000E+00  0.0000E+00  0.2400E+02  0.2400E+02
    -18.760  0.0000E+00  0.0000E+00  0.2400E+02  0.2400E+02
    -18.542  0.0000E+00  0.0000E+00  0.2400E+02  0.2400E+02
    -18.325  0.0000E+00  0.0000E+00  0.2400E+02  0.2400E+02
    -18.107  0.0000E+00  0.0000E+00  0.2400E+02  0.2400E+02
    -17.890  0.0000E+00  0.0000E+00  0.2400E+02  0.2400E+02
    -17.673  0.0000E+00  0.0000E+00  0.2400E+02  0.2400E+02
    -17.455  0.0000E+00  0.0000E+00  0.2400E+02  0.2400E+02
    -17.238  0.0000E+00  0.0000E+00  0.2400E+02  0.2400E+02
    -17.020  0.0000E+00  0.0000E+00  0.2400E+02  0.2400E+02
    -16.803  0.0000E+00  0.0000E+00  0.2400E+02  0.2400E+02
    -16.585  0.0000E+00  0.0000E+00  0.2400E+02  0.2400E+02
    -16.368  0.0000E+00  0.0000E+00  0.2400E+02  0.2400E+02
    -16.150  0.0000E+00  0.0000E+00  0.2400E+02  0.2400E+02
    -15.933  0.0000E+00  0.0000E+00  0.2400E+02  0.2400E+02
    -15.715  0.0000E+00  0.0000E+00  0.2400E+02  0.2400E+02
    -15.498  0.0000E+00  0.0000E+00  0.2400E+02  0.2400E+02
    -15.280  0.0000E+00  0.0000E+00  0.2400E+02  0.2400E+02
    -15.063  0.0000E+00  0.0000E+00  0.2400E+02  0.2400E+02
    -14.845  0.0000E+00  0.0000E+00  0.2400E+02  0.2400E+02
    -14.628  0.0000E+00  0.0000E+00  0.2400E+02  0.2400E+02
    -14.410  0.0000E+00  0.0000E+00  0.2400E+02  0.2400E+02
    -14.193  0.0000E+00  0.0000E+00  0.2400E+02  0.2400E+02
    -13.975  0.0000E+00  0.0000E+00  0.2400E+02  0.2400E+02
    -13.758  0.0000E+00  0.0000E+00  0.2400E+02  0.2400E+02
    -13.540  0.0000E+00  0.0000E+00  0.2400E+02  0.2400E+02
    -13.323  0.0000E+00  0.0000E+00  0.2400E+02  0.2400E+02
    -13.105  0.0000E+00  0.0000E+00  0.2400E+02  0.2400E+02
    -12.888  0.0000E+00  0.0000E+00  0.2400E+02  0.2400E+02
    -12.670  0.0000E+00  0.0000E+00  0.2400E+02  0.2400E+02
    -12.453  0.0000E+00  0.0000E+00  0.2400E+02  0.2400E+02
    -12.236  0.0000E+00  0.0000E+00  0.2400E+02  0.2400E+02
    -12.018  0.0000E+00  0.0000E+00  0.2400E+02  0.2400E+02
    -11.801  0.0000E+00  0.0000E+00  0.2400E+02  0.2400E+02
    -11.583  0.0000E+00  0.0000E+00  0.2400E+02  0.2400E+02
    -11.366  0.0000E+00  0.0000E+00  0.2400E+02  0.2400E+02
    -11.148  0.0000E+00  0.0000E+00  0.2400E+02  0.2400E+02
    -10.931  0.0000E+00  0.0000E+00  0.2400E+02  0.2400E+02
    -10.713  0.0000E+00  0.0000E+00  0.2400E+02  0.2400E+02
    -10.496  0.0000E+00  0.0000E+00  0.2400E+02  0.2400E+02
    -10.278  0.0000E+00  0.0000E+00  0.2400E+02  0.2400E+02
    -10.061  0.1044E+01  0.1044E+01  0.2410E+02  0.2410E+02
     -9.843  0.2043E+01  0.2043E+01  0.2438E+02  0.2438E+02
     -9.626  0.2457E+01  0.2457E+01  0.2478E+02  0.2478E+02
     -9.408  0.2412E+01  0.2412E+01  0.2525E+02  0.2525E+02
     -9.191  0.2727E+01  0.2727E+01  0.2576E+02  0.2576E+02
     -8.973  0.3345E+01  0.3345E+01  0.2636E+02  0.2636E+02
     -8.756  0.4438E+01  0.4438E+01  0.2719E+02  0.2719E+02
     -8.538  0.7762E+01  0.7762E+01  0.2816E+02  0.2816E+02
     -8.321  0.8803E+01  0.8803E+01  0.2960E+02  0.2960E+02
     -8.103  0.8625E+01  0.8625E+01  0.3087E+02  0.3087E+02
     -7.886  0.4579E+01  0.4579E+01  0.3191E+02  0.3191E+02
     -7.668  0.9384E-01  0.9384E-01  0.3200E+02  0.3200E+02
     -7.451  0.0000E+00  0.0000E+00  0.3200E+02  0.3200E+02
     -7.233  0.0000E+00  0.0000E+00  0.3200E+02  0.3200E+02
     -7.016  0.0000E+00  0.0000E+00  0.3200E+02  0.3200E+02
     -6.798  0.0000E+00  0.0000E+00  0.3200E+02  0.3200E+02
     -6.581  0.0000E+00  0.0000E+00  0.3200E+02  0.3200E+02
     -6.364  0.0000E+00  0.0000E+00  0.3200E+02  0.3200E+02
     -6.146  0.0000E+00  0.0000E+00  0.3200E+02  0.3200E+02
     -5.929  0.0000E+00  0.0000E+00  0.3200E+02  0.3200E+02
     -5.711  0.0000E+00  0.0000E+00  0.3200E+02  0.3200E+02
     -5.494  0.0000E+00  0.0000E+00  0.3200E+02  0.3200E+02
     -5.276  0.0000E+00  0.0000E+00  0.3200E+02  0.3200E+02
     -5.059  0.0000E+00  0.0000E+00  0.3200E+02  0.3200E+02
     -4.841  0.0000E+00  0.0000E+00  0.3200E+02  0.3200E+02
     -4.624  0.0000E+00  0.0000E+00  0.3200E+02  0.3200E+02
     -4.406  0.0000E+00  0.0000E+00  0.3200E+02  0.3200E+02
     -4.189  0.0000E+00  0.0000E+00  0.3200E+02  0.3200E+02
     -3.971  0.0000E+00  0.0000E+00  0.3200E+02  0.3200E+02
     -3.754  0.0000E+00  0.0000E+00  0.3200E+02  0.3200E+02
     -3.536  0.0000E+00  0.0000E+00  0.3200E+02  0.3200E+02
     -3.319  0.0000E+00  0.0000E+00  0.3200E+02  0.3200E+02
     -3.101  0.0000E+00  0.0000E+00  0.3200E+02  0.3200E+02
     -2.884  0.0000E+00  0.0000E+00  0.3200E+02  0.3200E+02
     -2.666  0.0000E+00  0.0000E+00  0.3200E+02  0.3200E+02
     -2.449  0.0000E+00  0.0000E+00  0.3200E+02  0.3200E+02
     -2.231  0.0000E+00  0.0000E+00  0.3200E+02  0.3200E+02
     -2.014  0.0000E+00  0.0000E+00  0.3200E+02  0.3200E+02
     -1.796  0.9243E-02  0.9243E-02  0.3200E+02  0.3200E+02
     -1.579  0.1759E+01  0.1759E+01  0.3212E+02  0.3212E+02
     -1.361  0.5078E+01  0.5078E+01  0.3276E+02  0.3276E+02
     -1.144  0.7652E+01  0.7652E+01  0.3404E+02  0.3404E+02
     -0.927  0.8244E+01  0.8244E+01  0.3551E+02  0.3551E+02
     -0.709  0.6466E+01  0.6466E+01  0.3682E+02  0.3682E+02
     -0.492  0.6222E+01  0.6222E+01  0.3813E+02  0.3813E+02
     -0.274  0.3747E+01  0.3747E+01  0.3884E+02  0.3884E+02
     -0.057  0.4260E+01  0.4260E+01  0.3955E+02  0.3955E+02
      0.161  0.5693E+01  0.5693E+01  0.4052E+02  0.4052E+02
      0.378  0.5013E+01  0.5013E+01  0.4157E+02  0.4157E+02
      0.596  0.9115E+01  0.9115E+01  0.4281E+02  0.4281E+02
      0.813  0.1167E+02  0.1167E+02  0.4460E+02  0.4460E+02
      1.031  0.1365E+02  0.1365E+02  0.4683E+02  0.4683E+02
      1.248  0.1390E+02  0.1390E+02  0.4906E+02  0.4906E+02
      1.466  0.1418E+02  0.1418E+02  0.5140E+02  0.5140E+02
      1.683  0.1168E+02  0.1168E+02  0.5314E+02  0.5314E+02
      1.901  0.9881E+01  0.9881E+01  0.5473E+02  0.5473E+02
      2.118  0.1817E+02  0.1817E+02  0.5655E+02  0.5655E+02
      2.336  0.1775E+02  0.1775E+02  0.5911E+02  0.5911E+02
      2.553  0.1959E+02  0.1959E+02  0.6136E+02  0.6136E+02
      2.771  0.2191E+02  0.2191E+02  0.6450E+02  0.6450E+02
      2.988  0.2013E+02  0.2013E+02  0.6751E+02  0.6751E+02
      3.206  0.2336E+02  0.2336E+02  0.7024E+02  0.7024E+02
      3.423  0.8396E+01  0.8396E+01  0.7181E+02  0.7181E+02
      3.641  0.1073E+02  0.1073E+02  0.7334E+02  0.7334E+02
      3.858  0.8845E+01  0.8845E+01  0.7479E+02  0.7479E+02
      4.076  0.4935E+01  0.4935E+01  0.7592E+02  0.7592E+02
      4.293  0.7490E+01  0.7490E+01  0.7696E+02  0.7696E+02
      4.510  0.9814E+01  0.9814E+01  0.7861E+02  0.7861E+02
      4.728  0.1221E+02  0.1221E+02  0.8024E+02  0.8024E+02
      4.945  0.1275E+02  0.1275E+02  0.8167E+02  0.8167E+02
      5.163  0.2175E+02  0.2175E+02  0.8446E+02  0.8446E+02
      5.380  0.1569E+02  0.1569E+02  0.8671E+02  0.8671E+02
      5.598  0.1197E+02  0.1197E+02  0.8860E+02  0.8860E+02
      5.815  0.1084E+02  0.1084E+02  0.9055E+02  0.9055E+02
      6.033  0.1277E+02  0.1277E+02  0.9227E+02  0.9227E+02
      6.250  0.9820E+01  0.9818E+01  0.9441E+02  0.9441E+02
      6.468  0.1675E+01  0.1675E+01  0.9497E+02  0.9497E+02
      6.685  0.1360E+01  0.1359E+01  0.9525E+02  0.9525E+02
      6.903  0.1784E+01  0.1782E+01  0.9559E+02  0.9559E+02
      7.120  0.1280E+01  0.1280E+01  0.9593E+02  0.9593E+02
      7.338  0.7043E+00  0.6940E+00  0.9612E+02  0.9612E+02
      7.555  0.7476E+00  0.7572E+00  0.9627E+02  0.9627E+02
      7.773  0.1143E+01  0.1139E+01  0.9647E+02  0.9647E+02
      7.990  0.1691E+01  0.1701E+01  0.9681E+02  0.9681E+02
      8.208  0.2346E+01  0.2358E+01  0.9722E+02  0.9723E+02
      8.425  0.3771E+01  0.3632E+01  0.9784E+02  0.9784E+02
      8.643  0.4510E+01  0.4292E+01  0.9870E+02  0.9869E+02
      8.860  0.2754E+01  0.2995E+01  0.9949E+02  0.9948E+02
      9.078  0.1192E+01  0.1108E+01  0.9986E+02  0.9984E+02
      9.295  0.2770E+00  0.4747E+00  0.1000E+03  0.9998E+02
      9.513  0.0000E+00  0.0000E+00  0.1000E+03  0.1000E+03
      9.730  0.0000E+00  0.0000E+00  0.1000E+03  0.1000E+03
      9.948  0.0000E+00  0.0000E+00  0.1000E+03  0.1000E+03
     10.165  0.0000E+00  0.0000E+00  0.1000E+03  0.1000E+03
     10.382  0.0000E+00  0.0000E+00  0.1000E+03  0.1000E+03
     10.600  0.0000E+00  0.0000E+00  0.1000E+03  0.1000E+03
     10.817  0.0000E+00  0.0000E+00  0.1000E+03  0.1000E+03
     11.035  0.0000E+00  0.0000E+00  0.1000E+03  0.1000E+03
     11.252  0.0000E+00  0.0000E+00  0.1000E+03  0.1000E+03
     11.470  0.0000E+00  0.0000E+00  0.1000E+03  0.1000E+03
     11.687  0.0000E+00  0.0000E+00  0.1000E+03  0.1000E+03
     11.905  0.0000E+00  0.0000E+00  0.1000E+03  0.1000E+03
     12.122  0.0000E+00  0.0000E+00  0.1000E+03  0.1000E+03
     12.340  0.0000E+00  0.0000E+00  0.1000E+03  0.1000E+03
     12.33979333    -52.90436383  301      4.70441013      1.00000000
    -52.904  0.0000E+00  0.0000E+00  0.0000E+00  0.0000E+00  0.0000E+00  0.0000E+00  0.0000E+00  0.0000E+00  0.0000E+00  0.0000E+00  0.0000E+00  0.0000E+00  0.0000E+00  0.0000E+00  0.0000E+00  0.0000E+00  0.0000E+00  0.0000E+00
    -52.687  0.0000E+00  0.0000E+00  0.0000E+00  0.0000E+00  0.0000E+00  0.0000E+00  0.0000E+00  0.0000E+00  0.0000E+00  0.0000E+00  0.0000E+00  0.0000E+00  0.0000E+00  0.0000E+00  0.0000E+00  0.0000E+00  0.0000E+00  0.0000E+00
    -52.469  0.0000E+00  0.0000E+00  0.0000E+00  0.0000E+00  0.0000E+00  0.0000E+00  0.0000E+00  0.0000E+00  0.0000E+00  0.0000E+00  0.0000E+00  0.0000E+00  0.0000E+00  0.0000E+00  0.0000E+00  0.0000E+00  0.0000E+00  0.0000E+00
    -52.252  0.0000E+00  0.0000E+00  0.0000E+00  0.0000E+00  0.0000E+00  0.0000E+00  0.0000E+00  0.0000E+00  0.0000E+00  0.0000E+00  0.0000E+00  0.0000E+00  0.0000E+00  0.0000E+00  0.0000E+00  0.0000E+00  0.0000E+00  0.0000E+00
    -52.034  0.0000E+00  0.0000E+00  0.0000E+00  0.0000E+00  0.0000E+00  0.0000E+00  0.0000E+00  0.0000E+00  0.0000E+00  0.0000E+00  0.0000E+00  0.0000E+00  0.0000E+00  0.0000E+00  0.0000E+00  0.0000E+00  0.0000E+00  0.0000E+00
    -51.817  0.0000E+00  0.0000E+00  0.0000E+00  0.0000E+00  0.0000E+00  0.0000E+00  0.0000E+00  0.0000E+00  0.0000E+00  0.0000E+00  0.0000E+00  0.0000E+00  0.0000E+00  0.0000E+00  0.0000E+00  0.0000E+00  0.0000E+00  0.0000E+00
    -51.599  0.0000E+00  0.0000E+00  0.0000E+00  0.0000E+00  0.0000E+00  0.0000E+00  0.0000E+00  0.0000E+00  0.0000E+00  0.0000E+00  0.0000E+00  0.0000E+00  0.0000E+00  0.0000E+00  0.0000E+00  0.0000E+00  0.0000E+00  0.0000E+00
    -51.382  0.0000E+00  0.0000E+00  0.0000E+00  0.0000E+00  0.0000E+00  0.0000E+00  0.0000E+00  0.0000E+00  0.0000E+00  0.0000E+00  0.0000E+00  0.0000E+00  0.0000E+00  0.0000E+00  0.0000E+00  0.0000E+00  0.0000E+00  0.0000E+00
    -51.165  0.0000E+00  0.0000E+00  0.0000E+00  0.0000E+00  0.0000E+00  0.0000E+00  0.0000E+00  0.0000E+00  0.0000E+00  0.0000E+00  0.0000E+00  0.0000E+00  0.0000E+00  0.0000E+00  0.0000E+00  0.0000E+00  0.0000E+00  0.0000E+00
    -50.947  0.0000E+00  0.0000E+00  0.0000E+00  0.0000E+00  0.0000E+00  0.0000E+00  0.0000E+00  0.0000E+00  0.0000E+00  0.0000E+00  0.0000E+00  0.0000E+00  0.0000E+00  0.0000E+00  0.0000E+00  0.0000E+00  0.0000E+00  0.0000E+00
    -50.730  0.0000E+00  0.0000E+00  0.0000E+00  0.0000E+00  0.0000E+00  0.0000E+00  0.0000E+00  0.0000E+00  0.0000E+00  0.0000E+00  0.0000E+00  0.0000E+00  0.0000E+00  0.0000E+00  0.0000E+00  0.0000E+00  0.0000E+00  0.0000E+00
    -50.512  0.0000E+00  0.0000E+00  0.0000E+00  0.0000E+00  0.0000E+00  0.0000E+00  0.0000E+00  0.0000E+00  0.0000E+00  0.0000E+00  0.0000E+00  0.0000E+00  0.0000E+00  0.0000E+00  0.0000E+00  0.0000E+00  0.0000E+00  0.0000E+00
    -50.295  0.0000E+00  0.0000E+00  0.0000E+00  0.0000E+00  0.0000E+00  0.0000E+00  0.0000E+00  0.0000E+00  0.0000E+00  0.0000E+00  0.0000E+00  0.0000E+00  0.0000E+00  0.0000E+00  0.0000E+00  0.0000E+00  0.0000E+00  0.0000E+00
    -50.077  0.0000E+00  0.0000E+00  0.0000E+00  0.0000E+00  0.0000E+00  0.0000E+00  0.0000E+00  0.0000E+00  0.0000E+00  0.0000E+00  0.0000E+00  0.0000E+00  0.0000E+00  0.0000E+00  0.0000E+00  0.0000E+00  0.0000E+00  0.0000E+00
    -49.860  0.5707E-04  0.2682E-05  0.9114E+00  0.1561E-03  0.3667E+01  0.1410E-04  0.5347E+01  0.1132E-04  0.2339E-05  0.7446E-06  0.7085E-09  0.6496E-06  0.2649E-04  0.8451E-06  0.9627E-05  0.8679E-09  0.7952E-04  0.3068E-05
    -49.642  0.2360E-03  0.8612E-05  0.3668E+01  0.5640E-03  0.9127E+00  0.1423E-05  0.3275E+01  0.5207E-05  0.9726E-05  0.3626E-06  0.1174E-08  0.1804E-07  0.1095E-03  0.3445E-05  0.2327E-05  0.3241E-09  0.3286E-03  0.1084E-04
    -49.425  0.7387E-04  0.4823E-08  0.1558E-08  0.1684E-06  0.5562E-10  0.1826E-08  0.1967E+01  0.1753E-05  0.1831E-10  0.1347E-06  0.3681E-09  0.1476E-09  0.3427E-04  0.1738E-08  0.6879E-11  0.1723E-09  0.1028E-03  0.1462E-09
    -49.207  0.0000E+00  0.0000E+00  0.0000E+00  0.0000E+00  0.0000E+00  0.0000E+00  0.0000E+00  0.0000E+00  0.0000E+00  0.0000E+00  0.0000E+00  0.0000E+00  0.0000E+00  0.0000E+00  0.0000E+00  0.0000E+00  0.0000E+00  0.0000E+00
    -48.990  0.0000E+00  0.0000E+00  0.0000E+00  0.0000E+00  0.0000E+00  0.0000E+00  0.0000E+00  0.0000E+00  0.0000E+00  0.0000E+00  0.0000E+00  0.0000E+00  0.0000E+00  0.0000E+00  0.0000E+00  0.0000E+00  0.0000E+00  0.0000E+00
    -48.772  0.0000E+00  0.0000E+00  0.0000E+00  0.0000E+00  0.0000E+00  0.0000E+00  0.0000E+00  0.0000E+00  0.0000E+00  0.0000E+00  0.0000E+00  0.0000E+00  0.0000E+00  0.0000E+00  0.0000E+00  0.0000E+00  0.0000E+00  0.0000E+00
    -48.555  0.0000E+00  0.0000E+00  0.0000E+00  0.0000E+00  0.0000E+00  0.0000E+00  0.0000E+00  0.0000E+00  0.0000E+00  0.0000E+00  0.0000E+00  0.0000E+00  0.0000E+00  0.0000E+00  0.0000E+00  0.0000E+00  0.0000E+00  0.0000E+00
    -48.337  0.0000E+00  0.0000E+00  0.0000E+00  0.0000E+00  0.0000E+00  0.0000E+00  0.0000E+00  0.0000E+00  0.0000E+00  0.0000E+00  0.0000E+00  0.0000E+00  0.0000E+00  0.0000E+00  0.0000E+00  0.0000E+00  0.0000E+00  0.0000E+00
    -48.120  0.0000E+00  0.0000E+00  0.0000E+00  0.0000E+00  0.0000E+00  0.0000E+00  0.0000E+00  0.0000E+00  0.0000E+00  0.0000E+00  0.0000E+00  0.0000E+00  0.0000E+00  0.0000E+00  0.0000E+00  0.0000E+00  0.0000E+00  0.0000E+00
    -47.902  0.0000E+00  0.0000E+00  0.0000E+00  0.0000E+00  0.0000E+00  0.0000E+00  0.0000E+00  0.0000E+00  0.0000E+00  0.0000E+00  0.0000E+00  0.0000E+00  0.0000E+00  0.0000E+00  0.0000E+00  0.0000E+00  0.0000E+00  0.0000E+00
    -47.685  0.0000E+00  0.0000E+00  0.0000E+00  0.0000E+00  0.0000E+00  0.0000E+00  0.0000E+00  0.0000E+00  0.0000E+00  0.0000E+00  0.0000E+00  0.0000E+00  0.0000E+00  0.0000E+00  0.0000E+00  0.0000E+00  0.0000E+00  0.0000E+00
    -47.467  0.0000E+00  0.0000E+00  0.0000E+00  0.0000E+00  0.0000E+00  0.0000E+00  0.0000E+00  0.0000E+00  0.0000E+00  0.0000E+00  0.0000E+00  0.0000E+00  0.0000E+00  0.0000E+00  0.0000E+00  0.0000E+00  0.0000E+00  0.0000E+00
    -47.250  0.7537E-05  0.1026E-03  0.4599E-03  0.2034E+01  0.7986E-05  0.2544E+01  0.9005E-05  0.3488E+01  0.6603E-06  0.6241E-05  0.8011E-06  0.2313E-08  0.2493E-05  0.4759E-04  0.7575E-09  0.7929E-05  0.8779E-05  0.1434E-03
    -47.032  0.1405E-07  0.2895E-03  0.6110E-06  0.9779E-08  0.4759E-10  0.2479E-07  0.5406E-05  0.3200E+01  0.4292E-06  0.1828E-10  0.5658E-10  0.4720E-08  0.4485E-08  0.1343E-03  0.2359E-09  0.1367E-10  0.4339E-08  0.4044E-03
    -46.815  0.7893E-05  0.5769E-04  0.3865E-03  0.2546E+01  0.2757E-05  0.2036E+01  0.1909E-05  0.1640E+01  0.1542E-06  0.7978E-05  0.1625E-06  0.1828E-08  0.3227E-05  0.2675E-04  0.2917E-09  0.6455E-05  0.9871E-05  0.8057E-04
    -46.597  0.0000E+00  0.0000E+00  0.0000E+00  0.0000E+00  0.0000E+00  0.0000E+00  0.0000E+00  0.0000E+00  0.0000E+00  0.0000E+00  0.0000E+00  0.0000E+00  0.0000E+00  0.0000E+00  0.0000E+00  0.0000E+00  0.0000E+00  0.0000E+00
    -46.380  0.0000E+00  0.0000E+00  0.0000E+00  0.0000E+00  0.0000E+00  0.0000E+00  0.0000E+00  0.0000E+00  0.0000E+00  0.0000E+00  0.0000E+00  0.0000E+00  0.0000E+00  0.0000E+00  0.0000E+00  0.0000E+00  0.0000E+00  0.0000E+00
    -46.162  0.0000E+00  0.0000E+00  0.0000E+00  0.0000E+00  0.0000E+00  0.0000E+00  0.0000E+00  0.0000E+00  0.0000E+00  0.0000E+00  0.0000E+00  0.0000E+00  0.0000E+00  0.0000E+00  0.0000E+00  0.0000E+00  0.0000E+00  0.0000E+00
    -45.945  0.0000E+00  0.0000E+00  0.0000E+00  0.0000E+00  0.0000E+00  0.0000E+00  0.0000E+00  0.0000E+00  0.0000E+00  0.0000E+00  0.0000E+00  0.0000E+00  0.0000E+00  0.0000E+00  0.0000E+00  0.0000E+00  0.0000E+00  0.0000E+00
    -45.728  0.0000E+00  0.0000E+00  0.0000E+00  0.0000E+00  0.0000E+00  0.0000E+00  0.0000E+00  0.0000E+00  0.0000E+00  0.0000E+00  0.0000E+00  0.0000E+00  0.0000E+00  0.0000E+00  0.0000E+00  0.0000E+00  0.0000E+00  0.0000E+00
    -45.510  0.0000E+00  0.0000E+00  0.0000E+00  0.0000E+00  0.0000E+00  0.0000E+00  0.0000E+00  0.0000E+00  0.0000E+00  0.0000E+00  0.0000E+00  0.0000E+00  0.0000E+00  0.0000E+00  0.0000E+00  0.0000E+00  0.0000E+00  0.0000E+00
    -45.293  0.0000E+00  0.0000E+00  0.0000E+00  0.0000E+00  0.0000E+00  0.0000E+00  0.0000E+00  0.0000E+00  0.0000E+00  0.0000E+00  0.0000E+00  0.0000E+00  0.0000E+00  0.0000E+00  0.0000E+00  0.0000E+00  0.0000E+00  0.0000E+00
    -45.075  0.0000E+00  0.0000E+00  0.0000E+00  0.0000E+00  0.0000E+00  0.0000E+00  0.0000E+00  0.0000E+00  0.0000E+00  0.0000E+00  0.0000E+00  0.0000E+00  0.0000E+00  0.0000E+00  0.0000E+00  0.0000E+00  0.0000E+00  0.0000E+00
    -44.858  0.0000E+00  0.0000E+00  0.0000E+00  0.0000E+00  0.0000E+00  0.0000E+00  0.0000E+00  0.0000E+00  0.0000E+00  0.0000E+00  0.0000E+00  0.0000E+00  0.0000E+00  0.0000E+00  0.0000E+00  0.0000E+00  0.0000E+00  0.0000E+00
    -44.640  0.0000E+00  0.0000E+00  0.0000E+00  0.0000E+00  0.0000E+00  0.0000E+00  0.0000E+00  0.0000E+00  0.0000E+00  0.0000E+00  0.0000E+00  0.0000E+00  0.0000E+00  0.0000E+00  0.0000E+00  0.0000E+00  0.0000E+00  0.0000E+00
    -44.423  0.0000E+00  0.0000E+00  0.0000E+00  0.0000E+00  0.0000E+00  0.0000E+00  0.0000E+00  0.0000E+00  0.0000E+00  0.0000E+00  0.0000E+00  0.0000E+00  0.0000E+00  0.0000E+00  0.0000E+00  0.0000E+00  0.0000E+00  0.0000E+00
    -44.205  0.0000E+00  0.0000E+00  0.0000E+00  0.0000E+00  0.0000E+00  0.0000E+00  0.0000E+00  0.0000E+00  0.0000E+00  0.0000E+00  0.0000E+00  0.0000E+00  0.0000E+00  0.0000E+00  0.0000E+00  0.0000E+00  0.0000E+00  0.0000E+00
    -43.988  0.0000E+00  0.0000E+00  0.0000E+00  0.0000E+00  0.0000E+00  0.0000E+00  0.0000E+00  0.0000E+00  0.0000E+00  0.0000E+00  0.0000E+00  0.0000E+00  0.0000E+00  0.0000E+00  0.0000E+00  0.0000E+00  0.0000E+00  0.0000E+00
    -43.770  0.0000E+00  0.0000E+00  0.0000E+00  0.0000E+00  0.0000E+00  0.0000E+00  0.0000E+00  0.0000E+00  0.0000E+00  0.0000E+00  0.0000E+00  0.0000E+00  0.0000E+00  0.0000E+00  0.0000E+00  0.0000E+00  0.0000E+00  0.0000E+00
    -43.553  0.0000E+00  0.0000E+00  0.0000E+00  0.0000E+00  0.0000E+00  0.0000E+00  0.0000E+00  0.0000E+00  0.0000E+00  0.0000E+00  0.0000E+00  0.0000E+00  0.0000E+00  0.0000E+00  0.0000E+00  0.0000E+00  0.0000E+00  0.0000E+00
    -43.335  0.0000E+00  0.0000E+00  0.0000E+00  0.0000E+00  0.0000E+00  0.0000E+00  0.0000E+00  0.0000E+00  0.0000E+00  0.0000E+00  0.0000E+00  0.0000E+00  0.0000E+00  0.0000E+00  0.0000E+00  0.0000E+00  0.0000E+00  0.0000E+00
    -43.118  0.0000E+00  0.0000E+00  0.0000E+00  0.0000E+00  0.0000E+00  0.0000E+00  0.0000E+00  0.0000E+00  0.0000E+00  0.0000E+00  0.0000E+00  0.0000E+00  0.0000E+00  0.0000E+00  0.0000E+00  0.0000E+00  0.0000E+00  0.0000E+00
    -42.900  0.0000E+00  0.0000E+00  0.0000E+00  0.0000E+00  0.0000E+00  0.0000E+00  0.0000E+00  0.0000E+00  0.0000E+00  0.0000E+00  0.0000E+00  0.0000E+00  0.0000E+00  0.0000E+00  0.0000E+00  0.0000E+00  0.0000E+00  0.0000E+00
    -42.683  0.0000E+00  0.0000E+00  0.0000E+00  0.0000E+00  0.0000E+00  0.0000E+00  0.0000E+00  0.0000E+00  0.0000E+00  0.0000E+00  0.0000E+00  0.0000E+00  0.0000E+00  0.0000E+00  0.0000E+00  0.0000E+00  0.0000E+00  0.0000E+00
    -42.465  0.0000E+00  0.0000E+00  0.0000E+00  0.0000E+00  0.0000E+00  0.0000E+00  0.0000E+00  0.0000E+00  0.0000E+00  0.0000E+00  0.0000E+00  0.0000E+00  0.0000E+00  0.0000E+00  0.0000E+00  0.0000E+00  0.0000E+00  0.0000E+00
    -42.248  0.0000E+00  0.0000E+00  0.0000E+00  0.0000E+00  0.0000E+00  0.0000E+00  0.0000E+00  0.0000E+00  0.0000E+00  0.0000E+00  0.0000E+00  0.0000E+00  0.0000E+00  0.0000E+00  0.0000E+00  0.0000E+00  0.0000E+00  0.0000E+00
    -42.030  0.0000E+00  0.0000E+00  0.0000E+00  0.0000E+00  0.0000E+00  0.0000E+00  0.0000E+00  0.0000E+00  0.0000E+00  0.0000E+00  0.0000E+00  0.0000E+00  0.0000E+00  0.0000E+00  0.0000E+00  0.0000E+00  0.0000E+00  0.0000E+00