  16  16   1   0
  0.1775000E+02  0.7257635E-09  0.7257635E-09  0.5448886E-09  0.5000000E-15
  1.000000000000000E-004
  CAR 
 unknown system                          
     12.34760420    -52.90458236  301      4.70317995      1.00000000
    -52.905  0.0000E+00  0.0000E+00  0.0000E+00  0.0000E+00
    -52.687  0.0000E+00  0.0000E+00  0.0000E+00  0.0000E+00
    -52.470  0.0000E+00  0.0000E+00  0.0000E+00  0.0000E+00
    -52.252  0.0000E+00  0.0000E+00  0.0000E+00  0.0000E+00
    -52.035  0.0000E+00  0.0000E+00  0.0000E+00  0.0000E+00
    -51.817  0.0000E+00  0.0000E+00  0.0000E+00  0.0000E+00
    -51.600  0.0000E+00  0.0000E+00  0.0000E+00  0.0000E+00
    -51.382  0.0000E+00  0.0000E+00  0.0000E+00  0.0000E+00
    -51.165  0.0000E+00  0.0000E+00  0.0000E+00  0.0000E+00
    -50.947  0.0000E+00  0.0000E+00  0.0000E+00  0.0000E+00
    -50.730  0.0000E+00  0.0000E+00  0.0000E+00  0.0000E+00
    -50.512  0.0000E+00  0.0000E+00  0.0000E+00  0.0000E+00
    -50.294  0.0000E+00  0.0000E+00  0.0000E+00  0.0000E+00
    -50.077  0.2687E-05  0.2687E-05  0.5845E-06  0.5845E-06
    -49.859  0.2058E+00  0.2058E+00  0.4476E-01  0.4476E-01
    -49.642  0.2730E+00  0.2730E+00  0.1041E+00  0.1041E+00
    -49.424  0.7792E-01  0.7792E-01  0.1211E+00  0.1211E+00
    -49.207  0.5562E-03  0.5562E-03  0.1212E+00  0.1212E+00
    -48.989  0.0000E+00  0.0000E+00  0.1212E+00  0.1212E+00
    -48.772  0.0000E+00  0.0000E+00  0.1212E+00  0.1212E+00
    -48.554  0.0000E+00  0.0000E+00  0.1212E+00  0.1212E+00
    -48.337  0.0000E+00  0.0000E+00  0.1212E+00  0.1212E+00
    -48.119  0.0000E+00  0.0000E+00  0.1212E+00  0.1212E+00
    -47.902  0.0000E+00  0.0000E+00  0.1212E+00  0.1212E+00
    -47.684  0.0000E+00  0.0000E+00  0.1212E+00  0.1212E+00
    -47.467  0.8048E-06  0.8048E-06  0.1212E+00  0.1212E+00
    -47.249  0.2146E+00  0.2146E+00  0.1679E+00  0.1679E+00
    -47.032  0.8149E-01  0.8149E-01  0.1856E+00  0.1856E+00
    -46.814  0.2599E+00  0.2599E+00  0.2421E+00  0.2421E+00
    -46.597  0.1279E-02  0.1279E-02  0.2424E+00  0.2424E+00
    -46.379  0.0000E+00  0.0000E+00  0.2424E+00  0.2424E+00
    -46.162  0.0000E+00  0.0000E+00  0.2424E+00  0.2424E+00
    -45.944  0.0000E+00  0.0000E+00  0.2424E+00  0.2424E+00
    -45.727  0.0000E+00  0.0000E+00  0.2424E+00  0.2424E+00
    -45.509  0.0000E+00  0.0000E+00  0.2424E+00  0.2424E+00
    -45.292  0.0000E+00  0.0000E+00  0.2424E+00  0.2424E+00
    -45.074  0.0000E+00  0.0000E+00  0.2424E+00  0.2424E+00
    -44.857  0.0000E+00  0.0000E+00  0.2424E+00  0.2424E+00
    -44.639  0.0000E+00  0.0000E+00  0.2424E+00  0.2424E+00
    -44.422  0.0000E+00  0.0000E+00  0.2424E+00  0.2424E+00
    -44.204  0.0000E+00  0.0000E+00  0.2424E+00  0.2424E+00
    -43.987  0.0000E+00  0.0000E+00  0.2424E+00  0.2424E+00
    -43.769  0.0000E+00  0.0000E+00  0.2424E+00  0.2424E+00
    -43.552  0.0000E+00  0.0000E+00  0.2424E+00  0.2424E+00
    -43.334  0.0000E+00  0.0000E+00  0.2424E+00  0.2424E+00
    -43.117  0.0000E+00  0.0000E+00  0.2424E+00  0.2424E+00
    -42.899  0.0000E+00  0.0000E+00  0.2424E+00  0.2424E+00
    -42.682  0.0000E+00  0.0000E+00  0.2424E+00  0.2424E+00
    -42.464  0.0000E+00  0.0000E+00  0.2424E+00  0.2424E+00
    -42.247  0.0000E+00  0.0000E+00  0.2424E+00  0.2424E+00
    -42.029  0.0000E+00  0.0000E+00  0.2424E+00  0.2424E+00
    -41.812  0.0000E+00  0.0000E+00  0.2424E+00  0.2424E+00
    -41.594  0.0000E+00  0.0000E+00  0.2424E+00  0.2424E+00
    -41.377  0.0000E+00  0.0000E+00  0.2424E+00  0.2424E+00
    -41.159  0.0000E+00  0.0000E+00  0.2424E+00  0.2424E+00
    -40.942  0.0000E+00  0.0000E+00  0.2424E+00  0.2424E+00
    -40.724  0.0000E+00  0.0000E+00  0.2424E+00  0.2424E+00
    -40.507  0.0000E+00  0.0000E+00  0.2424E+00  0.2424E+00
    -40.289  0.0000E+00  0.0000E+00  0.2424E+00  0.2424E+00
    -40.072  0.0000E+00  0.0000E+00  0.2424E+00  0.2424E+00
    -39.854  0.0000E+00  0.0000E+00  0.2424E+00  0.2424E+00
    -39.637  0.0000E+00  0.0000E+00  0.2424E+00  0.2424E+00
    -39.419  0.0000E+00  0.0000E+00  0.2424E+00  0.2424E+00
    -39.202  0.0000E+00  0.0000E+00  0.2424E+00  0.2424E+00
    -38.984  0.0000E+00  0.0000E+00  0.2424E+00  0.2424E+00
    -38.767  0.0000E+00  0.0000E+00  0.2424E+00  0.2424E+00
    -38.549  0.0000E+00  0.0000E+00  0.2424E+00  0.2424E+00
    -38.332  0.0000E+00  0.0000E+00  0.2424E+00  0.2424E+00
    -38.114  0.0000E+00  0.0000E+00  0.2424E+00  0.2424E+00
    -37.897  0.0000E+00  0.0000E+00  0.2424E+00  0.2424E+00
    -37.679  0.0000E+00  0.0000E+00  0.2424E+00  0.2424E+00
    -37.462  0.0000E+00  0.0000E+00  0.2424E+00  0.2424E+00
    -37.244  0.0000E+00  0.0000E+00  0.2424E+00  0.2424E+00
    -37.027  0.0000E+00  0.0000E+00  0.2424E+00  0.2424E+00
    -36.809  0.0000E+00  0.0000E+00  0.2424E+00  0.2424E+00
    -36.592  0.0000E+00  0.0000E+00  0.2424E+00  0.2424E+00
    -36.374  0.0000E+00  0.0000E+00  0.2424E+00  0.2424E+00
    -36.157  0.0000E+00  0.0000E+00  0.2424E+00  0.2424E+00
    -35.939  0.0000E+00  0.0000E+00  0.2424E+00  0.2424E+00
    -35.722  0.0000E+00  0.0000E+00  0.2424E+00  0.2424E+00
    -35.504  0.0000E+00  0.0000E+00  0.2424E+00  0.2424E+00
    -35.286  0.0000E+00  0.0000E+00  0.2424E+00  0.2424E+00
    -35.069  0.0000E+00  0.0000E+00  0.2424E+00  0.2424E+00
    -34.851  0.0000E+00  0.0000E+00  0.2424E+00  0.2424E+00
    -34.634  0.0000E+00  0.0000E+00  0.2424E+00  0.2424E+00
    -34.416  0.0000E+00  0.0000E+00  0.2424E+00  0.2424E+00
    -34.199  0.0000E+00  0.0000E+00  0.2424E+00  0.2424E+00
    -33.981  0.0000E+00  0.0000E+00  0.2424E+00  0.2424E+00
    -33.764  0.0000E+00  0.0000E+00  0.2424E+00  0.2424E+00
    -33.546  0.0000E+00  0.0000E+00  0.2424E+00  0.2424E+00
    -33.329  0.0000E+00  0.0000E+00  0.2424E+00  0.2424E+00
    -33.111  0.0000E+00  0.0000E+00  0.2424E+00  0.2424E+00
    -32.894  0.0000E+00  0.0000E+00  0.2424E+00  0.2424E+00
    -32.676  0.0000E+00  0.0000E+00  0.2424E+00  0.2424E+00
    -32.459  0.0000E+00  0.0000E+00  0.2424E+00  0.2424E+00
    -32.241  0.0000E+00  0.0000E+00  0.2424E+00  0.2424E+00
    -32.024  0.0000E+00  0.0000E+00  0.2424E+00  0.2424E+00
    -31.806  0.0000E+00  0.0000E+00  0.2424E+00  0.2424E+00
    -31.589  0.0000E+00  0.0000E+00  0.2424E+00  0.2424E+00
    -31.371  0.0000E+00  0.0000E+00  0.2424E+00  0.2424E+00
    -31.154  0.0000E+00  0.0000E+00  0.2424E+00  0.2424E+00
    -30.936  0.0000E+00  0.0000E+00  0.2424E+00  0.2424E+00
    -30.719  0.0000E+00  0.0000E+00  0.2424E+00  0.2424E+00
    -30.501  0.0000E+00  0.0000E+00  0.2424E+00  0.2424E+00
    -30.284  0.0000E+00  0.0000E+00  0.2424E+00  0.2424E+00
    -30.066  0.0000E+00  0.0000E+00  0.2424E+00  0.2424E+00
    -29.849  0.0000E+00  0.0000E+00  0.2424E+00  0.2424E+00
    -29.631  0.0000E+00  0.0000E+00  0.2424E+00  0.2424E+00
    -29.414  0.0000E+00  0.0000E+00  0.2424E+00  0.2424E+00
    -29.196  0.0000E+00  0.0000E+00  0.2424E+00  0.2424E+00
    -28.979  0.0000E+00  0.0000E+00  0.2424E+00  0.2424E+00
    -28.761  0.0000E+00  0.0000E+00  0.2424E+00  0.2424E+00
    -28.544  0.0000E+00  0.0000E+00  0.2424E+00  0.2424E+00
    -28.326  0.0000E+00  0.0000E+00  0.2424E+00  0.2424E+00
    -28.109  0.0000E+00  0.0000E+00  0.2424E+00  0.2424E+00
    -27.891  0.0000E+00  0.0000E+00  0.2424E+00  0.2424E+00
    -27.674  0.0000E+00  0.0000E+00  0.2424E+00  0.2424E+00
    -27.456  0.0000E+00  0.0000E+00  0.2424E+00  0.2424E+00
    -27.239  0.0000E+00  0.0000E+00  0.2424E+00  0.2424E+00
    -27.021  0.0000E+00  0.0000E+00  0.2424E+00  0.2424E+00
    -26.804  0.0000E+00  0.0000E+00  0.2424E+00  0.2424E+00
    -26.586  0.0000E+00  0.0000E+00  0.2424E+00  0.2424E+00
    -26.369  0.0000E+00  0.0000E+00  0.2424E+00  0.2424E+00
    -26.151  0.0000E+00  0.0000E+00  0.2424E+00  0.2424E+00
    -25.934  0.0000E+00  0.0000E+00  0.2424E+00  0.2424E+00
    -25.716  0.0000E+00  0.0000E+00  0.2424E+00  0.2424E+00
    -25.499  0.0000E+00  0.0000E+00  0.2424E+00  0.2424E+00
    -25.281  0.0000E+00  0.0000E+00  0.2424E+00  0.2424E+00
    -25.064  0.0000E+00  0.0000E+00  0.2424E+00  0.2424E+00
    -24.846  0.0000E+00  0.0000E+00  0.2424E+00  0.2424E+00
    -24.629  0.0000E+00  0.0000E+00  0.2424E+00  0.2424E+00
    -24.411  0.0000E+00  0.0000E+00  0.2424E+00  0.2424E+00
    -24.194  0.0000E+00  0.0000E+00  0.2424E+00  0.2424E+00
    -23.976  0.0000E+00  0.0000E+00  0.2424E+00  0.2424E+00
    -23.759  0.0000E+00  0.0000E+00  0.2424E+00  0.2424E+00
    -23.541  0.0000E+00  0.0000E+00  0.2424E+00  0.2424E+00
    -23.324  0.0000E+00  0.0000E+00  0.2424E+00  0.2424E+00
    -23.106  0.0000E+00  0.0000E+00  0.2424E+00  0.2424E+00
    -22.889  0.0000E+00  0.0000E+00  0.2424E+00  0.2424E+00
    -22.671  0.0000E+00  0.0000E+00  0.2424E+00  0.2424E+00
    -22.454  0.0000E+00  0.0000E+00  0.2424E+00  0.2424E+00
    -22.236  0.0000E+00  0.0000E+00  0.2424E+00  0.2424E+00
    -22.019  0.0000E+00  0.0000E+00  0.2424E+00  0.2424E+00
    -21.801  0.0000E+00  0.0000E+00  0.2424E+00  0.2424E+00
    -21.584  0.0000E+00  0.0000E+00  0.2424E+00  0.2424E+00
    -21.366  0.0000E+00  0.0000E+00  0.2424E+00  0.2424E+00
    -21.149  0.0000E+00  0.0000E+00  0.2424E+00  0.2424E+00
    -20.931  0.0000E+00  0.0000E+00  0.2424E+00  0.2424E+00
    -20.714  0.0000E+00  0.0000E+00  0.2424E+00  0.2424E+00
    -20.496  0.0000E+00  0.0000E+00  0.2424E+00  0.2424E+00
    -20.278  0.0000E+00  0.0000E+00  0.2424E+00  0.2424E+00
    -20.061  0.0000E+00  0.0000E+00  0.2424E+00  0.2424E+00
    -19.843  0.0000E+00  0.0000E+00  0.2424E+00  0.2424E+00
    -19.626  0.0000E+00  0.0000E+00  0.2424E+00  0.2424E+00
    -19.408  0.0000E+00  0.0000E+00  0.2424E+00  0.2424E+00
    -19.191  0.0000E+00  0.0000E+00  0.2424E+00  0.2424E+00
    -18.973  0.0000E+00  0.0000E+00  0.2424E+00  0.2424E+00
    -18.756  0.0000E+00  0.0000E+00  0.2424E+00  0.2424E+00
    -18.538  0.0000E+00  0.0000E+00  0.2424E+00  0.2424E+00
    -18.321  0.0000E+00  0.0000E+00  0.2424E+00  0.2424E+00
    -18.103  0.0000E+00  0.0000E+00  0.2424E+00  0.2424E+00
    -17.886  0.0000E+00  0.0000E+00  0.2424E+00  0.2424E+00
    -17.668  0.0000E+00  0.0000E+00  0.2424E+00  0.2424E+00
    -17.451  0.0000E+00  0.0000E+00  0.2424E+00  0.2424E+00
    -17.233  0.0000E+00  0.0000E+00  0.2424E+00  0.2424E+00
    -17.016  0.0000E+00  0.0000E+00  0.2424E+00  0.2424E+00
    -16.798  0.0000E+00  0.0000E+00  0.2424E+00  0.2424E+00
    -16.581  0.0000E+00  0.0000E+00  0.2424E+00  0.2424E+00
    -16.363  0.0000E+00  0.0000E+00  0.2424E+00  0.2424E+00
    -16.146  0.0000E+00  0.0000E+00  0.2424E+00  0.2424E+00
    -15.928  0.0000E+00  0.0000E+00  0.2424E+00  0.2424E+00
    -15.711  0.0000E+00  0.0000E+00  0.2424E+00  0.2424E+00
    -15.493  0.0000E+00  0.0000E+00  0.2424E+00  0.2424E+00
    -15.276  0.0000E+00  0.0000E+00  0.2424E+00  0.2424E+00
    -15.058  0.0000E+00  0.0000E+00  0.2424E+00  0.2424E+00
    -14.841  0.0000E+00  0.0000E+00  0.2424E+00  0.2424E+00
    -14.623  0.0000E+00  0.0000E+00  0.2424E+00  0.2424E+00
    -14.406  0.0000E+00  0.0000E+00  0.2424E+00  0.2424E+00
    -14.188  0.0000E+00  0.0000E+00  0.2424E+00  0.2424E+00
    -13.971  0.0000E+00  0.0000E+00  0.2424E+00  0.2424E+00
    -13.753  0.0000E+00  0.0000E+00  0.2424E+00  0.2424E+00
    -13.536  0.0000E+00  0.0000E+00  0.2424E+00  0.2424E+00
    -13.318  0.0000E+00  0.0000E+00  0.2424E+00  0.2424E+00
    -13.101  0.0000E+00  0.0000E+00  0.2424E+00  0.2424E+00
    -12.883  0.0000E+00  0.0000E+00  0.2424E+00  0.2424E+00
    -12.666  0.0000E+00  0.0000E+00  0.2424E+00  0.2424E+00
    -12.448  0.0000E+00  0.0000E+00  0.2424E+00  0.2424E+00
    -12.231  0.0000E+00  0.0000E+00  0.2424E+00  0.2424E+00
    -12.013  0.0000E+00  0.0000E+00  0.2424E+00  0.2424E+00
    -11.796  0.0000E+00  0.0000E+00  0.2424E+00  0.2424E+00
    -11.578  0.0000E+00  0.0000E+00  0.2424E+00  0.2424E+00
    -11.361  0.0000E+00  0.0000E+00  0.2424E+00  0.2424E+00
    -11.143  0.0000E+00  0.0000E+00  0.2424E+00  0.2424E+00
    -10.926  0.0000E+00  0.0000E+00  0.2424E+00  0.2424E+00
    -10.708  0.0000E+00  0.0000E+00  0.2424E+00  0.2424E+00
    -10.491  0.1948E-15  0.1948E-15  0.2424E+00  0.2424E+00
    -10.273  0.4449E-04  0.4449E-04  0.2424E+00  0.2424E+00
    -10.056  0.5307E-02  0.5307E-02  0.2436E+00  0.2436E+00
     -9.838  0.1286E-01  0.1286E-01  0.2464E+00  0.2464E+00
     -9.621  0.1940E-01  0.1940E-01  0.2506E+00  0.2506E+00
     -9.403  0.2102E-01  0.2102E-01  0.2552E+00  0.2552E+00
     -9.186  0.2467E-01  0.2467E-01  0.2605E+00  0.2605E+00
     -8.968  0.2751E-01  0.2751E-01  0.2665E+00  0.2665E+00
     -8.751  0.3316E-01  0.3316E-01  0.2737E+00  0.2737E+00
     -8.533  0.5349E-01  0.5349E-01  0.2854E+00  0.2854E+00
     -8.316  0.6274E-01  0.6274E-01  0.2990E+00  0.2990E+00
     -8.098  0.5898E-01  0.5898E-01  0.3118E+00  0.3118E+00
     -7.881  0.4657E-01  0.4657E-01  0.3220E+00  0.3220E+00
     -7.663  0.5775E-02  0.5775E-02  0.3232E+00  0.3232E+00
     -7.446  0.1123E-06  0.1123E-06  0.3232E+00  0.3232E+00
     -7.228  0.0000E+00  0.0000E+00  0.3232E+00  0.3232E+00
     -7.011  0.0000E+00  0.0000E+00  0.3232E+00  0.3232E+00
     -6.793  0.0000E+00  0.0000E+00  0.3232E+00  0.3232E+00
     -6.576  0.0000E+00  0.0000E+00  0.3232E+00  0.3232E+00
     -6.358  0.0000E+00  0.0000E+00  0.3232E+00  0.3232E+00
     -6.141  0.0000E+00  0.0000E+00  0.3232E+00  0.3232E+00
     -5.923  0.0000E+00  0.0000E+00  0.3232E+00  0.3232E+00
     -5.706  0.0000E+00  0.0000E+00  0.3232E+00  0.3232E+00
     -5.488  0.0000E+00  0.0000E+00  0.3232E+00  0.3232E+00
     -5.270  0.0000E+00  0.0000E+00  0.3232E+00  0.3232E+00
     -5.053  0.0000E+00  0.0000E+00  0.3232E+00  0.3232E+00
     -4.835  0.0000E+00  0.0000E+00  0.3232E+00  0.3232E+00
     -4.618  0.0000E+00  0.0000E+00  0.3232E+00  0.3232E+00
     -4.400  0.0000E+00  0.0000E+00  0.3232E+00  0.3232E+00
     -4.183  0.0000E+00  0.0000E+00  0.3232E+00  0.3232E+00
     -3.965  0.0000E+00  0.0000E+00  0.3232E+00  0.3232E+00
     -3.748  0.0000E+00  0.0000E+00  0.3232E+00  0.3232E+00
     -3.530  0.0000E+00  0.0000E+00  0.3232E+00  0.3232E+00
     -3.313  0.0000E+00  0.0000E+00  0.3232E+00  0.3232E+00
     -3.095  0.0000E+00  0.0000E+00  0.3232E+00  0.3232E+00
     -2.878  0.0000E+00  0.0000E+00  0.3232E+00  0.3232E+00
     -2.660  0.0000E+00  0.0000E+00  0.3232E+00  0.3232E+00
     -2.443  0.0000E+00  0.0000E+00  0.3232E+00  0.3232E+00
     -2.225  0.0000E+00  0.0000E+00  0.3232E+00  0.3232E+00
     -2.008  0.2330E-11  0.2330E-11  0.3232E+00  0.3232E+00
     -1.790  0.1814E-03  0.1814E-03  0.3233E+00  0.3233E+00
     -1.573  0.8307E-02  0.8307E-02  0.3251E+00  0.3251E+00
     -1.355  0.2880E-01  0.2880E-01  0.3313E+00  0.3313E+00
     -1.138  0.5995E-01  0.5995E-01  0.3444E+00  0.3444E+00
     -0.920  0.6876E-01  0.6876E-01  0.3593E+00  0.3593E+00
     -0.703  0.5931E-01  0.5931E-01  0.3722E+00  0.3722E+00
     -0.485  0.5743E-01  0.5743E-01  0.3847E+00  0.3847E+00
     -0.268  0.3504E-01  0.3504E-01  0.3924E+00  0.3924E+00
     -0.050  0.3500E-01  0.3500E-01  0.4000E+00  0.4000E+00
      0.167  0.4678E-01  0.4678E-01  0.4101E+00  0.4101E+00
      0.385  0.4740E-01  0.4740E-01  0.4204E+00  0.4204E+00
      0.602  0.5515E-01  0.5515E-01  0.4324E+00  0.4324E+00
      0.820  0.8605E-01  0.8605E-01  0.4512E+00  0.4512E+00
      1.037  0.1031E+00  0.1031E+00  0.4736E+00  0.4736E+00
      1.255  0.1048E+00  0.1048E+00  0.4964E+00  0.4964E+00
      1.472  0.1078E+00  0.1078E+00  0.5198E+00  0.5198E+00
      1.690  0.8014E-01  0.8014E-01  0.5373E+00  0.5373E+00
      1.907  0.7454E-01  0.7454E-01  0.5535E+00  0.5535E+00
      2.125  0.8801E-01  0.8801E-01  0.5726E+00  0.5726E+00
      2.342  0.1155E+00  0.1155E+00  0.5977E+00  0.5977E+00
      2.560  0.1086E+00  0.1086E+00  0.6213E+00  0.6213E+00
      2.777  0.1449E+00  0.1449E+00  0.6528E+00  0.6528E+00
      2.995  0.1383E+00  0.1383E+00  0.6829E+00  0.6829E+00
      3.212  0.1268E+00  0.1268E+00  0.7105E+00  0.7105E+00
      3.430  0.6889E-01  0.6889E-01  0.7255E+00  0.7255E+00
      3.647  0.7180E-01  0.7180E-01  0.7411E+00  0.7411E+00
      3.865  0.6959E-01  0.6959E-01  0.7562E+00  0.7562E+00
      4.082  0.4971E-01  0.4971E-01  0.7671E+00  0.7671E+00
      4.300  0.4978E-01  0.4978E-01  0.7779E+00  0.7779E+00
      4.517  0.7590E-01  0.7590E-01  0.7944E+00  0.7944E+00
      4.735  0.7661E-01  0.7661E-01  0.8111E+00  0.8111E+00
      4.952  0.6958E-01  0.6957E-01  0.8262E+00  0.8262E+00
      5.170  0.1278E+00  0.1278E+00  0.8540E+00  0.8540E+00
      5.387  0.1047E+00  0.1048E+00  0.8768E+00  0.8768E+00
      5.605  0.8654E-01  0.8652E-01  0.8956E+00  0.8956E+00
      5.822  0.9065E-01  0.9067E-01  0.9153E+00  0.9153E+00
      6.040  0.8094E-01  0.8093E-01  0.9329E+00  0.9329E+00
      6.257  0.9543E-01  0.9542E-01  0.9537E+00  0.9537E+00
      6.475  0.2514E-01  0.2518E-01  0.9591E+00  0.9591E+00
      6.692  0.1485E-01  0.1490E-01  0.9624E+00  0.9624E+00
      6.910  0.1455E-01  0.1449E-01  0.9655E+00  0.9655E+00
      7.127  0.1513E-01  0.1500E-01  0.9688E+00  0.9688E+00
      7.345  0.9696E-02  0.9828E-02  0.9709E+00  0.9709E+00
      7.562  0.7421E-02  0.7326E-02  0.9725E+00  0.9725E+00
      7.780  0.1140E-01  0.1130E-01  0.9750E+00  0.9750E+00
      7.997  0.1421E-01  0.1428E-01  0.9781E+00  0.9781E+00
      8.215  0.1876E-01  0.1899E-01  0.9822E+00  0.9822E+00
      8.432  0.2991E-01  0.2882E-01  0.9887E+00  0.9885E+00
      8.650  0.3506E-01  0.3557E-01  0.9963E+00  0.9962E+00
      8.867  0.3722E-01  0.3765E-01  0.1004E+01  0.1004E+01
      9.085  0.1694E-01  0.1623E-01  0.1008E+01  0.1008E+01
      9.303  0.8396E-02  0.8028E-02  0.1010E+01  0.1010E+01
      9.520  0.8050E-03  0.1901E-02  0.1010E+01  0.1010E+01
      9.738  0.1150E-08  0.3809E-07  0.1010E+01  0.1010E+01
      9.955  0.0000E+00  0.0000E+00  0.1010E+01  0.1010E+01
     10.173  0.0000E+00  0.0000E+00  0.1010E+01  0.1010E+01
     10.390  0.0000E+00  0.0000E+00  0.1010E+01  0.1010E+01
     10.608  0.0000E+00  0.0000E+00  0.1010E+01  0.1010E+01
     10.825  0.0000E+00  0.0000E+00  0.1010E+01  0.1010E+01
     11.043  0.0000E+00  0.0000E+00  0.1010E+01  0.1010E+01
     11.260  0.0000E+00  0.0000E+00  0.1010E+01  0.1010E+01
     11.478  0.0000E+00  0.0000E+00  0.1010E+01  0.1010E+01
     11.695  0.0000E+00  0.0000E+00  0.1010E+01  0.1010E+01
     11.913  0.0000E+00  0.0000E+00  0.1010E+01  0.1010E+01
     12.130  0.0000E+00  0.0000E+00  0.1010E+01  0.1010E+01
     12.348  0.0000E+00  0.0000E+00  0.1010E+01  0.1010E+01
     12.34760420    -52.90458236  301      4.70317995      1.00000000
    -52.905  0.0000E+00  0.0000E+00  0.0000E+00  0.0000E+00  0.0000E+00  0.0000E+00  0.0000E+00  0.0000E+00  0.0000E+00  0.0000E+00  0.0000E+00  0.0000E+00  0.0000E+00  0.0000E+00  0.0000E+00  0.0000E+00  0.0000E+00  0.0000E+00
    -52.687  0.0000E+00  0.0000E+00  0.0000E+00  0.0000E+00  0.0000E+00  0.0000E+00  0.0000E+00  0.0000E+00  0.0000E+00  0.0000E+00  0.0000E+00  0.0000E+00  0.0000E+00  0.0000E+00  0.0000E+00  0.0000E+00  0.0000E+00  0.0000E+00
    -52.470  0.0000E+00  0.0000E+00  0.0000E+00  0.0000E+00  0.0000E+00  0.0000E+00  0.0000E+00  0.0000E+00  0.0000E+00  0.0000E+00  0.0000E+00  0.0000E+00  0.0000E+00  0.0000E+00  0.0000E+00  0.0000E+00  0.0000E+00  0.0000E+00
    -52.252  0.0000E+00  0.0000E+00  0.0000E+00  0.0000E+00  0.0000E+00  0.0000E+00  0.0000E+00  0.0000E+00  0.0000E+00  0.0000E+00  0.0000E+00  0.0000E+00  0.0000E+00  0.0000E+00  0.0000E+00  0.0000E+00  0.0000E+00  0.0000E+00
    -52.035  0.0000E+00  0.0000E+00  0.0000E+00  0.0000E+00  0.0000E+00  0.0000E+00  0.0000E+00  0.0000E+00  0.0000E+00  0.0000E+00  0.0000E+00  0.0000E+00  0.0000E+00  0.0000E+00  0.0000E+00  0.0000E+00  0.0000E+00  0.0000E+00
    -51.817  0.0000E+00  0.0000E+00  0.0000E+00  0.0000E+00  0.0000E+00  0.0000E+00  0.0000E+00  0.0000E+00  0.0000E+00  0.0000E+00  0.0000E+00  0.0000E+00  0.0000E+00  0.0000E+00  0.0000E+00  0.0000E+00  0.0000E+00  0.0000E+00
    -51.600  0.0000E+00  0.0000E+00  0.0000E+00  0.0000E+00  0.0000E+00  0.0000E+00  0.0000E+00  0.0000E+00  0.0000E+00  0.0000E+00  0.0000E+00  0.0000E+00  0.0000E+00  0.0000E+00  0.0000E+00  0.0000E+00  0.0000E+00  0.0000E+00
    -51.382  0.0000E+00  0.0000E+00  0.0000E+00  0.0000E+00  0.0000E+00  0.0000E+00  0.0000E+00  0.0000E+00  0.0000E+00  0.0000E+00  0.0000E+00  0.0000E+00  0.0000E+00  0.0000E+00  0.0000E+00  0.0000E+00  0.0000E+00  0.0000E+00
    -51.165  0.0000E+00  0.0000E+00  0.0000E+00  0.0000E+00  0.0000E+00  0.0000E+00  0.0000E+00  0.0000E+00  0.0000E+00  0.0000E+00  0.0000E+00  0.0000E+00  0.0000E+00  0.0000E+00  0.0000E+00  0.0000E+00  0.0000E+00  0.0000E+00
    -50.947  0.0000E+00  0.0000E+00  0.0000E+00  0.0000E+00  0.0000E+00  0.0000E+00  0.0000E+00  0.0000E+00  0.0000E+00  0.0000E+00  0.0000E+00  0.0000E+00  0.0000E+00  0.0000E+00  0.0000E+00  0.0000E+00  0.0000E+00  0.0000E+00
    -50.730  0.0000E+00  0.0000E+00  0.0000E+00  0.0000E+00  0.0000E+00  0.0000E+00  0.0000E+00  0.0000E+00  0.0000E+00  0.0000E+00  0.0000E+00  0.0000E+00  0.0000E+00  0.0000E+00  0.0000E+00  0.0000E+00  0.0000E+00  0.0000E+00
    -50.512  0.0000E+00  0.0000E+00  0.0000E+00  0.0000E+00  0.0000E+00  0.0000E+00  0.0000E+00  0.0000E+00  0.0000E+00  0.0000E+00  0.0000E+00  0.0000E+00  0.0000E+00  0.0000E+00  0.0000E+00  0.0000E+00  0.0000E+00  0.0000E+00
    -50.294  0.0000E+00  0.0000E+00  0.0000E+00  0.0000E+00  0.0000E+00  0.0000E+00  0.0000E+00  0.0000E+00  0.0000E+00  0.0000E+00  0.0000E+00  0.0000E+00  0.0000E+00  0.0000E+00  0.0000E+00  0.0000E+00  0.0000E+00  0.0000E+00
    -50.077  0.1429E-13  0.2315E-10  0.8002E-05  0.1363E-08  0.5821E-04  0.1982E-09  0.4795E-08  0.5582E-12  0.1692E-10  0.4714E-13  0.1044E-14  0.9969E-11  0.7888E-14  0.6770E-11  0.1076E-09  0.4981E-14  0.1971E-13  0.2781E-10
    -49.859  0.8338E-05  0.2274E-05  0.7645E+00  0.1331E-03  0.3673E+01  0.1317E-04  0.6333E+00  0.1375E-05  0.1957E-05  0.9218E-07  0.1226E-09  0.6341E-06  0.3872E-05  0.7070E-06  0.9659E-05  0.4873E-09  0.1162E-04  0.2582E-05
    -49.642  0.1213E-03  0.9008E-05  0.3813E+01  0.5863E-03  0.9063E+00  0.2234E-05  0.2009E+01  0.3654E-05  0.1010E-04  0.2519E-06  0.5992E-09  0.3596E-07  0.5630E-04  0.3581E-05  0.2299E-05  0.2129E-09  0.1689E-03  0.1133E-04
    -49.424  0.7218E-04  0.6487E-08  0.7861E-03  0.2777E-06  0.1116E-03  0.2122E-08  0.1924E+01  0.1713E-05  0.1587E-08  0.1323E-06  0.3550E-09  0.1502E-09  0.3350E-04  0.2398E-08  0.2539E-09  0.1626E-09  0.1005E-03  0.2527E-08
    -49.207  0.7821E-07  0.4677E-11  0.9773E-12  0.1906E-09  0.1342E-13  0.2054E-11  0.1375E-01  0.1019E-07  0.2902E-12  0.8084E-09  0.8085E-12  0.7075E-12  0.3627E-07  0.1463E-11  0.1016E-12  0.1354E-11  0.1087E-06  0.1383E-11
    -48.989  0.0000E+00  0.0000E+00  0.0000E+00  0.0000E+00  0.0000E+00  0.0000E+00  0.0000E+00  0.0000E+00  0.0000E+00  0.0000E+00  0.0000E+00  0.0000E+00  0.0000E+00  0.0000E+00  0.0000E+00  0.0000E+00  0.0000E+00  0.0000E+00
    -48.772  0.0000E+00  0.0000E+00  0.0000E+00  0.0000E+00  0.0000E+00  0.0000E+00  0.0000E+00  0.0000E+00  0.0000E+00  0.0000E+00  0.0000E+00  0.0000E+00  0.0000E+00  0.0000E+00  0.0000E+00  0.0000E+00  0.0000E+00  0.0000E+00
    -48.554  0.0000E+00  0.0000E+00  0.0000E+00  0.0000E+00  0.0000E+00  0.0000E+00  0.0000E+00  0.0000E+00  0.0000E+00  0.0000E+00  0.0000E+00  0.0000E+00  0.0000E+00  0.0000E+00  0.0000E+00  0.0000E+00  0.0000E+00  0.0000E+00
    -48.337  0.0000E+00  0.0000E+00  0.0000E+00  0.0000E+00  0.0000E+00  0.0000E+00  0.0000E+00  0.0000E+00  0.0000E+00  0.0000E+00  0.0000E+00  0.0000E+00  0.0000E+00  0.0000E+00  0.0000E+00  0.0000E+00  0.0000E+00  0.0000E+00
    -48.119  0.0000E+00  0.0000E+00  0.0000E+00  0.0000E+00  0.0000E+00  0.0000E+00  0.0000E+00  0.0000E+00  0.0000E+00  0.0000E+00  0.0000E+00  0.0000E+00  0.0000E+00  0.0000E+00  0.0000E+00  0.0000E+00  0.0000E+00  0.0000E+00
    -47.902  0.0000E+00  0.0000E+00  0.0000E+00  0.0000E+00  0.0000E+00  0.0000E+00  0.0000E+00  0.0000E+00  0.0000E+00  0.0000E+00  0.0000E+00  0.0000E+00  0.0000E+00  0.0000E+00  0.0000E+00  0.0000E+00  0.0000E+00  0.0000E+00
    -47.684  0.0000E+00  0.0000E+00  0.0000E+00  0.0000E+00  0.0000E+00  0.0000E+00  0.0000E+00  0.0000E+00  0.0000E+00  0.0000E+00  0.0000E+00  0.0000E+00  0.0000E+00  0.0000E+00  0.0000E+00  0.0000E+00  0.0000E+00  0.0000E+00
    -47.467  0.3137E-10  0.7307E-12  0.1858E-08  0.8446E-05  0.3617E-10  0.1116E-04  0.1831E-11  0.2261E-06  0.6534E-13  0.2472E-10  0.3603E-11  0.1064E-14  0.1036E-10  0.3399E-12  0.9139E-15  0.3233E-10  0.3718E-10  0.1020E-11
    -47.249  0.7165E-05  0.1725E-04  0.4356E-03  0.1931E+01  0.7960E-05  0.2439E+01  0.2628E-05  0.9179E+00  0.1815E-06  0.5934E-05  0.7748E-06  0.5558E-09  0.2375E-05  0.8006E-05  0.2725E-09  0.7590E-05  0.8355E-05  0.2411E-04
    -47.032  0.4631E-06  0.1386E-03  0.2691E-04  0.1286E+00  0.4126E-06  0.1438E+00  0.3431E-05  0.1735E+01  0.2657E-06  0.4041E-06  0.3854E-07  0.2366E-08  0.1624E-06  0.6432E-04  0.1917E-09  0.4592E-06  0.5400E-06  0.1937E-03
    -46.814  0.7804E-05  0.8491E-04  0.3835E-03  0.2519E+01  0.2533E-05  0.1997E+01  0.2273E-05  0.1896E+01  0.1838E-06  0.7892E-05  0.1586E-06  0.2173E-08  0.3189E-05  0.3936E-04  0.3061E-09  0.6324E-05  0.9766E-05  0.1186E-03
    -46.597  0.3178E-09  0.2177E-06  0.1599E-07  0.1018E-03  0.1005E-09  0.7755E-04  0.2746E-07  0.3146E-01  0.2491E-08  0.3018E-09  0.8665E-11  0.1005E-10  0.1291E-09  0.1008E-06  0.2916E-11  0.2365E-09  0.3935E-09  0.3037E-06
    -46.379  0.0000E+00  0.0000E+00  0.0000E+00  0.0000E+00  0.0000E+00  0.0000E+00  0.0000E+00  0.0000E+00  0.0000E+00  0.0000E+00  0.0000E+00  0.0000E+00  0.0000E+00  0.0000E+00  0.0000E+00  0.0000E+00  0.0000E+00  0.0000E+00
    -46.162  0.0000E+00  0.0000E+00  0.0000E+00  0.0000E+00  0.0000E+00  0.0000E+00  0.0000E+00  0.0000E+00  0.0000E+00  0.0000E+00  0.0000E+00  0.0000E+00  0.0000E+00  0.0000E+00  0.0000E+00  0.0000E+00  0.0000E+00  0.0000E+00
    -45.944  0.0000E+00  0.0000E+00  0.0000E+00  0.0000E+00  0.0000E+00  0.0000E+00  0.0000E+00  0.0000E+00  0.0000E+00  0.0000E+00  0.0000E+00  0.0000E+00  0.0000E+00  0.0000E+00  0.0000E+00  0.0000E+00  0.0000E+00  0.0000E+00
    -45.727  0.0000E+00  0.0000E+00  0.0000E+00  0.0000E+00  0.0000E+00  0.0000E+00  0.0000E+00  0.0000E+00  0.0000E+00  0.0000E+00  0.0000E+00  0.0000E+00  0.0000E+00  0.0000E+00  0.0000E+00  0.0000E+00  0.0000E+00  0.0000E+00
    -45.509  0.0000E+00  0.0000E+00  0.0000E+00  0.0000E+00  0.0000E+00  0.0000E+00  0.0000E+00  0.0000E+00  0.0000E+00  0.0000E+00  0.0000E+00  0.0000E+00  0.0000E+00  0.0000E+00  0.0000E+00  0.0000E+00  0.0000E+00  0.0000E+00
    -45.292  0.0000E+00  0.0000E+00  0.0000E+00  0.0000E+00  0.0000E+00  0.0000E+00  0.0000E+00  0.0000E+00  0.0000E+00  0.0000E+00  0.0000E+00  0.0000E+00  0.0000E+00  0.0000E+00  0.0000E+00  0.0000E+00  0.0000E+00  0.0000E+00
    -45.074  0.0000E+00  0.0000E+00  0.0000E+00  0.0000E+00  0.0000E+00  0.0000E+00  0.0000E+00  0.0000E+00  0.0000E+00  0.0000E+00  0.0000E+00  0.0000E+00  0.0000E+00  0.0000E+00  0.0000E+00  0.0000E+00  0.0000E+00  0.0000E+00
    -44.857  0.0000E+00  0.0000E+00  0.0000E+00  0.0000E+00  0.0000E+00  0.0000E+00  0.0000E+00  0.0000E+00  0.0000E+00  0.0000E+00  0.0000E+00  0.0000E+00  0.0000E+00  0.0000E+00  0.0000E+00  0.0000E+00  0.0000E+00  0.0000E+00
    -44.639  0.0000E+00  0.0000E+00  0.0000E+00  0.0000E+00  0.0000E+00  0.0000E+00  0.0000E+00  0.0000E+00  0.0000E+00  0.0000E+00  0.0000E+00  0.0000E+00  0.0000E+00  0.0000E+00  0.0000E+00  0.0000E+00  0.0000E+00  0.0000E+00
    -44.422  0.0000E+00  0.0000E+00  0.0000E+00  0.0000E+00  0.0000E+00  0.0000E+00  0.0000E+00  0.0000E+00  0.0000E+00  0.0000E+00  0.0000E+00  0.0000E+00  0.0000E+00  0.0000E+00  0.0000E+00  0.0000E+00  0.0000E+00  0.0000E+00
    -44.204  0.0000E+00  0.0000E+00  0.0000E+00  0.0000E+00  0.0000E+00  0.0000E+00  0.0000E+00  0.0000E+00  0.0000E+00  0.0000E+00  0.0000E+00  0.0000E+00  0.0000E+00  0.0000E+00  0.0000E+00  0.0000E+00  0.0000E+00  0.0000E+00
    -43.987  0.0000E+00  0.0000E+00  0.0000E+00  0.0000E+00  0.0000E+00  0.0000E+00  0.0000E+00  0.0000E+00  0.0000E+00  0.0000E+00  0.0000E+00  0.0000E+00  0.0000E+00  0.0000E+00  0.0000E+00  0.0000E+00  0.0000E+00  0.0000E+00
    -43.769  0.0000E+00  0.0000E+00  0.0000E+00  0.0000E+00  0.0000E+00  0.0000E+00  0.0000E+00  0.0000E+00  0.0000E+00  0.0000E+00  0.0000E+00  0.0000E+00  0.0000E+00  0.0000E+00  0.0000E+00  0.0000E+00  0.0000E+00  0.0000E+00
    -43.552  0.0000E+00  0.0000E+00  0.0000E+00  0.0000E+00  0.0000E+00  0.0000E+00  0.0000E+00  0.0000E+00  0.0000E+00  0.0000E+00  0.0000E+00  0.0000E+00  0.0000E+00  0.0000E+00  0.0000E+00  0.0000E+00  0.0000E+00  0.0000E+00
    -43.334  0.0000E+00  0.0000E+00  0.0000E+00  0.0000E+00  0.0000E+00  0.0000E+00  0.0000E+00  0.0000E+00  0.0000E+00  0.0000E+00  0.0000E+00  0.0000E+00  0.0000E+00  0.0000E+00  0.0000E+00  0.0000E+00  0.0000E+00  0.0000E+00
    -43.117  0.0000E+00  0.0000E+00  0.0000E+00  0.0000E+00  0.0000E+00  0.0000E+00  0.0000E+00  0.0000E+00  0.0000E+00  0.0000E+00  0.0000E+00  0.0000E+00  0.0000E+00  0.0000E+00  0.0000E+00  0.0000E+00  0.0000E+00  0.0000E+00
    -42.899  0.0000E+00  0.0000E+00  0.0000E+00  0.0000E+00  0.0000E+00  0.0000E+00  0.0000E+00  0.0000E+00  0.0000E+00  0.0000E+00  0.0000E+00  0.0000E+00  0.0000E+00  0.0000E+00  0.0000E+00  0.0000E+00  0.0000E+00  0.0000E+00
    -42.682  0.0000E+00  0.0000E+00  0.0000E+00  0.0000E+00  0.0000E+00  0.0000E+00  0.0000E+00  0.0000E+00  0.0000E+00  0.0000E+00  0.0000E+00  0.0000E+00  0.0000E+00  0.0000E+00  0.0000E+00  0.0000E+00  0.0000E+00  0.0000E+00
    -42.464  0.0000E+00  0.0000E+00  0.0000E+00  0.0000E+00  0.0000E+00  0.0000E+00  0.0000E+00  0.0000E+00  0.0000E+00  0.0000E+00  0.0000E+00  0.0000E+00  0.0000E+00  0.0000E+00  0.0000E+00  0.0000E+00  0.0000E+00  0.0000E+00
    -42.247  0.0000E+00  0.0000E+00  0.0000E+00  0.0000E+00  0.0000E+00  0.0000E+00  0.0000E+00  0.0000E+00  0.0000E+00  0.0000E+00  0.0000E+00  0.0000E+00  0.0000E+00  0.0000E+00  0.0000E+00  0.0000E+00  0.0000E+00  0.0000E+00
    -42.029  0.0000E+00  0.0000E+00  0.0000E+00  0.0000E+00  0.0000E+00  0.0000E+00  0.0000E+00  0.0000E+00  0.0000E+00  0.0000E+00  0.0000E+00  0.0000E+00  0.0000E+00  0.0000E+00  0.0000E+00  0.0000E+00  0.0000E+00  0.0000E+00