       N       E                     dE             d eps       ncg     rms          rms(c)
DAV:   1     0.205160973408E+04    0.20516E+04   -0.88957E+04 33840   0.201E+03
DAV:   2     0.120649524008E+03   -0.19310E+04   -0.18750E+04 32000   0.591E+02
DAV:   3    -0.839061644788E+02   -0.20456E+03   -0.18171E+03 44760   0.193E+02
DAV:   4    -0.976248761702E+02   -0.13719E+02   -0.13377E+02 46060   0.511E+01
DAV:   5    -0.979580688751E+02   -0.33319E+00   -0.33236E+00 45120   0.824E+00    0.262E+01
RMM:   6    -0.110270045403E+03   -0.12312E+02   -0.14851E+02 32031   0.799E+01    0.459E+01
RMM:   7    -0.904145658347E+02    0.19855E+02   -0.37137E+01 32008   0.472E+01    0.880E+00
RMM:   8    -0.908514731363E+02   -0.43691E+00   -0.29457E+00 41131   0.502E+00    0.377E+00
RMM:   9    -0.909012170984E+02   -0.49744E-01   -0.72747E-01 46170   0.257E+00    0.206E+00
RMM:  10    -0.909040158394E+02   -0.27987E-02   -0.17673E-01 45346   0.129E+00    0.859E-01
RMM:  11    -0.909113148394E+02   -0.72990E-02   -0.34775E-02 44161   0.683E-01    0.316E-01
RMM:  12    -0.909140361664E+02   -0.27213E-02   -0.77819E-03 41126   0.274E-01    0.147E-01
RMM:  13    -0.909139287451E+02    0.10742E-03   -0.15340E-03 26927   0.144E-01
   1 F= -.98309834E+02 E0= -.98298638E+02  d E =-.983098E+02  mag=    -0.0000
       N       E                     dE             d eps       ncg     rms          rms(c)
DAV:   1    -0.909541613405E+02   -0.40125E-01   -0.17824E+00 38280   0.468E+00    0.141E+00
RMM:   2    -0.909415216567E+02    0.12640E-01   -0.13609E-01 37248   0.196E+00    0.115E+00
RMM:   3    -0.909332621336E+02    0.82595E-02   -0.58376E-02 33585   0.151E+00    0.669E-01
RMM:   4    -0.909290645901E+02    0.41975E-02   -0.16759E-02 34624   0.697E-01    0.194E-01
RMM:   5    -0.909295666983E+02   -0.50211E-03   -0.56428E-03 35239   0.261E-01    0.125E-01
RMM:   6    -0.909294785767E+02    0.88122E-04   -0.92310E-04 25381   0.150E-01
   2 F= -.98324243E+02 E0= -.98312362E+02  d E =-.144091E-01  mag=     0.0000
       N       E                     dE             d eps       ncg     rms          rms(c)
DAV:   1    -0.909294446836E+02    0.12201E-03   -0.79820E-04 37180   0.143E-01    0.283E-02
RMM:   2    -0.909294534966E+02   -0.88131E-05   -0.74806E-05 16544   0.576E-02
   3 F= -.98324229E+02 E0= -.98312323E+02  d E =-.143953E-01  mag=    -0.0000
       N       E                     dE             d eps       ncg     rms          rms(c)
DAV:   1    -0.909585181196E+02   -0.29073E-01   -0.74096E-01 33400   0.339E+00    0.115E+00
RMM:   2    -0.909386176026E+02    0.19901E-01   -0.39968E-02 34657   0.136E+00    0.646E-01
RMM:   3    -0.909387928879E+02   -0.17529E-03   -0.34204E-02 33083   0.111E+00    0.693E-01
RMM:   4    -0.909341429775E+02    0.46499E-02   -0.11936E-02 32974   0.722E-01    0.137E-01
RMM:   5    -0.909343068052E+02   -0.16383E-03   -0.34094E-03 30534   0.204E-01    0.832E-02
RMM:   6    -0.909342538684E+02    0.52937E-04   -0.55162E-04 21562   0.124E-01
   4 F= -.98329359E+02 E0= -.98317353E+02  d E =-.513045E-02  mag=     0.0000
       N       E                     dE             d eps       ncg     rms          rms(c)
DAV:   1    -0.909806496318E+02   -0.46343E-01   -0.13654E+00 32360   0.460E+00    0.157E+00
RMM:   2    -0.909436059165E+02    0.37044E-01   -0.72194E-02 34644   0.182E+00    0.859E-01
RMM:   3    -0.909443624820E+02   -0.75657E-03   -0.62615E-02 33196   0.149E+00    0.951E-01
RMM:   4    -0.909357285921E+02    0.86339E-02   -0.22318E-02 32973   0.994E-01    0.190E-01
RMM:   5    -0.909360381899E+02   -0.30960E-03   -0.64473E-03 33676   0.277E-01    0.116E-01
RMM:   6    -0.909359522589E+02    0.85931E-04   -0.11550E-03 26813   0.161E-01
   5 F= -.98331511E+02 E0= -.98319451E+02  d E =-.728247E-02  mag=     0.0000
