       N       E                     dE             d eps       ncg     rms          rms(c)
DAV:   1     0.204965992214E+04    0.20497E+04   -0.88912E+04 33660   0.201E+03
DAV:   2     0.120341248420E+03   -0.19293E+04   -0.18735E+04 32000   0.592E+02
DAV:   3    -0.837966440870E+02   -0.20414E+03   -0.18100E+03 44800   0.193E+02
DAV:   4    -0.976654934369E+02   -0.13869E+02   -0.13489E+02 46440   0.513E+01
DAV:   5    -0.980016517938E+02   -0.33616E+00   -0.33527E+00 45380   0.831E+00    0.266E+01
RMM:   6    -0.111408088630E+03   -0.13406E+02   -0.15302E+02 32023   0.810E+01    0.472E+01
RMM:   7    -0.904149455437E+02    0.20993E+02   -0.38577E+01 32006   0.479E+01    0.914E+00
RMM:   8    -0.908749183506E+02   -0.45997E+00   -0.28987E+00 41241   0.500E+00    0.400E+00
RMM:   9    -0.909203793857E+02   -0.45461E-01   -0.73128E-01 46338   0.257E+00    0.211E+00
RMM:  10    -0.909266718766E+02   -0.62925E-02   -0.19308E-01 45535   0.131E+00    0.885E-01
RMM:  11    -0.909329238155E+02   -0.62519E-02   -0.37774E-02 44087   0.710E-01    0.337E-01
RMM:  12    -0.909359464645E+02   -0.30226E-02   -0.84744E-03 41798   0.291E-01    0.141E-01
RMM:  13    -0.909359085672E+02    0.37897E-04   -0.17615E-03 27860   0.148E-01
   1 F= -.98331468E+02 E0= -.98319345E+02  d E =-.983315E+02  mag=     0.0000
