 vasp.6.4.1 05Apr23 (build Jun 01 2023 13:46:15) complex                        
  
 executed on             LinuxIFC date 2023.12.17  00:57:14
 running   20 mpi-ranks, on    5 nodes
 distrk:  each k-point on   20 cores,    1 groups
 distr:  one band on NCORE=   1 cores,   20 groups


--------------------------------------------------------------------------------------------------------


 INCAR:
   ALGO = Fast
   EDIFF = 0.0002
   ENCUT = 550
   IBRION = -1
   ISIF = 4
   ISMEAR = -5
   ISPIN = 2
   IVDW = 13
   LASPH = True
   LMAXMIX = 4
   LORBIT = 11
   LREAL = Auto
   LWAVE = False
   MAGMOM = 1*2.425 2*-2.425 2*2.425 2*-2.425 1*2.425 8*0.0
   NELM = 100
   NSW = 0
   PREC = Accurate
   SIGMA = 0.05

 POTCAR:   PAW_PBE Fe_pv 06Sep2000                
 POTCAR:   PAW_PBE Se 06Sep2000                   
 -----------------------------------------------------------------------------
|                                                                             |
|           W    W    AA    RRRRR   N    N  II  N    N   GGGG   !!!           |
|           W    W   A  A   R    R  NN   N  II  NN   N  G    G  !!!           |
|           W    W  A    A  R    R  N N  N  II  N N  N  G       !!!           |
|           W WW W  AAAAAA  RRRRR   N  N N  II  N  N N  G  GGG   !            |
|           WW  WW  A    A  R   R   N   NN  II  N   NN  G    G                |
|           W    W  A    A  R    R  N    N  II  N    N   GGGG   !!!           |
|                                                                             |
|     For optimal performance we recommend to set                             |
|       NCORE = 2 up to number-of-cores-per-socket                            |
|     NCORE specifies how many cores store one orbital (NPAR=cpu/NCORE).      |
|     This setting can greatly improve the performance of VASP for DFT.       |
|     The default, NCORE=1 might be grossly inefficient on modern             |
|     multi-core architectures or massively parallel machines. Do your        |
|     own testing! More info at https://www.vasp.at/wiki/index.php/NCORE      |
|     Unfortunately you need to use the default for GW and RPA                |
|     calculations (for HF NCORE is supported but not extensively tested      |
|     yet).                                                                   |
|                                                                             |
 -----------------------------------------------------------------------------

 POTCAR:   PAW_PBE Fe_pv 06Sep2000                
   VRHFIN =Fe:  3pd7s1                                                                              
   LEXCH  = PE                                                                                      
   EATOM  =  2456.8974 eV,  180.5769 Ry                                                             
                                                                                                    
   TITEL  = PAW_PBE Fe_pv 06Sep2000                                                                 
   LULTRA =        F    use ultrasoft PP ?                                                          
   IUNSCR =        1    unscreen: 0-lin 1-nonlin 2-no                                               
   RPACOR =    1.750    partial core radius                                                         
   POMASS =   55.847; ZVAL   =   14.000    mass and valenz                                          
   RCORE  =    2.200    outmost cutoff radius                                                       
   RWIGS  =    2.200; RWIGS  =    1.164    wigner-seitz radius (au A)                               
   ENMAX  =  293.238; ENMIN  =  219.929 eV                                                          
   RCLOC  =    1.701    cutoff for local pot                                                        
   LCOR   =        T    correct aug charges                                                         
   LPAW   =        T    paw PP                                                                      
   EAUG   =  578.342                                                                                
   DEXC   =    -.002                                                                                
   RMAX   =    2.693    core radius for proj-oper                                                   
   RAUG   =    1.300    factor for augmentation sphere                                              
   RDEP   =    2.296    radius for radial grids                                                     
   QCUT   =   -4.642; QGAM   =    9.285    optimization parameters                                  
                                                                                                    
   Description                                                                                      
     l     E      TYP  RCUT    TYP  RCUT                                                            
     1   .000     23  2.000                                                                         
     1  -.400     23  2.000                                                                         
     2   .000     23  2.200                                                                         
     2   .000     23  2.200                                                                         
     0   .000     23  2.000                                                                         
     0  2.000     23  2.000                                                                         
     3   .000      7   .000                                                                         
  local pseudopotential read in
  partial core-charges read in
  atomic valenz-charges read in
  non local Contribution for L=           1  read in
    real space projection operators read in
  non local Contribution for L=           1  read in
    real space projection operators read in
  non local Contribution for L=           2  read in
    real space projection operators read in
  non local Contribution for L=           2  read in
    real space projection operators read in
  non local Contribution for L=           0  read in
    real space projection operators read in
  non local Contribution for L=           0  read in
    real space projection operators read in
    PAW grid and wavefunctions read in
 
   number of l-projection  operators is LMAX  =           6
   number of lm-projection operators is LMMAX =          18
 
 POTCAR:   PAW_PBE Se 06Sep2000                   
   VRHFIN =Se: s2p4                                                                                 
   LEXCH  = PE                                                                                      
   EATOM  =   256.9644 eV,   18.8864 Ry                                                             
                                                                                                    
   TITEL  = PAW_PBE Se 06Sep2000                                                                    
   LULTRA =        F    use ultrasoft PP ?                                                          
   IUNSCR =        1    unscreen: 0-lin 1-nonlin 2-no                                               
   RPACOR =    1.900    partial core radius                                                         
   POMASS =   78.960; ZVAL   =    6.000    mass and valenz                                          
   RCORE  =    2.100    outmost cutoff radius                                                       
   RWIGS  =    2.200; RWIGS  =    1.164    wigner-seitz radius (au A)                               
   ENMAX  =  211.534; ENMIN  =  158.651 eV                                                          
   ICORE  =        3    local potential                                                             
   LCOR   =        T    correct aug charges                                                         
   LPAW   =        T    paw PP                                                                      
   EAUG   =  446.842                                                                                
   DEXC   =    -.031                                                                                
   RMAX   =    3.170    core radius for proj-oper                                                   
   RAUG   =    1.300    factor for augmentation sphere                                              
   RDEP   =    2.177    radius for radial grids                                                     
   QCUT   =   -3.943; QGAM   =    7.886    optimization parameters                                  
                                                                                                    
   Description                                                                                      
     l     E      TYP  RCUT    TYP  RCUT                                                            
     0   .000     23  2.100                                                                         
     0   .000     23  2.100                                                                         
     1   .000     23  2.100                                                                         
     1   .000     23  2.100                                                                         
     2   .000     23  2.100                                                                         
     3  -.100      7  2.100                                                                         
  local pseudopotential read in
  partial core-charges read in
  atomic valenz-charges read in
  non local Contribution for L=           0  read in
    real space projection operators read in
  non local Contribution for L=           0  read in
    real space projection operators read in
  non local Contribution for L=           1  read in
    real space projection operators read in
  non local Contribution for L=           1  read in
    real space projection operators read in
  non local Contribution for L=           2  read in
    real space projection operators read in
    PAW grid and wavefunctions read in
 
   number of l-projection  operators is LMAX  =           5
   number of lm-projection operators is LMMAX =          13
 
 Optimization of the real space projectors (new method)

 maximal supplied QI-value         = 17.01
 optimisation between [QCUT,QGAM] = [ 11.91, 23.98] = [ 39.69,161.04] Ry 
 Optimized for a Real-space Cutoff    1.45 Angstroem

   l    n(q)    QCUT    max X(q) W(low)/X(q) W(high)/X(q)  e(spline) 
   1     10    11.905     4.550    0.27E-05    0.11E-05    0.28E-07
   1     10    11.905     5.234    0.10E-04    0.61E-04    0.17E-06
   2      9    11.905     3.960    0.19E-04    0.73E-05    0.50E-07
   2      9    11.905    29.565    0.24E-03    0.51E-04    0.27E-06
   0     10    11.905    23.582    0.17E-04    0.10E-05    0.14E-07
   0     10    11.905    39.747    0.23E-04    0.68E-05    0.74E-07
 Optimization of the real space projectors (new method)

 maximal supplied QI-value         = 17.95
 optimisation between [QCUT,QGAM] = [ 11.85, 23.88] = [ 39.31,159.64] Ry 
 Optimized for a Real-space Cutoff    1.18 Angstroem

   l    n(q)    QCUT    max X(q) W(low)/X(q) W(high)/X(q)  e(spline) 
   0      8    11.849     6.499    0.17E-04    0.94E-05    0.89E-08
   0      8    11.849    52.623    0.21E-03    0.78E-04    0.81E-07
   1      8    11.849     4.229    0.79E-04    0.83E-04    0.23E-07
   1      8    11.849    29.991    0.12E-03    0.43E-03    0.14E-06
   2      7    11.849     3.719    0.22E-03    0.64E-04    0.38E-07
 PAW_PBE Fe_pv 06Sep2000                :
 energy of atom  1       EATOM=-2456.8974
 kinetic energy error for atom=    0.0060 (will be added to EATOM!!)
 PAW_PBE Se 06Sep2000                   :
 energy of atom  2       EATOM= -256.9644
 kinetic energy error for atom=    0.0007 (will be added to EATOM!!)
 
 
 POSCAR: Fe8 Se8
  positions in direct lattice
  velocities in cartesian coordinates
 exchange correlation table for  LEXCH =        8
   RHO(1)=    0.500       N(1)  =     2000
   RHO(2)=  100.500       N(2)  =     4000
 


--------------------------------------------------------------------------------------------------------


 ion  position               nearest neighbor table
   1  0.000  0.000  0.000-  11 2.29  14 2.29   5 2.37   8 2.37   7 2.75   6 2.75
   2  0.000  0.500  0.000-  12 2.29  13 2.29   6 2.37   7 2.37   5 2.75   8 2.75
   3  0.500  0.000  0.000-   9 2.29  16 2.29   6 2.37   7 2.37   5 2.75   8 2.75
   4  0.500  0.500  0.000-  10 2.29  15 2.29   5 2.37   8 2.37   7 2.75   6 2.75
   5  0.250  0.250  0.000-   9 2.29  13 2.29   1 2.37   4 2.37   3 2.75   2 2.75
   6  0.250  0.750  0.000-  10 2.29  14 2.29   2 2.37   3 2.37   1 2.75   4 2.75
   7  0.750  0.250  0.000-  11 2.29  15 2.29   2 2.37   3 2.37   1 2.75   4 2.75
   8  0.750  0.750  0.000-  12 2.29  16 2.29   1 2.37   4 2.37   3 2.75   2 2.75
   9  0.375  0.125  0.664-   3 2.29   5 2.29
  10  0.375  0.625  0.664-   4 2.29   6 2.29
  11  0.875  0.125  0.664-   1 2.29   7 2.29
  12  0.875  0.625  0.664-   2 2.29   8 2.29
  13  0.125  0.375  0.336-   2 2.29   5 2.29
  14  0.125  0.875  0.336-   1 2.29   6 2.29
  15  0.625  0.375  0.336-   4 2.29   7 2.29
  16  0.625  0.875  0.336-   3 2.29   8 2.29
 
  LATTYP: Found a base centered orthorhombic cell.
 ALAT       =     9.4935804211
 B/A-ratio  =     1.1565929860
 C/A-ratio  =     0.5739547843
  
  Lattice vectors:
  
 A1 = (   4.7467902105,  -5.4901042635,   0.0000000000)
 A2 = (   4.7467902105,   5.4901042635,   0.0000000000)
 A3 = (   0.0000000000,   0.0000000000,   5.4488859027)


Analysis of symmetry for initial positions (statically):
=====================================================================
 Subroutine PRICEL returns following result:
 
  LATTYP: Found a base centered orthorhombic cell.
 ALAT       =     4.7467902105
 B/A-ratio  =     1.1565929860
 C/A-ratio  =     1.1479095686
  
  Lattice vectors:
  
 A1 = (   2.3733951053,  -2.7450521318,   0.0000000000)
 A2 = (   2.3733951053,   2.7450521318,   0.0000000000)
 A3 = (   0.0000000000,   0.0000000000,   5.4488859027)
 
   4 primitive cells build up your supercell.
 

 Routine SETGRP: Setting up the symmetry group for a 
 base centered orthorhombic supercell.


 Subroutine GETGRP returns: Found  8 space group operations
 (whereof  4 operations were pure point group operations)
 out of a pool of  8 trial point group operations.


The static configuration has the point symmetry C_2h.
 The point group associated with its full space group is D_2h.


Analysis of symmetry for dynamics (positions and initial velocities):
=====================================================================
 Subroutine PRICEL returns following result:
 
  LATTYP: Found a base centered orthorhombic cell.
 ALAT       =     4.7467902105
 B/A-ratio  =     1.1565929860
 C/A-ratio  =     1.1479095686
  
  Lattice vectors:
  
 A1 = (   2.3733951053,  -2.7450521318,   0.0000000000)
 A2 = (   2.3733951053,   2.7450521318,   0.0000000000)
 A3 = (   0.0000000000,   0.0000000000,   5.4488859027)
 
   4 primitive cells build up your supercell.
 

 Routine SETGRP: Setting up the symmetry group for a 
 base centered orthorhombic supercell.


 Subroutine GETGRP returns: Found  8 space group operations
 (whereof  4 operations were pure point group operations)
 out of a pool of  8 trial point group operations.


The dynamic configuration has the point symmetry C_2h.
 The point group associated with its full space group is D_2h.


Analysis of structural, dynamic, and magnetic symmetry:
=====================================================================
 Subroutine PRICEL returns following result:
 
  LATTYP: Found a base centered orthorhombic cell.
 ALAT       =     4.7467902105
 B/A-ratio  =     1.1565929860
 C/A-ratio  =     1.1479095686
  
  Lattice vectors:
  
 A1 = (   2.3733951053,  -2.7450521318,   0.0000000000)
 A2 = (   2.3733951053,   2.7450521318,   0.0000000000)
 A3 = (   0.0000000000,   0.0000000000,   5.4488859027)
 
   4 primitive cells build up your supercell.
 

 Routine SETGRP: Setting up the symmetry group for a 
 base centered orthorhombic supercell.


 Subroutine GETGRP returns: Found  8 space group operations
 (whereof  4 operations were pure point group operations)
 out of a pool of  8 trial point group operations.


The overall configuration has the point symmetry C_2h.
 The point group associated with its full space group is D_2h.


 Subroutine INISYM returns: Found  8 space group operations
 (whereof  4 operations are pure point group operations),
 and found     4 'primitive' translations


----------------------------------------------------------------------------------------

                                     Primitive cell                                     

  volume of cell :      71.0000

  direct lattice vectors                    reciprocal lattice vectors
     2.373395105 -2.745052132  0.000000000     0.210668674 -0.182145903  0.000000000
     2.373395105  2.745052132  0.000000000     0.210668674  0.182145903  0.000000000
     0.000000000  0.000000000  5.448885903     0.000000000  0.000000000  0.183523755

  length of vectors
     3.628817374  3.628817374  5.448885903     0.278493124  0.278493124  0.183523755

  position of ions in fractional coordinates (direct lattice)
     0.000000000  0.000000000  0.000000000
     0.500000000  0.500000000  0.000000000
     0.750000000  0.250000000  0.664183627
     0.250000000  0.750000000  0.335816373

  ion indices of the primitive-cell ions
   primitive index   ion index
                 1           1
                 2           5
                 3          11
                 4          14

----------------------------------------------------------------------------------------

 
 
 KPOINTS: KPOINTS                                 

Automatic generation of k-mesh.
 Grid dimensions read from file:
 generate k-points for:    7    7    9

 Generating k-lattice:

  Cartesian coordinates                     Fractional coordinates (reciprocal lattice)
     0.015047762 -0.013010422  0.000000000     0.142857143  0.000000000  0.000000000
     0.015047762  0.013010422  0.000000000     0.000000000  0.142857143  0.000000000
     0.000000000  0.000000000  0.020391528     0.000000000  0.000000000  0.111111111

  Length of vectors
     0.019892366  0.019892366  0.020391528

  Shift w.r.t. Gamma in fractional coordinates (k-lattice)
     0.000000000  0.000000000  0.000000000

 TETIRR: Found    664 inequivalent tetrahedra from     2646
 
 Subroutine IBZKPT returns following result:
 ===========================================
 
 Found     80 irreducible k-points:
 
 Following reciprocal coordinates:
            Coordinates               Weight
  0.000000  0.000000  0.000000      1.000000
  0.142857  0.000000  0.000000      4.000000
  0.285714  0.000000  0.000000      4.000000
  0.428571  0.000000  0.000000      4.000000
  0.142857  0.142857  0.000000      2.000000
  0.285714  0.142857  0.000000      4.000000
  0.428571  0.142857  0.000000      4.000000
 -0.428571  0.142857  0.000000      4.000000
 -0.285714  0.142857  0.000000      4.000000
 -0.142857  0.142857  0.000000      2.000000
  0.285714  0.285714  0.000000      2.000000
  0.428571  0.285714  0.000000      4.000000
 -0.428571  0.285714  0.000000      4.000000
 -0.285714  0.285714  0.000000      2.000000
  0.428571  0.428571  0.000000      2.000000
 -0.428571  0.428571  0.000000      2.000000
  0.000000  0.000000  0.111111      2.000000
  0.142857  0.000000  0.111111      8.000000
  0.285714  0.000000  0.111111      8.000000
  0.428571  0.000000  0.111111      8.000000
  0.142857  0.142857  0.111111      4.000000
  0.285714  0.142857  0.111111      8.000000
  0.428571  0.142857  0.111111      8.000000
 -0.428571  0.142857  0.111111      8.000000
 -0.285714  0.142857  0.111111      8.000000
 -0.142857  0.142857  0.111111      4.000000
  0.285714  0.285714  0.111111      4.000000
  0.428571  0.285714  0.111111      8.000000
 -0.428571  0.285714  0.111111      8.000000
 -0.285714  0.285714  0.111111      4.000000
  0.428571  0.428571  0.111111      4.000000
 -0.428571  0.428571  0.111111      4.000000
  0.000000  0.000000  0.222222      2.000000
  0.142857  0.000000  0.222222      8.000000
  0.285714  0.000000  0.222222      8.000000
  0.428571  0.000000  0.222222      8.000000
  0.142857  0.142857  0.222222      4.000000
  0.285714  0.142857  0.222222      8.000000
  0.428571  0.142857  0.222222      8.000000
 -0.428571  0.142857  0.222222      8.000000
 -0.285714  0.142857  0.222222      8.000000
 -0.142857  0.142857  0.222222      4.000000
  0.285714  0.285714  0.222222      4.000000
  0.428571  0.285714  0.222222      8.000000
 -0.428571  0.285714  0.222222      8.000000
 -0.285714  0.285714  0.222222      4.000000
  0.428571  0.428571  0.222222      4.000000
 -0.428571  0.428571  0.222222      4.000000
  0.000000  0.000000  0.333333      2.000000
  0.142857  0.000000  0.333333      8.000000
  0.285714  0.000000  0.333333      8.000000
  0.428571  0.000000  0.333333      8.000000
  0.142857  0.142857  0.333333      4.000000
  0.285714  0.142857  0.333333      8.000000
  0.428571  0.142857  0.333333      8.000000
 -0.428571  0.142857  0.333333      8.000000
 -0.285714  0.142857  0.333333      8.000000
 -0.142857  0.142857  0.333333      4.000000
  0.285714  0.285714  0.333333      4.000000
  0.428571  0.285714  0.333333      8.000000
 -0.428571  0.285714  0.333333      8.000000
 -0.285714  0.285714  0.333333      4.000000
  0.428571  0.428571  0.333333      4.000000
 -0.428571  0.428571  0.333333      4.000000
  0.000000  0.000000  0.444444      2.000000
  0.142857  0.000000  0.444444      8.000000
  0.285714  0.000000  0.444444      8.000000
  0.428571  0.000000  0.444444      8.000000
  0.142857  0.142857  0.444444      4.000000
  0.285714  0.142857  0.444444      8.000000
  0.428571  0.142857  0.444444      8.000000
 -0.428571  0.142857  0.444444      8.000000
 -0.285714  0.142857  0.444444      8.000000
 -0.142857  0.142857  0.444444      4.000000
  0.285714  0.285714  0.444444      4.000000
  0.428571  0.285714  0.444444      8.000000
 -0.428571  0.285714  0.444444      8.000000
 -0.285714  0.285714  0.444444      4.000000
  0.428571  0.428571  0.444444      4.000000
 -0.428571  0.428571  0.444444      4.000000
 
 Following cartesian coordinates:
            Coordinates               Weight
  0.000000  0.000000  0.000000      1.000000
  0.015048 -0.013010  0.000000      4.000000
  0.030096 -0.026021  0.000000      4.000000
  0.045143 -0.039031  0.000000      4.000000
  0.030096  0.000000  0.000000      2.000000
  0.045143 -0.013010  0.000000      4.000000
  0.060191 -0.026021  0.000000      4.000000
 -0.030096  0.052042  0.000000      4.000000
 -0.015048  0.039031  0.000000      4.000000
  0.000000  0.026021  0.000000      2.000000
  0.060191  0.000000  0.000000      2.000000
  0.075239 -0.013010  0.000000      4.000000
 -0.015048  0.065052  0.000000      4.000000
 -0.000000  0.052042  0.000000      2.000000
  0.090287  0.000000  0.000000      2.000000
  0.000000  0.078063  0.000000      2.000000
  0.000000  0.000000  0.020392      2.000000
  0.015048 -0.013010  0.020392      8.000000
  0.030096 -0.026021  0.020392      8.000000
  0.045143 -0.039031  0.020392      8.000000
  0.030096  0.000000  0.020392      4.000000
  0.045143 -0.013010  0.020392      8.000000
  0.060191 -0.026021  0.020392      8.000000
 -0.030096  0.052042  0.020392      8.000000
 -0.015048  0.039031  0.020392      8.000000
  0.000000  0.026021  0.020392      4.000000
  0.060191  0.000000  0.020392      4.000000
  0.075239 -0.013010  0.020392      8.000000
 -0.015048  0.065052  0.020392      8.000000
 -0.000000  0.052042  0.020392      4.000000
  0.090287  0.000000  0.020392      4.000000
  0.000000  0.078063  0.020392      4.000000
  0.000000  0.000000  0.040783      2.000000
  0.015048 -0.013010  0.040783      8.000000
  0.030096 -0.026021  0.040783      8.000000
  0.045143 -0.039031  0.040783      8.000000
  0.030096  0.000000  0.040783      4.000000
  0.045143 -0.013010  0.040783      8.000000
  0.060191 -0.026021  0.040783      8.000000
 -0.030096  0.052042  0.040783      8.000000
 -0.015048  0.039031  0.040783      8.000000
  0.000000  0.026021  0.040783      4.000000
  0.060191  0.000000  0.040783      4.000000
  0.075239 -0.013010  0.040783      8.000000
 -0.015048  0.065052  0.040783      8.000000
 -0.000000  0.052042  0.040783      4.000000
  0.090287  0.000000  0.040783      4.000000
  0.000000  0.078063  0.040783      4.000000
  0.000000  0.000000  0.061175      2.000000
  0.015048 -0.013010  0.061175      8.000000
  0.030096 -0.026021  0.061175      8.000000
  0.045143 -0.039031  0.061175      8.000000
  0.030096  0.000000  0.061175      4.000000
  0.045143 -0.013010  0.061175      8.000000
  0.060191 -0.026021  0.061175      8.000000
 -0.030096  0.052042  0.061175      8.000000
 -0.015048  0.039031  0.061175      8.000000
  0.000000  0.026021  0.061175      4.000000
  0.060191  0.000000  0.061175      4.000000
  0.075239 -0.013010  0.061175      8.000000
 -0.015048  0.065052  0.061175      8.000000
 -0.000000  0.052042  0.061175      4.000000
  0.090287  0.000000  0.061175      4.000000
  0.000000  0.078063  0.061175      4.000000
  0.000000  0.000000  0.081566      2.000000
  0.015048 -0.013010  0.081566      8.000000
  0.030096 -0.026021  0.081566      8.000000
  0.045143 -0.039031  0.081566      8.000000
  0.030096  0.000000  0.081566      4.000000
  0.045143 -0.013010  0.081566      8.000000
  0.060191 -0.026021  0.081566      8.000000
 -0.030096  0.052042  0.081566      8.000000
 -0.015048  0.039031  0.081566      8.000000
  0.000000  0.026021  0.081566      4.000000
  0.060191  0.000000  0.081566      4.000000
  0.075239 -0.013010  0.081566      8.000000
 -0.015048  0.065052  0.081566      8.000000
 -0.000000  0.052042  0.081566      4.000000
  0.090287  0.000000  0.081566      4.000000
  0.000000  0.078063  0.081566      4.000000
 


--------------------------------------------------------------------------------------------------------




 Dimension of arrays:
   k-points           NKPTS =     80   k-points in BZ     NKDIM =     80   number of bands    NBANDS=    100
   number of dos      NEDOS =    301   number of ions     NIONS =     16
   non local maximal  LDIM  =      6   non local SUM 2l+1 LMDIM =     18
   total plane-waves  NPLWV = 131712
   max r-space proj   IRMAX =   5947   max aug-charges    IRDMAX=  20422
   dimension x,y,z NGX =    56 NGY =   56 NGZ =   42
   dimension x,y,z NGXF=   112 NGYF=  112 NGZF=   84
   support grid    NGXF=   112 NGYF=  112 NGZF=   84
   ions per type =               8   8
   NGX,Y,Z   is equivalent  to a cutoff of  12.83, 12.83, 12.81 a.u.
   NGXF,Y,Z  is equivalent  to a cutoff of  25.66, 25.66, 25.63 a.u.

 SYSTEM =  unknown system                          
 POSCAR =  Fe8 Se8                                 

 Startparameter for this run:
   NWRITE =      2    write-flag & timer
   PREC   = accura    normal or accurate (medium, high low for compatibility)
   ISTART =      0    job   : 0-new  1-cont  2-samecut
   ICHARG =      2    charge: 1-file 2-atom 10-const
   ISPIN  =      2    spin polarized calculation?
   LNONCOLLINEAR =      F non collinear calculations
   LSORBIT =      F    spin-orbit coupling
   INIWAV =      1    electr: 0-lowe 1-rand  2-diag
   LASPH  =      T    aspherical Exc in radial PAW
 Electronic Relaxation 1
   ENCUT  =  550.0 eV  40.42 Ry    6.36 a.u.  13.88 13.88 10.42*2*pi/ulx,y,z
   ENINI  =  550.0     initial cutoff
   ENAUG  =  578.3 eV  augmentation charge cutoff
   NELM   =    100;   NELMIN=  2; NELMDL=  0     # of ELM steps 
   EDIFF  = 0.2E-03   stopping-criterion for ELM
   LREAL  =      T    real-space projection
   NLSPLINE    = F    spline interpolate recip. space projectors
   LCOMPAT=      F    compatible to vasp.4.4
   GGA_COMPAT  = T    GGA compatible to vasp.4.4-vasp.4.6
   LMAXPAW     = -100 max onsite density
   LMAXMIX     =    4 max onsite mixed and CHGCAR
   VOSKOWN=      0    Vosko Wilk Nusair interpolation
   ROPT   =   -0.00025  -0.00025
 Ionic relaxation
   EDIFFG = 0.2E-02   stopping-criterion for IOM
   NSW    =      0    number of steps for IOM
   NBLOCK =      1;   KBLOCK =      1    inner block; outer block 
   IBRION =     -1    ionic relax: 0-MD 1-quasi-New 2-CG
   NFREE  =      0    steps in history (QN), initial steepest desc. (CG)
   ISIF   =      4    stress and relaxation
   IWAVPR =     10    prediction:  0-non 1-charg 2-wave 3-comb
   ISYM   =      2    0-nonsym 1-usesym 2-fastsym
   LCORR  =      T    Harris-Foulkes like correction to forces

   POTIM  = 0.5000    time-step for ionic-motion
   TEIN   =    0.0    initial temperature
   TEBEG  =    0.0;   TEEND  =   0.0 temperature during run
   SMASS  =  -3.00    Nose mass-parameter (am)
   estimated Nose-frequenzy (Omega)   =  0.10E-29 period in steps = 0.13E+47 mass=  -0.120E-26a.u.
   SCALEE = 1.0000    scale energy and forces
   NPACO  =    256;   APACO  = 10.0  distance and # of slots for P.C.
   PSTRESS=    0.0 pullay stress

  Mass of Ions in am
   POMASS =  55.85 78.96
  Ionic Valenz
   ZVAL   =  14.00  6.00
  Atomic Wigner-Seitz radii
   RWIGS  =  -1.00 -1.00
  virtual crystal weights 
   VCA    =   1.00  1.00
   NELECT =     160.0000    total number of electrons
   NUPDOWN=      -1.0000    fix difference up-down

 DOS related values:
   EMIN   =  10.00;   EMAX   =-10.00  energy-range for DOS
   EFERMI =   0.00;   METHOD = LEGACY      
   ISMEAR =    -5;   SIGMA  =   0.05  broadening in eV -4-tet -1-fermi 0-gaus

 Electronic relaxation 2 (details)
   IALGO  =     68    algorithm
   LDIAG  =      T    sub-space diagonalisation (order eigenvalues)
   LSUBROT=      F    optimize rotation matrix (better conditioning)
   TURBO    =      0    0=normal 1=particle mesh
   IRESTART =      0    0=no restart 2=restart with 2 vectors
   NREBOOT  =      0    no. of reboots
   NMIN     =      0    reboot dimension
   EREF     =   0.00    reference energy to select bands
   IMIX   =      4    mixing-type and parameters
     AMIX     =   0.40;   BMIX     =  1.00
     AMIX_MAG =   1.60;   BMIX_MAG =  1.00
     AMIN     =   0.10
     WC   =   100.;   INIMIX=   1;  MIXPRE=   1;  MAXMIX= -45

 Intra band minimization:
   WEIMIN = 0.0000     energy-eigenvalue tresh-hold
   EBREAK =  0.50E-06  absolut break condition
   DEPER  =   0.30     relativ break condition  

   TIME   =   0.40     timestep for ELM

  volume/ion in A,a.u.               =      17.75       119.78
  Fermi-wavevector in a.u.,A,eV,Ry     =   1.352100  2.555098 24.873811  1.828174
  Thomas-Fermi vector in A             =   2.479467
 
 Write flags
   LWAVE        =      F    write WAVECAR
   LDOWNSAMPLE  =      F    k-point downsampling of WAVECAR
   LCHARG       =      T    write CHGCAR
   LVTOT        =      F    write LOCPOT, total local potential
   LVHAR        =      F    write LOCPOT, Hartree potential only
   LELF         =      F    write electronic localiz. function (ELF)
   LORBIT       =     11    0 simple, 1 ext, 2 COOP (PROOUT), +10 PAW based schemes


 Dipole corrections
   LMONO  =      F    monopole corrections only (constant potential shift)
   LDIPOL =      F    correct potential (dipole corrections)
   IDIPOL =      0    1-x, 2-y, 3-z, 4-all directions 
   EPSILON=  1.0000000 bulk dielectric constant

 Exchange correlation treatment:
   GGA     =    --    GGA type
   LEXCH   =     8    internal setting for exchange type
   LIBXC   =     F    Libxc                    
   VOSKOWN =     0    Vosko Wilk Nusair interpolation
   LHFCALC =     F    Hartree Fock is set to
   LHFONE  =     F    Hartree Fock one center treatment
   AEXX    =    0.0000 exact exchange contribution

 Linear response parameters
   LEPSILON=     F    determine dielectric tensor
   LRPA    =     F    only Hartree local field effects (RPA)
   LNABLA  =     F    use nabla operator in PAW spheres
   LVEL    =     F    velocity operator in full k-point grid
   CSHIFT  =0.1000    complex shift for real part using Kramers Kronig
   OMEGAMAX=  -1.0    maximum frequency
   DEG_THRESHOLD= 0.2000000E-02 threshold for treating states as degnerate
   RTIME   =   -0.100 relaxation time in fs
  (WPLASMAI=    0.000 imaginary part of plasma frequency in eV, 0.658/RTIME)
   DFIELD  = 0.0000000 0.0000000 0.0000000 field for delta impulse in time
 
  Optional k-point grid parameters
   LKPOINTS_OPT  =     F    use optional k-point grid
   KPOINTS_OPT_MODE=     1    mode for optional k-point grid
 
 Orbital magnetization related:
   ORBITALMAG=     F  switch on orbital magnetization
   LCHIMAG   =     F  perturbation theory with respect to B field
   DQ        =  0.001000  dq finite difference perturbation B field
   LLRAUG    =     F  two centre corrections for induced B field
   LBONE     =     F  B-component reconstruction in AE one-centre
   LVGVCALC  =     T  calculate vGv susceptibility
   LVGVAPPL  =     F  apply vGv susceptibility instead of pGv for G=0

 Random number generation:
   RANDOM_GENERATOR = DEFAULT
   PCG_SEED         = not used


--------------------------------------------------------------------------------------------------------


 Static calculation
 charge density and potential will be updated during run
 spin polarized calculation
 RMM-DIIS sequential band-by-band and
  variant of blocked Davidson during initial phase
 perform sub-space diagonalisation
    before iterative eigenvector-optimisation
 modified Broyden-mixing scheme, WC =      100.0
 initial mixing is a Kerker type mixing with AMIX =  0.4000 and BMIX =      1.0000
 Hartree-type preconditioning will be used
 using additional bands           20
 real space projection scheme for non local part
 use partial core corrections
 calculate Harris-corrections to forces 
   (improved forces if not selfconsistent)
 use gradient corrections 
 use of overlap-Matrix (Vanderbilt PP)
 Fermi weights with tetrahedron method with Bloechl corrections


--------------------------------------------------------------------------------------------------------


  energy-cutoff  :      550.00
  volume of cell :      284.00
      direct lattice vectors                 reciprocal lattice vectors
     4.746790211 -5.490104264  0.000000000     0.105334337 -0.091072952  0.000000000
     4.746790211  5.490104264  0.000000000     0.105334337  0.091072952  0.000000000
     0.000000000  0.000000000  5.448885903     0.000000000  0.000000000  0.183523755

  length of vectors
     7.257634747  7.257634747  5.448885903     0.139246562  0.139246562  0.183523755


 
 k-points in units of 2pi/SCALE and weight: KPOINTS                                 
   0.00000000  0.00000000  0.00000000       0.002
   0.01504776 -0.01301042  0.00000000       0.009
   0.03009552 -0.02602084  0.00000000       0.009
   0.04514329 -0.03903126  0.00000000       0.009
   0.03009552 -0.00000000  0.00000000       0.005
   0.04514329 -0.01301042  0.00000000       0.009
   0.06019105 -0.02602084  0.00000000       0.009
  -0.03009552  0.05204169  0.00000000       0.009
  -0.01504776  0.03903126  0.00000000       0.009
   0.00000000  0.02602084  0.00000000       0.005
   0.06019105 -0.00000000  0.00000000       0.005
   0.07523881 -0.01301042  0.00000000       0.009
  -0.01504776  0.06505211  0.00000000       0.009
   0.00000000  0.05204169  0.00000000       0.005
   0.09028657 -0.00000000  0.00000000       0.005
  -0.00000000  0.07806253  0.00000000       0.005
   0.00000000  0.00000000  0.02039153       0.005
   0.01504776 -0.01301042  0.02039153       0.018
   0.03009552 -0.02602084  0.02039153       0.018
   0.04514329 -0.03903126  0.02039153       0.018
   0.03009552 -0.00000000  0.02039153       0.009
   0.04514329 -0.01301042  0.02039153       0.018
   0.06019105 -0.02602084  0.02039153       0.018
  -0.03009552  0.05204169  0.02039153       0.018
  -0.01504776  0.03903126  0.02039153       0.018
   0.00000000  0.02602084  0.02039153       0.009
   0.06019105 -0.00000000  0.02039153       0.009
   0.07523881 -0.01301042  0.02039153       0.018
  -0.01504776  0.06505211  0.02039153       0.018
   0.00000000  0.05204169  0.02039153       0.009
   0.09028657 -0.00000000  0.02039153       0.009
  -0.00000000  0.07806253  0.02039153       0.009
   0.00000000  0.00000000  0.04078306       0.005
   0.01504776 -0.01301042  0.04078306       0.018
   0.03009552 -0.02602084  0.04078306       0.018
   0.04514329 -0.03903126  0.04078306       0.018
   0.03009552 -0.00000000  0.04078306       0.009
   0.04514329 -0.01301042  0.04078306       0.018
   0.06019105 -0.02602084  0.04078306       0.018
  -0.03009552  0.05204169  0.04078306       0.018
  -0.01504776  0.03903126  0.04078306       0.018
   0.00000000  0.02602084  0.04078306       0.009
   0.06019105 -0.00000000  0.04078306       0.009
   0.07523881 -0.01301042  0.04078306       0.018
  -0.01504776  0.06505211  0.04078306       0.018
   0.00000000  0.05204169  0.04078306       0.009
   0.09028657 -0.00000000  0.04078306       0.009
  -0.00000000  0.07806253  0.04078306       0.009
   0.00000000  0.00000000  0.06117458       0.005
   0.01504776 -0.01301042  0.06117458       0.018
   0.03009552 -0.02602084  0.06117458       0.018
   0.04514329 -0.03903126  0.06117458       0.018
   0.03009552 -0.00000000  0.06117458       0.009
   0.04514329 -0.01301042  0.06117458       0.018
   0.06019105 -0.02602084  0.06117458       0.018
  -0.03009552  0.05204169  0.06117458       0.018
  -0.01504776  0.03903126  0.06117458       0.018
   0.00000000  0.02602084  0.06117458       0.009
   0.06019105 -0.00000000  0.06117458       0.009
   0.07523881 -0.01301042  0.06117458       0.018
  -0.01504776  0.06505211  0.06117458       0.018
   0.00000000  0.05204169  0.06117458       0.009
   0.09028657 -0.00000000  0.06117458       0.009
  -0.00000000  0.07806253  0.06117458       0.009
   0.00000000  0.00000000  0.08156611       0.005
   0.01504776 -0.01301042  0.08156611       0.018
   0.03009552 -0.02602084  0.08156611       0.018
   0.04514329 -0.03903126  0.08156611       0.018
   0.03009552 -0.00000000  0.08156611       0.009
   0.04514329 -0.01301042  0.08156611       0.018
   0.06019105 -0.02602084  0.08156611       0.018
  -0.03009552  0.05204169  0.08156611       0.018
  -0.01504776  0.03903126  0.08156611       0.018
   0.00000000  0.02602084  0.08156611       0.009
   0.06019105 -0.00000000  0.08156611       0.009
   0.07523881 -0.01301042  0.08156611       0.018
  -0.01504776  0.06505211  0.08156611       0.018
   0.00000000  0.05204169  0.08156611       0.009
   0.09028657 -0.00000000  0.08156611       0.009
  -0.00000000  0.07806253  0.08156611       0.009
 
 k-points in reciprocal lattice and weights: KPOINTS                                 
   0.00000000  0.00000000  0.00000000       0.002
   0.14285714  0.00000000  0.00000000       0.009
   0.28571429  0.00000000  0.00000000       0.009
   0.42857143  0.00000000  0.00000000       0.009
   0.14285714  0.14285714  0.00000000       0.005
   0.28571429  0.14285714  0.00000000       0.009
   0.42857143  0.14285714  0.00000000       0.009
  -0.42857143  0.14285714  0.00000000       0.009
  -0.28571429  0.14285714  0.00000000       0.009
  -0.14285714  0.14285714  0.00000000       0.005
   0.28571429  0.28571429  0.00000000       0.005
   0.42857143  0.28571429  0.00000000       0.009
  -0.42857143  0.28571429  0.00000000       0.009
  -0.28571429  0.28571429  0.00000000       0.005
   0.42857143  0.42857143  0.00000000       0.005
  -0.42857143  0.42857143  0.00000000       0.005
   0.00000000  0.00000000  0.11111111       0.005
   0.14285714  0.00000000  0.11111111       0.018
   0.28571429  0.00000000  0.11111111       0.018
   0.42857143  0.00000000  0.11111111       0.018
   0.14285714  0.14285714  0.11111111       0.009
   0.28571429  0.14285714  0.11111111       0.018
   0.42857143  0.14285714  0.11111111       0.018
  -0.42857143  0.14285714  0.11111111       0.018
  -0.28571429  0.14285714  0.11111111       0.018
  -0.14285714  0.14285714  0.11111111       0.009
   0.28571429  0.28571429  0.11111111       0.009
   0.42857143  0.28571429  0.11111111       0.018
  -0.42857143  0.28571429  0.11111111       0.018
  -0.28571429  0.28571429  0.11111111       0.009
   0.42857143  0.42857143  0.11111111       0.009
  -0.42857143  0.42857143  0.11111111       0.009
   0.00000000  0.00000000  0.22222222       0.005
   0.14285714  0.00000000  0.22222222       0.018
   0.28571429  0.00000000  0.22222222       0.018
   0.42857143  0.00000000  0.22222222       0.018
   0.14285714  0.14285714  0.22222222       0.009
   0.28571429  0.14285714  0.22222222       0.018
   0.42857143  0.14285714  0.22222222       0.018
  -0.42857143  0.14285714  0.22222222       0.018
  -0.28571429  0.14285714  0.22222222       0.018
  -0.14285714  0.14285714  0.22222222       0.009
   0.28571429  0.28571429  0.22222222       0.009
   0.42857143  0.28571429  0.22222222       0.018
  -0.42857143  0.28571429  0.22222222       0.018
  -0.28571429  0.28571429  0.22222222       0.009
   0.42857143  0.42857143  0.22222222       0.009
  -0.42857143  0.42857143  0.22222222       0.009
   0.00000000  0.00000000  0.33333333       0.005
   0.14285714  0.00000000  0.33333333       0.018
   0.28571429  0.00000000  0.33333333       0.018
   0.42857143  0.00000000  0.33333333       0.018
   0.14285714  0.14285714  0.33333333       0.009
   0.28571429  0.14285714  0.33333333       0.018
   0.42857143  0.14285714  0.33333333       0.018
  -0.42857143  0.14285714  0.33333333       0.018
  -0.28571429  0.14285714  0.33333333       0.018
  -0.14285714  0.14285714  0.33333333       0.009
   0.28571429  0.28571429  0.33333333       0.009
   0.42857143  0.28571429  0.33333333       0.018
  -0.42857143  0.28571429  0.33333333       0.018
  -0.28571429  0.28571429  0.33333333       0.009
   0.42857143  0.42857143  0.33333333       0.009
  -0.42857143  0.42857143  0.33333333       0.009
   0.00000000  0.00000000  0.44444444       0.005
   0.14285714  0.00000000  0.44444444       0.018
   0.28571429  0.00000000  0.44444444       0.018
   0.42857143  0.00000000  0.44444444       0.018
   0.14285714  0.14285714  0.44444444       0.009
   0.28571429  0.14285714  0.44444444       0.018
   0.42857143  0.14285714  0.44444444       0.018
  -0.42857143  0.14285714  0.44444444       0.018
  -0.28571429  0.14285714  0.44444444       0.018
  -0.14285714  0.14285714  0.44444444       0.009
   0.28571429  0.28571429  0.44444444       0.009
   0.42857143  0.28571429  0.44444444       0.018
  -0.42857143  0.28571429  0.44444444       0.018
  -0.28571429  0.28571429  0.44444444       0.009
   0.42857143  0.42857143  0.44444444       0.009
  -0.42857143  0.42857143  0.44444444       0.009
 
 position of ions in fractional coordinates (direct lattice) 
   0.00000000  0.00000000  0.00000000
   0.00000000  0.50000000  0.00000000
   0.50000000  0.00000000  0.00000000
   0.50000000  0.50000000  0.00000000
   0.25000000  0.25000000  0.00000000
   0.25000000  0.75000000  0.00000000
   0.75000000  0.25000000  0.00000000
   0.75000000  0.75000000  0.00000000
   0.37500000  0.12500000  0.66418363
   0.37500000  0.62500000  0.66418363
   0.87500000  0.12500000  0.66418363
   0.87500000  0.62500000  0.66418363
   0.12500000  0.37500000  0.33581637
   0.12500000  0.87500000  0.33581637
   0.62500000  0.37500000  0.33581637
   0.62500000  0.87500000  0.33581637
 
 position of ions in cartesian coordinates  (Angst):
   0.00000000  0.00000000  0.00000000
   2.37339511  2.74505213  0.00000000
   2.37339511 -2.74505213  0.00000000
   4.74679021  0.00000000  0.00000000
   2.37339511  0.00000000  0.00000000
   4.74679021  2.74505213  0.00000000
   4.74679021 -2.74505213  0.00000000
   7.12018532 -0.00000000  0.00000000
   2.37339511 -1.37252607  3.61906080
   4.74679021  1.37252607  3.61906080
   4.74679021 -4.11757820  3.61906080
   7.12018532 -1.37252607  3.61906080
   2.37339511  1.37252607  1.82982510
   4.74679021  4.11757820  1.82982510
   4.74679021 -1.37252607  1.82982510
   7.12018532  1.37252607  1.82982510
 


--------------------------------------------------------------------------------------------------------


 k-point   1 :   0.0000 0.0000 0.0000  plane waves:    8283
 k-point   2 :   0.1429 0.0000 0.0000  plane waves:    8312
 k-point   3 :   0.2857 0.0000 0.0000  plane waves:    8324
 k-point   4 :   0.4286 0.0000 0.0000  plane waves:    8337
 k-point   5 :   0.1429 0.1429 0.0000  plane waves:    8350
 k-point   6 :   0.2857 0.1429 0.0000  plane waves:    8334
 k-point   7 :   0.4286 0.1429 0.0000  plane waves:    8331
 k-point   8 :  -0.4286 0.1429 0.0000  plane waves:    8325
 k-point   9 :  -0.2857 0.1429 0.0000  plane waves:    8312
 k-point  10 :  -0.1429 0.1429 0.0000  plane waves:    8303
 k-point  11 :   0.2857 0.2857 0.0000  plane waves:    8324
 k-point  12 :   0.4286 0.2857 0.0000  plane waves:    8344
 k-point  13 :  -0.4286 0.2857 0.0000  plane waves:    8336
 k-point  14 :  -0.2857 0.2857 0.0000  plane waves:    8319
 k-point  15 :   0.4286 0.4286 0.0000  plane waves:    8334
 k-point  16 :  -0.4286 0.4286 0.0000  plane waves:    8343
 k-point  17 :   0.0000 0.0000 0.1111  plane waves:    8331
 k-point  18 :   0.1429 0.0000 0.1111  plane waves:    8325
 k-point  19 :   0.2857 0.0000 0.1111  plane waves:    8330
 k-point  20 :   0.4286 0.0000 0.1111  plane waves:    8336
 k-point  21 :   0.1429 0.1429 0.1111  plane waves:    8334
 k-point  22 :   0.2857 0.1429 0.1111  plane waves:    8326
 k-point  23 :   0.4286 0.1429 0.1111  plane waves:    8332
 k-point  24 :  -0.4286 0.1429 0.1111  plane waves:    8326
 k-point  25 :  -0.2857 0.1429 0.1111  plane waves:    8319
 k-point  26 :  -0.1429 0.1429 0.1111  plane waves:    8312
 k-point  27 :   0.2857 0.2857 0.1111  plane waves:    8324
 k-point  28 :   0.4286 0.2857 0.1111  plane waves:    8325
 k-point  29 :  -0.4286 0.2857 0.1111  plane waves:    8325
 k-point  30 :  -0.2857 0.2857 0.1111  plane waves:    8320
 k-point  31 :   0.4286 0.4286 0.1111  plane waves:    8321
 k-point  32 :  -0.4286 0.4286 0.1111  plane waves:    8326
 k-point  33 :   0.0000 0.0000 0.2222  plane waves:    8321
 k-point  34 :   0.1429 0.0000 0.2222  plane waves:    8307
 k-point  35 :   0.2857 0.0000 0.2222  plane waves:    8315
 k-point  36 :   0.4286 0.0000 0.2222  plane waves:    8329
 k-point  37 :   0.1429 0.1429 0.2222  plane waves:    8313
 k-point  38 :   0.2857 0.1429 0.2222  plane waves:    8327
 k-point  39 :   0.4286 0.1429 0.2222  plane waves:    8319
 k-point  40 :  -0.4286 0.1429 0.2222  plane waves:    8315
 k-point  41 :  -0.2857 0.1429 0.2222  plane waves:    8317
 k-point  42 :  -0.1429 0.1429 0.2222  plane waves:    8328
 k-point  43 :   0.2857 0.2857 0.2222  plane waves:    8318
 k-point  44 :   0.4286 0.2857 0.2222  plane waves:    8328
 k-point  45 :  -0.4286 0.2857 0.2222  plane waves:    8327
 k-point  46 :  -0.2857 0.2857 0.2222  plane waves:    8325
 k-point  47 :   0.4286 0.4286 0.2222  plane waves:    8301
 k-point  48 :  -0.4286 0.4286 0.2222  plane waves:    8320
 k-point  49 :   0.0000 0.0000 0.3333  plane waves:    8309
 k-point  50 :   0.1429 0.0000 0.3333  plane waves:    8297
 k-point  51 :   0.2857 0.0000 0.3333  plane waves:    8305
 k-point  52 :   0.4286 0.0000 0.3333  plane waves:    8316
 k-point  53 :   0.1429 0.1429 0.3333  plane waves:    8303
 k-point  54 :   0.2857 0.1429 0.3333  plane waves:    8312
 k-point  55 :   0.4286 0.1429 0.3333  plane waves:    8323
 k-point  56 :  -0.4286 0.1429 0.3333  plane waves:    8318
 k-point  57 :  -0.2857 0.1429 0.3333  plane waves:    8322
 k-point  58 :  -0.1429 0.1429 0.3333  plane waves:    8296
 k-point  59 :   0.2857 0.2857 0.3333  plane waves:    8312
 k-point  60 :   0.4286 0.2857 0.3333  plane waves:    8313
 k-point  61 :  -0.4286 0.2857 0.3333  plane waves:    8320
 k-point  62 :  -0.2857 0.2857 0.3333  plane waves:    8335
 k-point  63 :   0.4286 0.4286 0.3333  plane waves:    8325
 k-point  64 :  -0.4286 0.4286 0.3333  plane waves:    8314
 k-point  65 :   0.0000 0.0000 0.4444  plane waves:    8278
 k-point  66 :   0.1429 0.0000 0.4444  plane waves:    8287
 k-point  67 :   0.2857 0.0000 0.4444  plane waves:    8309
 k-point  68 :   0.4286 0.0000 0.4444  plane waves:    8304
 k-point  69 :   0.1429 0.1429 0.4444  plane waves:    8266
 k-point  70 :   0.2857 0.1429 0.4444  plane waves:    8292
 k-point  71 :   0.4286 0.1429 0.4444  plane waves:    8304
 k-point  72 :  -0.4286 0.1429 0.4444  plane waves:    8301
 k-point  73 :  -0.2857 0.1429 0.4444  plane waves:    8312
 k-point  74 :  -0.1429 0.1429 0.4444  plane waves:    8307
 k-point  75 :   0.2857 0.2857 0.4444  plane waves:    8314
 k-point  76 :   0.4286 0.2857 0.4444  plane waves:    8326
 k-point  77 :  -0.4286 0.2857 0.4444  plane waves:    8317
 k-point  78 :  -0.2857 0.2857 0.4444  plane waves:    8322
 k-point  79 :   0.4286 0.4286 0.4444  plane waves:    8324
 k-point  80 :  -0.4286 0.4286 0.4444  plane waves:    8323

 maximum and minimum number of plane-waves per node :      8350     8266

 maximum number of plane-waves:      8350
 maximum index in each direction: 
   IXMAX=   14   IYMAX=   13   IZMAX=   10
   IXMIN=  -14   IYMIN=  -14   IZMIN=  -10


 serial   3D FFT for wavefunctions
 parallel 3D FFT for charge:
    minimum data exchange during FFTs selected (reduces bandwidth)


 total amount of memory used by VASP MPI-rank0   170197. kBytes
=======================================================================

   base      :      30000. kBytes
   nonlr-proj:      11667. kBytes
   fftplans  :       2458. kBytes
   grid      :      15239. kBytes
   one-center:        497. kBytes
   wavefun   :     110336. kBytes
 
     INWAV:  cpu time      0.0000: real time      0.0001
 Broyden mixing: mesh for mixing (old mesh)
   NGX = 27   NGY = 27   NGZ = 21
  (NGX  =112   NGY  =112   NGZ  = 84)
  gives a total of  15309 points

 initial charge density was supplied:
 charge density of overlapping atoms calculated
 number of electron     160.0000000 magnetization      -0.0000000
 keeping initial charge density in first step


--------------------------------------------------------------------------------------------------------


 Maximum index for non-local projection operator         5729
 Maximum index for augmentation-charges         1134 (set IRDMAX)


--------------------------------------------------------------------------------------------------------


 First call to EWALD:  gamma=   0.270
 Maximum number of real-space cells 3x 3x 3
 Maximum number of reciprocal cells 3x 3x 2

    FEWALD:  cpu time      0.0017: real time      0.0017


--------------------------------------- Ionic step        1  -------------------------------------------




--------------------------------------- Iteration      1(   1)  ---------------------------------------


    POTLOK:  cpu time      0.0487: real time      0.0630
    SETDIJ:  cpu time      0.2712: real time      0.2721
     EDDAV:  cpu time     23.3682: real time     23.4545
 BZINTS: Fermi energy:   21.822101;  160.000000 electrons
         Band energy: 0.256264E+02;  BLOECHL correction:   -0.120603
       DOS:  cpu time      0.1353: real time      0.1357
    --------------------------------------------
      LOOP:  cpu time     23.8235: real time     23.9253

 eigenvalue-minimisations  : 33660
 total energy-change (2. order) : 0.2049672E+04  (-0.8891200E+04)
 number of electron     160.0000000 magnetization      -0.0000000
 augmentation part      160.0000000 magnetization      -0.0000000

 Free energy of the ion-electron system (eV)
  ---------------------------------------------------
  alpha Z        PSCENC =       894.19572282
  Ewald energy   TEWEN  =    -11965.56027039
  -Hartree energ DENC   =     -8587.07357108
  -exchange      EXHF   =         0.00000000
  -V(xc)+E(xc)   XCENC  =       567.48191732
  PAW double counting   =     15528.72565014   -16124.56460271
  entropy T*S    EENTRO =         0.00000000
  eigenvalues    EBANDS =        25.62643241
  atomic energy  EATOM  =     21710.84102437
  Solvation  Ediel_sol  =         0.00000000
  ---------------------------------------------------
  free energy    TOTEN  =      2049.67230287 eV

  energy without entropy =     2049.67230287  energy(sigma->0) =     2049.67230287


--------------------------------------------------------------------------------------------------------




--------------------------------------- Iteration      1(   2)  ---------------------------------------


     EDDAV:  cpu time     22.1909: real time     22.2728
 BZINTS: Fermi energy:    7.889072;  160.000000 electrons
         Band energy:-0.190369E+04;  BLOECHL correction:   -0.029316
       DOS:  cpu time      0.1200: real time      0.1203
    --------------------------------------------
      LOOP:  cpu time     22.3109: real time     22.3931

 eigenvalue-minimisations  : 32000
 total energy-change (2. order) :-0.1929320E+04  (-0.1872744E+04)
 number of electron     160.0000000 magnetization      -0.0000000
 augmentation part      160.0000000 magnetization      -0.0000000

 Free energy of the ion-electron system (eV)
  ---------------------------------------------------
  alpha Z        PSCENC =       894.19572282
  Ewald energy   TEWEN  =    -11965.56027039
  -Hartree energ DENC   =     -8587.07357108
  -exchange      EXHF   =         0.00000000
  -V(xc)+E(xc)   XCENC  =       567.48191732
  PAW double counting   =     15528.72565014   -16124.56460271
  entropy T*S    EENTRO =         0.00000000
  eigenvalues    EBANDS =     -1903.69381506
  atomic energy  EATOM  =     21710.84102437
  Solvation  Ediel_sol  =         0.00000000
  ---------------------------------------------------
  free energy    TOTEN  =       120.35205540 eV

  energy without entropy =      120.35205540  energy(sigma->0) =      120.35205540


--------------------------------------------------------------------------------------------------------




--------------------------------------- Iteration      1(   3)  ---------------------------------------


     EDDAV:  cpu time     29.6171: real time     29.7632
 BZINTS: Fermi energy:    5.940017;  160.000000 electrons
         Band energy:-0.210783E+04;  BLOECHL correction:   -0.020706
       DOS:  cpu time      0.1290: real time      0.1293
    --------------------------------------------
      LOOP:  cpu time     29.7461: real time     29.8925

 eigenvalue-minimisations  : 44800
 total energy-change (2. order) :-0.2041369E+03  (-0.1805629E+03)
 number of electron     160.0000000 magnetization      -0.0000000
 augmentation part      160.0000000 magnetization      -0.0000000

 Free energy of the ion-electron system (eV)
  ---------------------------------------------------
  alpha Z        PSCENC =       894.19572282
  Ewald energy   TEWEN  =    -11965.56027039
  -Hartree energ DENC   =     -8587.07357108
  -exchange      EXHF   =         0.00000000
  -V(xc)+E(xc)   XCENC  =       567.48191732
  PAW double counting   =     15528.72565014   -16124.56460271
  entropy T*S    EENTRO =         0.00000000
  eigenvalues    EBANDS =     -2107.83067351
  atomic energy  EATOM  =     21710.84102437
  Solvation  Ediel_sol  =         0.00000000
  ---------------------------------------------------
  free energy    TOTEN  =       -83.78480305 eV

  energy without entropy =      -83.78480305  energy(sigma->0) =      -83.78480305


--------------------------------------------------------------------------------------------------------




--------------------------------------- Iteration      1(   4)  ---------------------------------------


     EDDAV:  cpu time     30.4543: real time     30.5647
 BZINTS: Fermi energy:    5.813615;  160.000000 electrons
         Band energy:-0.212170E+04;  BLOECHL correction:   -0.019414
       DOS:  cpu time      0.1292: real time      0.1296
    --------------------------------------------
      LOOP:  cpu time     30.5835: real time     30.6942

 eigenvalue-minimisations  : 46440
 total energy-change (2. order) :-0.1386941E+02  (-0.1347592E+02)
 number of electron     160.0000000 magnetization      -0.0000000
 augmentation part      160.0000000 magnetization      -0.0000000

 Free energy of the ion-electron system (eV)
  ---------------------------------------------------
  alpha Z        PSCENC =       894.19572282
  Ewald energy   TEWEN  =    -11965.56027039
  -Hartree energ DENC   =     -8587.07357108
  -exchange      EXHF   =         0.00000000
  -V(xc)+E(xc)   XCENC  =       567.48191732
  PAW double counting   =     15528.72565014   -16124.56460271
  entropy T*S    EENTRO =         0.00000000
  eigenvalues    EBANDS =     -2121.70008338
  atomic energy  EATOM  =     21710.84102437
  Solvation  Ediel_sol  =         0.00000000
  ---------------------------------------------------
  free energy    TOTEN  =       -97.65421292 eV

  energy without entropy =      -97.65421292  energy(sigma->0) =      -97.65421292


--------------------------------------------------------------------------------------------------------




--------------------------------------- Iteration      1(   5)  ---------------------------------------


     EDDAV:  cpu time     31.0729: real time     32.5621
 BZINTS: Fermi energy:    5.809933;  160.000000 electrons
         Band energy:-0.212204E+04;  BLOECHL correction:   -0.019300
       DOS:  cpu time      0.1209: real time      0.1212
    CHARGE:  cpu time      0.6059: real time      0.6091
    MIXING:  cpu time      0.0014: real time      0.0014
    --------------------------------------------
      LOOP:  cpu time     31.8011: real time     33.2939

 eigenvalue-minimisations  : 45380
 total energy-change (2. order) :-0.3361480E+00  (-0.3352914E+00)
 number of electron     159.9999795 magnetization       0.0000000
 augmentation part       53.3300137 magnetization       0.0000000

 Broyden mixing:
  rms(total) = 0.26575E+01    rms(broyden)= 0.26572E+01
  rms(prec ) = 0.41843E+01
  weight for this iteration     100.00

 Free energy of the ion-electron system (eV)
  ---------------------------------------------------
  alpha Z        PSCENC =       894.19572282
  Ewald energy   TEWEN  =    -11965.56027039
  -Hartree energ DENC   =     -8587.07357108
  -exchange      EXHF   =         0.00000000
  -V(xc)+E(xc)   XCENC  =       567.48191732
  PAW double counting   =     15528.72565014   -16124.56460271
  entropy T*S    EENTRO =         0.00000000
  eigenvalues    EBANDS =     -2122.03623143
  atomic energy  EATOM  =     21710.84102437
  Solvation  Ediel_sol  =         0.00000000
  ---------------------------------------------------
  free energy    TOTEN  =       -97.99036097 eV

  energy without entropy =      -97.99036097  energy(sigma->0) =      -97.99036097


--------------------------------------------------------------------------------------------------------




--------------------------------------- Iteration      1(   6)  ---------------------------------------


    POTLOK:  cpu time      0.3881: real time      0.3892
    SETDIJ:  cpu time      0.2748: real time      0.2756
    EDDIAG:  cpu time      3.6391: real time      3.6531
  RMM-DIIS:  cpu time     13.9609: real time     14.0031
    ORTHCH:  cpu time      0.5647: real time      0.5667
 BZINTS: Fermi energy:    2.976944;  160.000000 electrons
         Band energy:-0.258901E+04;  BLOECHL correction:   -0.036239
       DOS:  cpu time      0.1308: real time      0.1312
    CHARGE:  cpu time      0.6258: real time      0.6292
    MIXING:  cpu time      0.0012: real time      0.0013
    --------------------------------------------
      LOOP:  cpu time     19.5856: real time     19.6493

 eigenvalue-minimisations  : 34654
 total energy-change (2. order) :-0.1342191E+02  (-0.1531802E+02)
 number of electron     159.9999746 magnetization      -0.0000000
 augmentation part       69.3512915 magnetization      -0.0000000

 Broyden mixing:
  rms(total) = 0.47135E+01    rms(broyden)= 0.47134E+01
  rms(prec ) = 0.78417E+01
  weight for this iteration     100.00

 eigenvalues of (default mixing * dielectric matrix)
  average eigenvalue GAMMA=   0.3191
  0.3191

 Free energy of the ion-electron system (eV)
  ---------------------------------------------------
  alpha Z        PSCENC =       894.19572282
  Ewald energy   TEWEN  =    -11965.56027039
  -Hartree energ DENC   =     -8152.19168044
  -exchange      EXHF   =         0.00000000
  -V(xc)+E(xc)   XCENC  =       555.31134473
  PAW double counting   =     15052.54900744   -15617.54966382
  entropy T*S    EENTRO =         0.00000000
  eigenvalues    EBANDS =     -2589.00775590
  atomic energy  EATOM  =     21710.84102437
  Solvation  Ediel_sol  =         0.00000000
  ---------------------------------------------------
  free energy    TOTEN  =      -111.41227119 eV

  energy without entropy =     -111.41227119  energy(sigma->0) =     -111.41227119


--------------------------------------------------------------------------------------------------------




--------------------------------------- Iteration      1(   7)  ---------------------------------------


    POTLOK:  cpu time      0.0408: real time      0.0410
    SETDIJ:  cpu time      0.2761: real time      0.2770
    EDDIAG:  cpu time      3.7100: real time      3.7230
  RMM-DIIS:  cpu time     12.7563: real time     12.7970
    ORTHCH:  cpu time      0.5664: real time      0.5683
 BZINTS: Fermi energy:    4.762041;  160.000000 electrons
         Band energy:-0.227553E+04;  BLOECHL correction:   -0.020670
       DOS:  cpu time      0.1276: real time      0.1280
    CHARGE:  cpu time      0.6267: real time      0.6292
    MIXING:  cpu time      0.0014: real time      0.0014
    --------------------------------------------
      LOOP:  cpu time     18.1052: real time     18.1649

 eigenvalue-minimisations  : 32068
 total energy-change (2. order) : 0.2106018E+02  (-0.3899150E+01)
 number of electron     159.9999786 magnetization      -0.0000000
 augmentation part       58.1470104 magnetization      -0.0000000

 Broyden mixing:
  rms(total) = 0.91371E+00    rms(broyden)= 0.91310E+00
  rms(prec ) = 0.10880E+01
  weight for this iteration     100.00

 eigenvalues of (default mixing * dielectric matrix)
  average eigenvalue GAMMA=   0.4485
  0.6235  0.2735

 Free energy of the ion-electron system (eV)
  ---------------------------------------------------
  alpha Z        PSCENC =       894.19572282
  Ewald energy   TEWEN  =    -11965.56027039
  -Hartree energ DENC   =     -8418.31685520
  -exchange      EXHF   =         0.00000000
  -V(xc)+E(xc)   XCENC  =       560.56070215
  PAW double counting   =     15526.43798403   -16122.98382990
  entropy T*S    EENTRO =         0.00000000
  eigenvalues    EBANDS =     -2275.52656878
  atomic energy  EATOM  =     21710.84102437
  Solvation  Ediel_sol  =         0.00000000
  ---------------------------------------------------
  free energy    TOTEN  =       -90.35209091 eV

  energy without entropy =      -90.35209091  energy(sigma->0) =      -90.35209091


--------------------------------------------------------------------------------------------------------




--------------------------------------- Iteration      1(   8)  ---------------------------------------


    POTLOK:  cpu time      0.0425: real time      0.0837
    SETDIJ:  cpu time      0.2728: real time      0.2734
    EDDIAG:  cpu time      3.4787: real time      3.4904
  RMM-DIIS:  cpu time     17.7442: real time     17.7997
    ORTHCH:  cpu time      0.5577: real time      0.5596
 BZINTS: Fermi energy:    4.760611;  160.000000 electrons
         Band energy:-0.227981E+04;  BLOECHL correction:   -0.020306
       DOS:  cpu time      0.1299: real time      0.1303
    CHARGE:  cpu time      0.6025: real time      0.6049
    MIXING:  cpu time      0.0014: real time      0.0014
    --------------------------------------------
      LOOP:  cpu time     22.8298: real time     22.9433

 eigenvalue-minimisations  : 46135
 total energy-change (2. order) :-0.5100493E+00  (-0.3395234E+00)
 number of electron     159.9999787 magnetization      -0.0000000
 augmentation part       58.4957464 magnetization      -0.0000000

 Broyden mixing:
  rms(total) = 0.40816E+00    rms(broyden)= 0.40789E+00
  rms(prec ) = 0.54922E+00
  weight for this iteration     100.00

 eigenvalues of (default mixing * dielectric matrix)
  average eigenvalue GAMMA=   0.7105
  0.3201  0.9057  0.9057

 Free energy of the ion-electron system (eV)
  ---------------------------------------------------
  alpha Z        PSCENC =       894.19572282
  Ewald energy   TEWEN  =    -11965.56027039
  -Hartree energ DENC   =     -8407.77544255
  -exchange      EXHF   =         0.00000000
  -V(xc)+E(xc)   XCENC  =       560.88406572
  PAW double counting   =     15601.95129083   -16205.58876357
  entropy T*S    EENTRO =         0.00000000
  eigenvalues    EBANDS =     -2279.80976747
  atomic energy  EATOM  =     21710.84102437
  Solvation  Ediel_sol  =         0.00000000
  ---------------------------------------------------
  free energy    TOTEN  =       -90.86214023 eV

  energy without entropy =      -90.86214023  energy(sigma->0) =      -90.86214023


--------------------------------------------------------------------------------------------------------




--------------------------------------- Iteration      1(   9)  ---------------------------------------


    POTLOK:  cpu time      0.0409: real time      0.0411
    SETDIJ:  cpu time      0.2732: real time      0.2740
    EDDIAG:  cpu time      3.6373: real time      3.6495
  RMM-DIIS:  cpu time     20.3987: real time     20.4631
    ORTHCH:  cpu time      0.5691: real time      0.5714
 BZINTS: Fermi energy:    4.721047;  160.000000 electrons
         Band energy:-0.228711E+04;  BLOECHL correction:   -0.017704
       DOS:  cpu time      0.1244: real time      0.1251
    CHARGE:  cpu time      0.6225: real time      0.6248
    MIXING:  cpu time      0.0012: real time      0.0012
    --------------------------------------------
      LOOP:  cpu time     25.6673: real time     25.7504

 eigenvalue-minimisations  : 52424
 total energy-change (2. order) :-0.4874754E-01  (-0.7891674E-01)
 number of electron     159.9999788 magnetization      -0.0000000
 augmentation part       58.7758816 magnetization      -0.0000000

 Broyden mixing:
  rms(total) = 0.21750E+00    rms(broyden)= 0.21724E+00
  rms(prec ) = 0.27491E+00
  weight for this iteration     100.00

 eigenvalues of (default mixing * dielectric matrix)
  average eigenvalue GAMMA=   0.9226
  0.3173  1.4938  1.1254  0.7538

 Free energy of the ion-electron system (eV)
  ---------------------------------------------------
  alpha Z        PSCENC =       894.19572282
  Ewald energy   TEWEN  =    -11965.56027039
  -Hartree energ DENC   =     -8394.49146163
  -exchange      EXHF   =         0.00000000
  -V(xc)+E(xc)   XCENC  =       561.04210273
  PAW double counting   =     15696.46312753   -16306.28739025
  entropy T*S    EENTRO =         0.00000000
  eigenvalues    EBANDS =     -2287.11374295
  atomic energy  EATOM  =     21710.84102437
  Solvation  Ediel_sol  =         0.00000000
  ---------------------------------------------------
  free energy    TOTEN  =       -90.91088777 eV

  energy without entropy =      -90.91088777  energy(sigma->0) =      -90.91088777


--------------------------------------------------------------------------------------------------------




--------------------------------------- Iteration      1(  10)  ---------------------------------------


    POTLOK:  cpu time      0.0419: real time      0.0422
    SETDIJ:  cpu time      0.2752: real time      0.2761
    EDDIAG:  cpu time      3.6976: real time      3.7099
  RMM-DIIS:  cpu time     20.2142: real time     20.2759
    ORTHCH:  cpu time      0.5540: real time      0.5559
 BZINTS: Fermi energy:    4.685428;  160.000000 electrons
         Band energy:-0.229042E+04;  BLOECHL correction:   -0.016140
       DOS:  cpu time      0.1270: real time      0.1274
    CHARGE:  cpu time      0.5841: real time      0.5864
    MIXING:  cpu time      0.0015: real time      0.0015
    --------------------------------------------
      LOOP:  cpu time     25.4957: real time     25.5753

 eigenvalue-minimisations  : 51391
 total energy-change (2. order) :-0.5855447E-02  (-0.2029387E-01)
 number of electron     159.9999788 magnetization       0.0000000
 augmentation part       58.9858768 magnetization       0.0000000

 Broyden mixing:
  rms(total) = 0.95974E-01    rms(broyden)= 0.95760E-01
  rms(prec ) = 0.10907E+00
  weight for this iteration     100.00

 eigenvalues of (default mixing * dielectric matrix)
  average eigenvalue GAMMA=   1.0843
  2.4437  0.3171  0.9866  0.9866  0.6876

 Free energy of the ion-electron system (eV)
  ---------------------------------------------------
  alpha Z        PSCENC =       894.19572282
  Ewald energy   TEWEN  =    -11965.56027039
  -Hartree energ DENC   =     -8386.80951678
  -exchange      EXHF   =         0.00000000
  -V(xc)+E(xc)   XCENC  =       561.13753303
  PAW double counting   =     15780.18941432   -16394.48831104
  entropy T*S    EENTRO =         0.00000000
  eigenvalues    EBANDS =     -2290.42233955
  atomic energy  EATOM  =     21710.84102437
  Solvation  Ediel_sol  =         0.00000000
  ---------------------------------------------------
  free energy    TOTEN  =       -90.91674322 eV

  energy without entropy =      -90.91674322  energy(sigma->0) =      -90.91674322


--------------------------------------------------------------------------------------------------------




--------------------------------------- Iteration      1(  11)  ---------------------------------------


    POTLOK:  cpu time      0.0440: real time      0.0878
    SETDIJ:  cpu time      0.2766: real time      0.2772
    EDDIAG:  cpu time      3.6032: real time      3.6175
  RMM-DIIS:  cpu time     20.3168: real time     20.3787
    ORTHCH:  cpu time      0.5647: real time      0.5666
 BZINTS: Fermi energy:    4.692638;  160.000000 electrons
         Band energy:-0.229002E+04;  BLOECHL correction:   -0.016422
       DOS:  cpu time      0.1299: real time      0.1303
    CHARGE:  cpu time      0.6075: real time      0.6099
    MIXING:  cpu time      0.0015: real time      0.0015
    --------------------------------------------
      LOOP:  cpu time     25.5441: real time     25.6695

 eigenvalue-minimisations  : 50410
 total energy-change (2. order) :-0.5214337E-02  (-0.3879012E-02)
 number of electron     159.9999788 magnetization       0.0000000
 augmentation part       58.9835159 magnetization       0.0000000

 Broyden mixing:
  rms(total) = 0.35917E-01    rms(broyden)= 0.35877E-01
  rms(prec ) = 0.41492E-01
  weight for this iteration     100.00

 eigenvalues of (default mixing * dielectric matrix)
  average eigenvalue GAMMA=   1.1064
  2.2321  1.6363  0.3171  0.9019  0.9019  0.6487

 Free energy of the ion-electron system (eV)
  ---------------------------------------------------
  alpha Z        PSCENC =       894.19572282
  Ewald energy   TEWEN  =    -11965.56027039
  -Hartree energ DENC   =     -8385.37244674
  -exchange      EXHF   =         0.00000000
  -V(xc)+E(xc)   XCENC  =       561.18479079
  PAW double counting   =     15826.38648885   -16442.58106295
  entropy T*S    EENTRO =         0.00000000
  eigenvalues    EBANDS =     -2290.01620430
  atomic energy  EATOM  =     21710.84102437
  Solvation  Ediel_sol  =         0.00000000
  ---------------------------------------------------
  free energy    TOTEN  =       -90.92195756 eV

  energy without entropy =      -90.92195756  energy(sigma->0) =      -90.92195756


--------------------------------------------------------------------------------------------------------




--------------------------------------- Iteration      1(  12)  ---------------------------------------


    POTLOK:  cpu time      0.0415: real time      0.0418
    SETDIJ:  cpu time      0.2751: real time      0.2759
    EDDIAG:  cpu time      3.7164: real time      3.7283
  RMM-DIIS:  cpu time     19.3436: real time     19.4091
    ORTHCH:  cpu time      0.5559: real time      0.5578
 BZINTS: Fermi energy:    4.701676;  160.000000 electrons
         Band energy:-0.228932E+04;  BLOECHL correction:   -0.016866
       DOS:  cpu time      0.1298: real time      0.1303
    CHARGE:  cpu time      0.5887: real time      0.5907
    MIXING:  cpu time      0.0016: real time      0.0016
    --------------------------------------------
      LOOP:  cpu time     24.6526: real time     24.7355

 eigenvalue-minimisations  : 47890
 total energy-change (2. order) :-0.4224617E-02  (-0.8660557E-03)
 number of electron     159.9999788 magnetization       0.0000000
 augmentation part       58.9655313 magnetization       0.0000000

 Broyden mixing:
  rms(total) = 0.15795E-01    rms(broyden)= 0.15767E-01
  rms(prec ) = 0.18984E-01
  weight for this iteration     100.00

 eigenvalues of (default mixing * dielectric matrix)
  average eigenvalue GAMMA=   1.1038
  2.4417  1.5046  0.3171  1.0377  1.0377  0.7583  0.6295

 Free energy of the ion-electron system (eV)
  ---------------------------------------------------
  alpha Z        PSCENC =       894.19572282
  Ewald energy   TEWEN  =    -11965.56027039
  -Hartree energ DENC   =     -8386.31005173
  -exchange      EXHF   =         0.00000000
  -V(xc)+E(xc)   XCENC  =       561.18491181
  PAW double counting   =     15827.24686021   -16443.20371503
  entropy T*S    EENTRO =         0.00000000
  eigenvalues    EBANDS =     -2289.32066422
  atomic energy  EATOM  =     21710.84102437
  Solvation  Ediel_sol  =         0.00000000
  ---------------------------------------------------
  free energy    TOTEN  =       -90.92618218 eV

  energy without entropy =      -90.92618218  energy(sigma->0) =      -90.92618218


--------------------------------------------------------------------------------------------------------




--------------------------------------- Iteration      1(  13)  ---------------------------------------


    POTLOK:  cpu time      0.0397: real time      0.0400
    SETDIJ:  cpu time      0.2749: real time      0.2757
    EDDIAG:  cpu time      3.4266: real time      3.4383
  RMM-DIIS:  cpu time     14.0763: real time     14.1203
    ORTHCH:  cpu time      0.5570: real time      0.5588
 BZINTS: Fermi energy:    4.704410;  160.000000 electrons
         Band energy:-0.228913E+04;  BLOECHL correction:   -0.016839
       DOS:  cpu time      0.1298: real time      0.1301
    --------------------------------------------
      LOOP:  cpu time     18.5043: real time     18.5631

 eigenvalue-minimisations  : 34975
 total energy-change (2. order) :-0.1297030E-04  (-0.1965557E-03)
 number of electron     159.9999788 magnetization       0.0000000
 augmentation part       58.9655313 magnetization       0.0000000

 Free energy of the ion-electron system (eV)
  ---------------------------------------------------
  alpha Z        PSCENC =       894.19572282
  Ewald energy   TEWEN  =    -11965.56027039
  -Hartree energ DENC   =     -8386.70116551
  -exchange      EXHF   =         0.00000000
  -V(xc)+E(xc)   XCENC  =       561.20219482
  PAW double counting   =     15826.28964001   -16442.06037629
  entropy T*S    EENTRO =         0.00000000
  eigenvalues    EBANDS =     -2289.13296497
  atomic energy  EATOM  =     21710.84102437
  Solvation  Ediel_sol  =         0.00000000
  ---------------------------------------------------
  free energy    TOTEN  =       -90.92619515 eV

  energy without entropy =      -90.92619515  energy(sigma->0) =      -90.92619515


--------------------------------------------------------------------------------------------------------




 average (electrostatic) potential at core
  the test charge radii are     0.9500  1.0808
  (the norm of the test charge is              1.0000)
       1 -46.4066       2 -46.4066       3 -46.4066       4 -46.4066       5 -46.4066
       6 -46.4066       7 -46.4066       8 -46.4066       9 -54.2640      10 -54.2640
      11 -54.2640      12 -54.2640      13 -54.2640      14 -54.2640      15 -54.2640
      16 -54.2640
 
 
 
 E-fermi :   4.7044     XC(G=0): -10.9544     alpha+bet :-10.2455

 Fermi energy:         4.7044101318

 spin component 1

 k-point     1 :       0.0000    0.0000    0.0000
  band No.  band energies     occupation 
      1     -49.9387      1.00000
      2     -49.9245      1.00000
      3     -49.9245      1.00000
      4     -49.9139      1.00000
      5     -49.8738      1.00000
      6     -49.7754      1.00000
      7     -49.7639      1.00000
      8     -49.7639      1.00000
      9     -49.7503      1.00000
     10     -49.6811      1.00000
     11     -49.6811      1.00000
     12     -49.4848      1.00000
     13     -47.3142      1.00000
     14     -47.3107      1.00000
     15     -47.3107      1.00000
     16     -47.3089      1.00000
     17     -47.2947      1.00000
     18     -47.0831      1.00000
     19     -47.0831      1.00000
     20     -46.9493      1.00000
     21     -46.9487      1.00000
     22     -46.9487      1.00000
     23     -46.9443      1.00000
     24     -46.8670      1.00000
     25     -10.2468      1.00000
     26      -8.7500      1.00000
     27      -8.7500      1.00000
     28      -8.7359      1.00000
     29      -8.7359      1.00000
     30      -8.4433      1.00000
     31      -8.0845      1.00000
     32      -7.8248      1.00000
     33      -1.8149      1.00000
     34      -1.5933      1.00000
     35      -0.7300      1.00000
     36      -0.7300      1.00000
     37      -0.6464      1.00000
     38      -0.6464      1.00000
     39      -0.4298      1.00000
     40       0.0726      1.00000
     41       0.3786      1.00000
     42       0.4035      1.00000
     43       0.6400      1.00000
     44       0.6790      1.00000
     45       0.6790      1.00000
     46       0.6848      1.00000
     47       0.6848      1.00000
     48       0.9030      1.00000
     49       1.0989      1.00000
     50       1.2868      1.00000
     51       1.2868      1.00000
     52       1.7184      1.00000
     53       1.7184      1.00000
     54       1.7997      1.00000
     55       2.0255      1.00000
     56       2.1129      1.00000
     57       2.3191      1.00000
     58       2.3368      1.00000
     59       2.3368      1.00000
     60       2.3878      1.00000
     61       2.3878      1.00000
     62       2.4856      1.00000
     63       2.5212      1.00000
     64       2.6475      1.00000
     65       2.8863      1.00000
     66       2.8863      1.00000
     67       3.0034      1.00000
     68       3.1069      1.00000
     69       3.1892      1.00000
     70       3.2376      1.00000
     71       3.3651      1.00000
     72       3.3651      1.00000
     73       3.9271      1.00000
     74       3.9271      1.00000
     75       4.0564      1.00000
     76       4.0564      1.00000
     77       4.2307      1.00000
     78       4.2788      1.00000
     79       4.4404      1.00000
     80       4.4551      1.05394
     81       4.9943      0.00000
     82       5.1428      0.00000
     83       5.1428      0.00000
     84       5.1551      0.00000
     85       5.1551      0.00000
     86       5.2194      0.00000
     87       5.4719      0.00000
     88       5.4719      0.00000
     89       5.4947      0.00000
     90       5.5475      0.00000
     91       5.5475      0.00000
     92       5.8509      0.00000
     93       6.0976      0.00000
     94       6.1546      0.00000
     95       6.1700      0.00000
     96       6.2451      0.00000
     97       6.8753      0.00000
     98       6.9120      0.00000
[...]
  0.000  -0.000  -0.000  -0.000   0.000   0.000  -0.039  -0.000
  0.000  -0.000  -0.000  -0.000   0.000   0.000  -0.000  -0.105
  0.000  -0.000   0.000  -0.000   0.000  -0.000  -0.212  -0.000
  0.000   0.000  -0.000  -0.000  -0.000   0.000  -0.000  -0.257
 -0.000   0.000  -0.000   0.000  -0.000   0.000  -0.000   0.012
 -0.000   0.000   0.000   0.000  -0.000  -0.000   0.009   0.000
 -0.000   0.000   0.000   0.000  -0.000  -0.000   0.000   0.025
  0.000   0.000   0.000  -0.000  -0.000  -0.000   0.000  -0.008
 -0.000  -0.000  -0.000   0.000   0.000   0.000  -0.000   0.001
 pseudopotential strength for first ion, spin component:           2
-52.376   0.108  -0.000  26.213  -0.078   0.000  -0.000  -0.000
  0.108 -52.404   0.000  -0.078  26.234  -0.000   0.000  -0.000
 -0.000   0.000 -52.350   0.000  -0.000  26.186  -0.000   0.000
 26.213  -0.078   0.000  -8.623   0.057  -0.000   0.000   0.000
 -0.078  26.234  -0.000   0.057  -8.638   0.000  -0.000   0.000
  0.000  -0.000  26.186  -0.000   0.000  -8.607   0.000  -0.000
 -0.000   0.000  -0.000   0.000  -0.000   0.000  -6.232   0.000
 -0.000  -0.000   0.000   0.000   0.000  -0.000   0.000  -6.583
  0.000  -0.000   0.000  -0.000   0.000  -0.000   0.000   0.120
  0.000  -0.000  -0.000  -0.000   0.000   0.000   0.116  -0.000
  0.000  -0.000  -0.000  -0.000   0.000   0.000  -0.000   0.026
  0.000  -0.000   0.000  -0.000   0.000  -0.000  -0.689  -0.000
  0.000   0.000  -0.000  -0.000  -0.000   0.000  -0.000  -0.607
 -0.000   0.000  -0.000   0.000  -0.000   0.000  -0.000  -0.026
 -0.000   0.000   0.000   0.000  -0.000  -0.000  -0.025   0.000
 -0.000   0.000   0.000   0.000  -0.000  -0.000   0.000  -0.007
  0.000   0.000   0.000  -0.000  -0.000  -0.000   0.000  -0.014
 -0.000  -0.000  -0.000   0.000   0.000   0.000  -0.000   0.004
 total augmentation occupancy for first ion, spin component:           1
  2.011  -0.018  -0.000   0.060  -0.043   0.000   0.000  -0.000  -0.000  -0.000  -0.000   0.000   0.000   0.000   0.000   0.000
 -0.018   2.015  -0.000  -0.043   0.069   0.000  -0.000  -0.000   0.000   0.000   0.000   0.000   0.000  -0.000   0.000   0.000
  0.000   0.000   2.011   0.000   0.000   0.056   0.000   0.000  -0.000  -0.000   0.000   0.000   0.000   0.000  -0.000  -0.000
  0.060  -0.043  -0.000   0.201  -0.104  -0.000   0.000   0.000  -0.000   0.000   0.000  -0.000   0.000  -0.000   0.000  -0.000
 -0.043   0.069   0.000  -0.104   0.223  -0.000  -0.000  -0.000   0.000  -0.000  -0.000   0.000  -0.000   0.000  -0.000   0.000
 -0.000   0.000   0.056  -0.000   0.000   0.185   0.000   0.000   0.000  -0.000   0.000   0.000  -0.000  -0.000   0.000   0.000
  0.000  -0.000   0.000   0.000  -0.000  -0.000   1.263  -0.000   0.000  -0.103   0.000  -0.052  -0.000  -0.000  -0.058  -0.000
  0.000   0.000   0.000   0.000   0.000   0.000  -0.000   1.461  -0.027   0.000  -0.098   0.000   0.102  -0.153   0.000   0.089
  0.000   0.000  -0.000  -0.000   0.000   0.000   0.000  -0.027   1.306  -0.000  -0.131   0.000  -0.154   0.101  -0.000  -0.078
 -0.000   0.000   0.000   0.000  -0.000   0.000  -0.103   0.000  -0.000   1.277   0.000  -0.059  -0.000  -0.000  -0.023   0.000
  0.000  -0.000   0.000   0.000  -0.000   0.000  -0.000  -0.098  -0.131   0.000   1.515   0.000   0.093  -0.076  -0.000   0.183
  0.000  -0.000   0.000  -0.000   0.000  -0.000  -0.052  -0.000  -0.000  -0.059  -0.000   0.175   0.000   0.000  -0.026  -0.000
  0.000  -0.000   0.000  -0.000   0.000  -0.000  -0.000   0.102  -0.154  -0.000   0.093   0.000   0.252  -0.074   0.000   0.090
  0.000   0.000   0.000  -0.000  -0.000  -0.000   0.000  -0.153   0.101  -0.000  -0.076  -0.000  -0.074   0.177  -0.000  -0.018
  0.000   0.000   0.000   0.000  -0.000  -0.000  -0.058   0.000  -0.000  -0.023   0.000  -0.026  -0.000  -0.000   0.166  -0.000
 -0.000  -0.000   0.000  -0.000  -0.000   0.000   0.000   0.089  -0.078   0.000   0.183   0.000   0.090  -0.018   0.000   0.144
  0.000   0.000   0.000   0.000  -0.000   0.000   0.000  -0.004  -0.050   0.000   0.086   0.000  -0.313   0.027   0.000  -0.004
  0.000  -0.000  -0.000   0.000  -0.000   0.000   0.000   0.000   0.024  -0.000  -0.013  -0.000   0.022  -0.005   0.000   0.003
 total augmentation occupancy for first ion, spin component:           2
 -0.005   0.000   0.000  -0.002  -0.000   0.000   0.000   0.000   0.000  -0.000   0.000  -0.000   0.000  -0.000  -0.000  -0.000
  0.000  -0.007   0.000  -0.000  -0.007  -0.000   0.000   0.000   0.000  -0.000  -0.000   0.000   0.000  -0.000   0.000   0.000
  0.000  -0.000  -0.007  -0.000   0.000  -0.004   0.000  -0.000   0.000   0.000   0.000  -0.000  -0.000   0.000  -0.000  -0.000
 -0.002  -0.000  -0.000   0.014  -0.002   0.000   0.000  -0.000  -0.000  -0.000   0.000  -0.000   0.000  -0.000   0.000  -0.000
 -0.000  -0.007  -0.000  -0.002   0.003  -0.000   0.000   0.000   0.000   0.000  -0.000   0.000   0.000  -0.000   0.000  -0.000
 -0.000  -0.000  -0.004   0.000   0.000   0.012   0.000   0.000  -0.000   0.000   0.000   0.000   0.000  -0.000   0.000  -0.000
  0.000   0.000   0.000   0.000   0.000   0.000   0.684   0.000  -0.000   0.122  -0.000  -0.269  -0.000   0.000   0.004   0.000
 -0.000   0.000  -0.000   0.000  -0.000   0.000   0.000   0.375   0.130   0.000   0.053  -0.000  -0.188  -0.013   0.000  -0.030
  0.000  -0.000   0.000   0.000   0.000  -0.000  -0.000   0.130   0.511  -0.000   0.166   0.000  -0.012  -0.202  -0.000  -0.022
 -0.000  -0.000   0.000  -0.000   0.000   0.000   0.122   0.000   0.000   0.645  -0.000   0.006  -0.000  -0.000  -0.262  -0.000
 -0.000   0.000   0.000  -0.000   0.000   0.000   0.000   0.053   0.166   0.000   0.226   0.000  -0.016  -0.016   0.000  -0.142
 -0.000   0.000  -0.000  -0.000   0.000   0.000  -0.269   0.000   0.000   0.006   0.000   0.053  -0.000  -0.000   0.006  -0.000
  0.000   0.000  -0.000   0.000  -0.000   0.000   0.000  -0.188  -0.012  -0.000  -0.016  -0.000   0.007   0.026   0.000  -0.001
  0.000   0.000   0.000  -0.000   0.000  -0.000   0.000  -0.013  -0.202  -0.000  -0.016   0.000   0.026   0.002  -0.000   0.006
 -0.000   0.000  -0.000   0.000   0.000   0.000   0.004   0.000   0.000  -0.262  -0.000   0.006  -0.000   0.000   0.035  -0.000
  0.000   0.000  -0.000  -0.000   0.000  -0.000  -0.000  -0.030  -0.022  -0.000  -0.142   0.000  -0.001   0.006   0.000  -0.020
  0.000  -0.000   0.000  -0.000   0.000   0.000   0.000   0.113   0.033   0.000  -0.046  -0.000  -0.029   0.003   0.000  -0.022
 -0.000  -0.000   0.000   0.000  -0.000  -0.000   0.000   0.017   0.017   0.000  -0.016   0.000  -0.002  -0.003  -0.000  -0.000


------------------------ aborting loop because EDIFF is reached ----------------------------------------





 total charge

# of ion       s       p       d       tot
------------------------------------------
    1        0.349   6.308   6.106  12.763
    2        0.349   6.308   6.106  12.763
    3        0.349   6.308   6.106  12.763
    4        0.349   6.308   6.106  12.763
    5        0.349   6.308   6.106  12.763
    6        0.349   6.308   6.106  12.763
    7        0.349   6.308   6.106  12.763
    8        0.349   6.308   6.106  12.763
    9        1.496   2.253   0.065   3.814
   10        1.496   2.253   0.065   3.814
   11        1.496   2.253   0.065   3.814
   12        1.496   2.253   0.065   3.814
   13        1.496   2.253   0.065   3.814
   14        1.496   2.253   0.065   3.814
   15        1.496   2.253   0.065   3.814
   16        1.496   2.253   0.065   3.814
--------------------------------------------------
tot         14.758  68.489  49.371 132.618



 magnetization (x)

# of ion       s       p       d       tot
------------------------------------------
    1        0.025   0.015   2.382   2.422
    2       -0.025  -0.015  -2.382  -2.422
    3       -0.025  -0.015  -2.382  -2.422
    4        0.025   0.015   2.382   2.422
    5        0.025   0.015   2.382   2.422
    6       -0.025  -0.015  -2.382  -2.422
    7       -0.025  -0.015  -2.382  -2.422
    8        0.025   0.015   2.382   2.422
    9        0.000   0.000   0.000   0.000
   10        0.000   0.000   0.000   0.000
   11        0.000   0.000   0.000   0.000
   12        0.000   0.000   0.000   0.000
   13        0.000   0.000   0.000   0.000
   14        0.000   0.000   0.000   0.000
   15        0.000   0.000   0.000   0.000
   16        0.000   0.000   0.000   0.000
--------------------------------------------------
tot          0.000   0.000   0.000   0.000
 
    CHARGE:  cpu time      0.5829: real time      0.5854
    FORLOC:  cpu time      0.0026: real time      0.0026
    FORNL :  cpu time      5.2782: real time      5.2943
    STRESS:  cpu time     16.1625: real time     16.2115
    FORCOR:  cpu time      0.0387: real time      0.0389
    FORHAR:  cpu time      0.0055: real time      0.0055
    MIXING:  cpu time      0.0013: real time      0.0013
    OFIELD:  cpu time      0.0000: real time      0.0000
    FORVDW:  cpu time      0.8496: real time      0.8522

  FORCE on cell =-STRESS in cart. coord.  units (eV):
  Direction    XX          YY          ZZ          XY          YZ          ZX
  --------------------------------------------------------------------------------------
  Alpha Z   894.19572   894.19572   894.19572
  Ewald   -1496.27660 -2232.43923 -8236.86912     0.00000     0.00000     0.00000
  Hartree  5076.05454  4422.45668 -1111.62590     0.00000    -0.00000    -0.00000
  E(xc)    -897.97828  -900.31345  -899.36737     0.00000    -0.00000     0.00000
  Local   -5524.79060 -4148.98541  7424.24762     0.00000    -0.00000     0.00000
  n-local  -278.44215  -251.27528  -243.48531    -0.68383    -0.45580    -0.80046
  augment   528.47778   515.49320   511.43364     0.00000     0.00000     0.00000
  Kinetic  1708.54309  1710.76585  1671.62646     3.84182     0.07767     0.78136
  Fock        0.00000     0.00000     0.00000     0.00000     0.00000     0.00000
  vdW        -6.75757    -6.78896    -7.07009     0.00000    -0.00000     0.00000
  -------------------------------------------------------------------------------------
  Total       3.02592     3.10912     3.08567     0.00000     0.00000     0.00000
  in kB      17.07065    17.54001    17.40770     0.00000     0.00000     0.00000
  external pressure =       17.34 kB  Pullay stress =        0.00 kB


 VOLUME and BASIS-vectors are now :
 -----------------------------------------------------------------------------
  energy-cutoff  :      550.00
  volume of cell :      284.00
      direct lattice vectors                 reciprocal lattice vectors
     4.746790211 -5.490104264  0.000000000     0.105334337 -0.091072952  0.000000000
     4.746790211  5.490104264  0.000000000     0.105334337  0.091072952  0.000000000
     0.000000000  0.000000000  5.448885903     0.000000000  0.000000000  0.183523755

  length of vectors
     7.257634747  7.257634747  5.448885903     0.139246562  0.139246562  0.183523755


 FORCES acting on ions
    electron-ion (+dipol)            ewald-force                    non-local-force                 convergence-correction
 -----------------------------------------------------------------------------------------------
   -.340E-12 -.391E-13 0.240E-13   -.171E-12 0.320E-13 0.142E-13   -.323E-21 -.255E-22 -.835E-21   0.117E-12 0.202E-12 0.440E-12
   0.931E-12 0.142E-11 0.442E-13   -.156E-12 0.320E-13 0.622E-14   -.144E-20 -.107E-22 -.359E-21   -.538E-12 -.448E-13 0.663E-12
   0.875E-12 0.580E-12 0.348E-10   -.210E-12 0.284E-13 0.142E-13   -.934E-21 0.589E-21 0.530E-22   -.268E-13 0.750E-13 -.181E-12
   0.719E-11 0.954E-11 0.157E-10   -.199E-12 0.249E-13 0.711E-14   -.180E-21 -.558E-21 -.109E-21   -.253E-12 -.282E-12 0.437E-12
   0.500E-11 0.411E-11 0.733E-11   0.155E-12 -.639E-13 -.178E-13   0.485E-21 0.701E-21 -.243E-21   0.599E-12 0.532E-12 0.582E-13
   -.400E-12 -.338E-11 0.787E-11   0.142E-12 -.355E-13 -.178E-13   0.892E-21 -.440E-21 0.842E-22   -.553E-12 -.601E-12 -.217E-12
   -.209E-10 -.251E-10 -.461E-10   0.185E-12 -.924E-13 -.178E-13   0.843E-21 -.362E-22 -.163E-21   0.743E-12 0.901E-12 0.108E-11
   0.142E-11 0.453E-11 -.445E-10   0.184E-12 -.568E-13 -.142E-13   0.214E-22 0.160E-21 -.782E-21   -.879E-12 -.418E-12 0.113E-11
   -.736E-07 0.255E-11 0.302E+03   -.102E-13 0.284E-13 -.303E+03   -.363E-17 -.750E-17 0.995E+00   0.211E-12 0.786E-13 0.681E-02
   -.736E-07 -.742E-12 0.302E+03   -.711E-14 0.425E-13 -.303E+03   0.374E-17 0.183E-17 0.995E+00   -.113E-12 -.161E-12 0.681E-02
   -.736E-07 0.515E-11 0.302E+03   -.213E-13 0.143E-13 -.303E+03   -.167E-17 -.973E-18 0.995E+00   0.165E-12 0.184E-12 0.681E-02
   -.736E-07 -.795E-12 0.302E+03   -.258E-13 0.355E-13 -.303E+03   0.390E-17 0.272E-17 0.995E+00   -.210E-12 -.163E-12 0.681E-02
   0.736E-07 -.175E-13 -.302E+03   0.173E-13 -.122E-14 0.303E+03   -.201E-17 -.121E-17 -.995E+00   0.604E-13 0.150E-12 -.681E-02
   0.736E-07 0.332E-12 -.302E+03   0.219E-13 0.184E-13 0.303E+03   -.186E-17 0.162E-18 -.995E+00   -.163E-12 -.549E-13 -.681E-02
   0.736E-07 0.372E-12 -.302E+03   0.348E-13 -.112E-13 0.303E+03   0.103E-17 0.265E-17 -.995E+00   0.212E-12 0.429E-13 -.681E-02
   0.736E-07 -.707E-12 -.302E+03   0.395E-13 0.297E-13 0.303E+03   0.305E-17 -.293E-17 -.995E+00   -.909E-13 -.177E-12 -.681E-02
 -----------------------------------------------------------------------------------------------
   -.117E-10 -.221E-11 -.387E-10   -.217E-13 0.250E-13 0.000E+00   0.254E-17 -.525E-17 0.000E+00   -.718E-12 0.264E-12 0.284E-11
 
 
 POSITION                                       TOTAL-FORCE (eV/Angst)
 -----------------------------------------------------------------------------------
      0.00000      0.00000      0.00000        -0.000000     -0.000000      0.000000
      2.37340      2.74505      0.00000        -0.000000     -0.000000      0.000000
      2.37340     -2.74505      0.00000        -0.000000     -0.000000      0.000000
      4.74679      0.00000      0.00000        -0.000000     -0.000000     -0.000000
      2.37340      0.00000      0.00000        -0.000000     -0.000000     -0.000000
      4.74679      2.74505      0.00000        -0.000000     -0.000000      0.000000
      4.74679     -2.74505      0.00000        -0.000000     -0.000000     -0.000000
      7.12019     -0.00000      0.00000        -0.000000     -0.000000      0.000000
      2.37340     -1.37253      3.61906        -0.000000     -0.000000      0.007442
      4.74679      1.37253      3.61906         0.000000      0.000000      0.007442
      4.74679     -4.11758      3.61906        -0.000000      0.000000      0.007442
      7.12019     -1.37253      3.61906         0.000000     -0.000000      0.007442
      2.37340      1.37253      1.82983         0.000000     -0.000000     -0.007442
      4.74679      4.11758      1.82983         0.000000     -0.000000     -0.007442
      4.74679     -1.37253      1.82983         0.000000      0.000000     -0.007442
      7.12019      1.37253      1.82983        -0.000000      0.000000     -0.007442
 -----------------------------------------------------------------------------------
    total drift:                               -0.000000     -0.000000     -0.000000


--------------------------------------------------------------------------------------------------------



  FREE ENERGIE OF THE ION-ELECTRON SYSTEM (eV)
  ---------------------------------------------------
  free  energy   TOTEN  =       -98.32175423 eV

  energy  without entropy=      -98.32175423  energy(sigma->0) =      -98.32175423
 


--------------------------------------------------------------------------------------------------------


    POTLOK:  cpu time      0.3399: real time      0.3497


--------------------------------------------------------------------------------------------------------


     LOOP+:  cpu time    343.3080: real time    346.1489
 -----------------------------------------------------------------------------
|                                                                             |
|           W    W    AA    RRRRR   N    N  II  N    N   GGGG   !!!           |
|           W    W   A  A   R    R  NN   N  II  NN   N  G    G  !!!           |
|           W    W  A    A  R    R  N N  N  II  N N  N  G       !!!           |
|           W WW W  AAAAAA  RRRRR   N  N N  II  N  N N  G  GGG   !            |
|           WW  WW  A    A  R   R   N   NN  II  N   NN  G    G                |
|           W    W  A    A  R    R  N    N  II  N    N   GGGG   !!!           |
|                                                                             |
|     Tetrahedron method does not include variations of the Fermi             |
|     occupations, so forces and stress will be inaccurate. We suggest        |
|     using a different smearing scheme ISMEAR = 1 or 2 for metals in         |
|     relaxations.                                                            |
|                                                                             |
 -----------------------------------------------------------------------------

    4ORBIT:  cpu time      0.0000: real time      0.0000



 total charge

# of ion       s       p       d       tot
------------------------------------------
    1        0.349   6.308   6.106  12.763
    2        0.349   6.308   6.106  12.763
    3        0.349   6.308   6.106  12.763
    4        0.349   6.308   6.106  12.763
    5        0.349   6.308   6.106  12.763
    6        0.349   6.308   6.106  12.763
    7        0.349   6.308   6.106  12.763
    8        0.349   6.308   6.106  12.763
    9        1.496   2.253   0.065   3.814
   10        1.496   2.253   0.065   3.814
   11        1.496   2.253   0.065   3.814
   12        1.496   2.253   0.065   3.814
   13        1.496   2.253   0.065   3.814
   14        1.496   2.253   0.065   3.814
   15        1.496   2.253   0.065   3.814
   16        1.496   2.253   0.065   3.814
--------------------------------------------------
tot         14.758  68.489  49.371 132.618



 magnetization (x)

# of ion       s       p       d       tot
------------------------------------------
    1        0.025   0.015   2.382   2.422
    2       -0.025  -0.015  -2.382  -2.422
    3       -0.025  -0.015  -2.382  -2.422
    4        0.025   0.015   2.382   2.422
    5        0.025   0.015   2.382   2.422
    6       -0.025  -0.015  -2.382  -2.422
    7       -0.025  -0.015  -2.382  -2.422
    8        0.025   0.015   2.382   2.422
    9        0.000   0.000   0.000   0.000
   10        0.000   0.000   0.000   0.000
   11        0.000   0.000   0.000   0.000
   12        0.000   0.000   0.000   0.000
   13        0.000   0.000   0.000   0.000
   14        0.000   0.000   0.000   0.000
   15        0.000   0.000   0.000   0.000
   16        0.000   0.000   0.000   0.000
--------------------------------------------------
tot          0.000   0.000   0.000   0.000
 
 BZINTS: Fermi energy:    4.704410;  160.000000 electrons
         Band energy:-0.228913E+04;  BLOECHL correction:   -0.016839

 total amount of memory used by VASP MPI-rank0   170197. kBytes
=======================================================================

   base      :      30000. kBytes
   nonlr-proj:      11667. kBytes
   fftplans  :       2458. kBytes
   grid      :      15239. kBytes
   one-center:        497. kBytes
   wavefun   :     110336. kBytes
 
  
  
 General timing and accounting informations for this job:
 ========================================================
  
                  Total CPU time used (sec):      367.273
                            User time (sec):      365.825
                          System time (sec):        1.448
                         Elapsed time (sec):      371.237
  
                   Maximum memory used (kb):      446312.
                   Average memory used (kb):          N/A
  
                          Minor page faults:       156001
                          Major page faults:            0
                 Voluntary context switches:        35745
