 running   20 mpi-ranks, on    5 nodes
 distrk:  each k-point on   20 cores,    1 groups
 distr:  one band on    1 cores,   20 groups
 vasp.6.4.1 05Apr23 (build Jun 01 2023 13:46:15) complex                        
  
 POSCAR found type information on POSCAR FeSe
 POSCAR found :  2 types and      16 ions
 Reading from existing POTCAR
 scaLAPACK will be used
 -----------------------------------------------------------------------------
|                                                                             |
|           W    W    AA    RRRRR   N    N  II  N    N   GGGG   !!!           |
|           W    W   A  A   R    R  NN   N  II  NN   N  G    G  !!!           |
|           W    W  A    A  R    R  N N  N  II  N N  N  G       !!!           |
|           W WW W  AAAAAA  RRRRR   N  N N  II  N  N N  G  GGG   !            |
|           WW  WW  A    A  R   R   N   NN  II  N   NN  G    G                |
|           W    W  A    A  R    R  N    N  II  N    N   GGGG   !!!           |
|                                                                             |
|     For optimal performance we recommend to set                             |
|       NCORE = 2 up to number-of-cores-per-socket                            |
|     NCORE specifies how many cores store one orbital (NPAR=cpu/NCORE).      |
|     This setting can greatly improve the performance of VASP for DFT.       |
|     The default, NCORE=1 might be grossly inefficient on modern             |
|     multi-core architectures or massively parallel machines. Do your        |
|     own testing! More info at https://www.vasp.at/wiki/index.php/NCORE      |
|     Unfortunately you need to use the default for GW and RPA                |
|     calculations (for HF NCORE is supported but not extensively tested      |
|     yet).                                                                   |
|                                                                             |
 -----------------------------------------------------------------------------

 Reading from existing POTCAR
 LDA part: xc-table for Pade appr. of Perdew
 POSCAR, INCAR and KPOINTS ok, starting setup
 FFT: planning ... GRIDC
 FFT: planning ... GRID_SOFT
 FFT: planning ... GRID
 WAVECAR not read
 WARNING: random wavefunctions but no delay for mixing, default for NELMDL
 entering main loop
       N       E                     dE             d eps       ncg     rms          rms(c)
DAV:   1     0.204965992214E+04    0.20497E+04   -0.88912E+04 33660   0.201E+03
DAV:   2     0.120341248420E+03   -0.19293E+04   -0.18735E+04 32000   0.592E+02
DAV:   3    -0.837966440870E+02   -0.20414E+03   -0.18100E+03 44800   0.193E+02
DAV:   4    -0.976654934369E+02   -0.13869E+02   -0.13489E+02 46440   0.513E+01
DAV:   5    -0.980016517938E+02   -0.33616E+00   -0.33527E+00 45380   0.831E+00    0.266E+01
RMM:   6    -0.111408088630E+03   -0.13406E+02   -0.15302E+02 32023   0.810E+01    0.472E+01
RMM:   7    -0.904149455437E+02    0.20993E+02   -0.38577E+01 32006   0.479E+01    0.914E+00
RMM:   8    -0.908749183506E+02   -0.45997E+00   -0.28987E+00 41241   0.500E+00    0.400E+00
RMM:   9    -0.909203793857E+02   -0.45461E-01   -0.73128E-01 46338   0.257E+00    0.211E+00
RMM:  10    -0.909266718766E+02   -0.62925E-02   -0.19308E-01 45535   0.131E+00    0.885E-01
RMM:  11    -0.909329238155E+02   -0.62519E-02   -0.37774E-02 44087   0.710E-01    0.337E-01
RMM:  12    -0.909359464645E+02   -0.30226E-02   -0.84744E-03 41798   0.291E-01    0.141E-01
RMM:  13    -0.909359085672E+02    0.37897E-04   -0.17615E-03 27860   0.148E-01
   1 F= -.98331468E+02 E0= -.98319345E+02  d E =-.983315E+02  mag=     0.0000
 curvature:   0.00 expect dE= 0.000E+00 dE for cont linesearch  0.000E+00
 trial: gam= 0.00000 g(F)=  0.588E-06 g(S)=  0.936E-04 ort = 0.000E+00 (trialstep = 0.100E+01)
 search vector abs. value=  0.942E-04
 reached required accuracy - stopping structural energy minimisation
