  16  16   1   0
  0.2081250E+02  0.7120647E-09  0.6847614E-09  0.7324360E-09  0.5000000E-15
  1.000000000000000E-004
  CAR 
 unknown system                          
      8.92203091    -53.28685990  301      2.99367972      1.00000000
    -53.287  0.0000E+00  0.0000E+00  0.0000E+00  0.0000E+00
    -53.079  0.0000E+00  0.0000E+00  0.0000E+00  0.0000E+00
    -52.872  0.0000E+00  0.0000E+00  0.0000E+00  0.0000E+00
    -52.665  0.0000E+00  0.0000E+00  0.0000E+00  0.0000E+00
    -52.457  0.0000E+00  0.0000E+00  0.0000E+00  0.0000E+00
    -52.250  0.0000E+00  0.0000E+00  0.0000E+00  0.0000E+00
    -52.043  0.0000E+00  0.0000E+00  0.0000E+00  0.0000E+00
    -51.835  0.0000E+00  0.0000E+00  0.0000E+00  0.0000E+00
    -51.628  0.0000E+00  0.0000E+00  0.0000E+00  0.0000E+00
    -51.421  0.0000E+00  0.0000E+00  0.0000E+00  0.0000E+00
    -51.213  0.0000E+00  0.0000E+00  0.0000E+00  0.0000E+00
    -51.006  0.0000E+00  0.0000E+00  0.0000E+00  0.0000E+00
    -50.799  0.0000E+00  0.0000E+00  0.0000E+00  0.0000E+00
    -50.591  0.0000E+00  0.0000E+00  0.0000E+00  0.0000E+00
    -50.384  0.9645E+01  0.9645E+01  0.2000E+01  0.2000E+01
    -50.176  0.9645E+01  0.9645E+01  0.4000E+01  0.4000E+01
    -49.969  0.1529E+03  0.1529E+03  0.8710E+01  0.8710E+01
    -49.762  0.1558E+03  0.1558E+03  0.2128E+02  0.2128E+02
    -49.554  0.1230E+02  0.1230E+02  0.2400E+02  0.2400E+02
    -49.347  0.0000E+00  0.0000E+00  0.2400E+02  0.2400E+02
    -49.140  0.0000E+00  0.0000E+00  0.2400E+02  0.2400E+02
    -48.932  0.0000E+00  0.0000E+00  0.2400E+02  0.2400E+02
    -48.725  0.0000E+00  0.0000E+00  0.2400E+02  0.2400E+02
    -48.518  0.0000E+00  0.0000E+00  0.2400E+02  0.2400E+02
    -48.310  0.0000E+00  0.0000E+00  0.2400E+02  0.2400E+02
    -48.103  0.0000E+00  0.0000E+00  0.2400E+02  0.2400E+02
    -47.895  0.0000E+00  0.0000E+00  0.2400E+02  0.2400E+02
    -47.688  0.0000E+00  0.0000E+00  0.2400E+02  0.2400E+02
    -47.481  0.0000E+00  0.0000E+00  0.2400E+02  0.2400E+02
    -47.273  0.0000E+00  0.0000E+00  0.2400E+02  0.2400E+02
    -47.066  0.0000E+00  0.0000E+00  0.2400E+02  0.2400E+02
    -46.859  0.0000E+00  0.0000E+00  0.2400E+02  0.2400E+02
    -46.651  0.0000E+00  0.0000E+00  0.2400E+02  0.2400E+02
    -46.444  0.0000E+00  0.0000E+00  0.2400E+02  0.2400E+02
    -46.237  0.0000E+00  0.0000E+00  0.2400E+02  0.2400E+02
    -46.029  0.0000E+00  0.0000E+00  0.2400E+02  0.2400E+02
    -45.822  0.0000E+00  0.0000E+00  0.2400E+02  0.2400E+02
    -45.614  0.0000E+00  0.0000E+00  0.2400E+02  0.2400E+02
    -45.407  0.0000E+00  0.0000E+00  0.2400E+02  0.2400E+02
    -45.200  0.0000E+00  0.0000E+00  0.2400E+02  0.2400E+02
    -44.992  0.0000E+00  0.0000E+00  0.2400E+02  0.2400E+02
    -44.785  0.0000E+00  0.0000E+00  0.2400E+02  0.2400E+02
    -44.578  0.0000E+00  0.0000E+00  0.2400E+02  0.2400E+02
    -44.370  0.0000E+00  0.0000E+00  0.2400E+02  0.2400E+02
    -44.163  0.0000E+00  0.0000E+00  0.2400E+02  0.2400E+02
    -43.956  0.0000E+00  0.0000E+00  0.2400E+02  0.2400E+02
    -43.748  0.0000E+00  0.0000E+00  0.2400E+02  0.2400E+02
    -43.541  0.0000E+00  0.0000E+00  0.2400E+02  0.2400E+02
    -43.333  0.0000E+00  0.0000E+00  0.2400E+02  0.2400E+02
    -43.126  0.0000E+00  0.0000E+00  0.2400E+02  0.2400E+02
    -42.919  0.0000E+00  0.0000E+00  0.2400E+02  0.2400E+02
    -42.711  0.0000E+00  0.0000E+00  0.2400E+02  0.2400E+02
    -42.504  0.0000E+00  0.0000E+00  0.2400E+02  0.2400E+02
    -42.297  0.0000E+00  0.0000E+00  0.2400E+02  0.2400E+02
    -42.089  0.0000E+00  0.0000E+00  0.2400E+02  0.2400E+02
    -41.882  0.0000E+00  0.0000E+00  0.2400E+02  0.2400E+02
    -41.675  0.0000E+00  0.0000E+00  0.2400E+02  0.2400E+02
    -41.467  0.0000E+00  0.0000E+00  0.2400E+02  0.2400E+02
    -41.260  0.0000E+00  0.0000E+00  0.2400E+02  0.2400E+02
    -41.052  0.0000E+00  0.0000E+00  0.2400E+02  0.2400E+02
    -40.845  0.0000E+00  0.0000E+00  0.2400E+02  0.2400E+02
    -40.638  0.0000E+00  0.0000E+00  0.2400E+02  0.2400E+02
    -40.430  0.0000E+00  0.0000E+00  0.2400E+02  0.2400E+02
    -40.223  0.0000E+00  0.0000E+00  0.2400E+02  0.2400E+02
    -40.016  0.0000E+00  0.0000E+00  0.2400E+02  0.2400E+02
    -39.808  0.0000E+00  0.0000E+00  0.2400E+02  0.2400E+02
    -39.601  0.0000E+00  0.0000E+00  0.2400E+02  0.2400E+02
    -39.394  0.0000E+00  0.0000E+00  0.2400E+02  0.2400E+02
    -39.186  0.0000E+00  0.0000E+00  0.2400E+02  0.2400E+02
    -38.979  0.0000E+00  0.0000E+00  0.2400E+02  0.2400E+02
    -38.771  0.0000E+00  0.0000E+00  0.2400E+02  0.2400E+02
    -38.564  0.0000E+00  0.0000E+00  0.2400E+02  0.2400E+02
    -38.357  0.0000E+00  0.0000E+00  0.2400E+02  0.2400E+02
    -38.149  0.0000E+00  0.0000E+00  0.2400E+02  0.2400E+02
    -37.942  0.0000E+00  0.0000E+00  0.2400E+02  0.2400E+02
    -37.735  0.0000E+00  0.0000E+00  0.2400E+02  0.2400E+02
    -37.527  0.0000E+00  0.0000E+00  0.2400E+02  0.2400E+02
    -37.320  0.0000E+00  0.0000E+00  0.2400E+02  0.2400E+02
    -37.113  0.0000E+00  0.0000E+00  0.2400E+02  0.2400E+02
    -36.905  0.0000E+00  0.0000E+00  0.2400E+02  0.2400E+02
    -36.698  0.0000E+00  0.0000E+00  0.2400E+02  0.2400E+02
    -36.490  0.0000E+00  0.0000E+00  0.2400E+02  0.2400E+02
    -36.283  0.0000E+00  0.0000E+00  0.2400E+02  0.2400E+02
    -36.076  0.0000E+00  0.0000E+00  0.2400E+02  0.2400E+02
    -35.868  0.0000E+00  0.0000E+00  0.2400E+02  0.2400E+02
    -35.661  0.0000E+00  0.0000E+00  0.2400E+02  0.2400E+02
    -35.454  0.0000E+00  0.0000E+00  0.2400E+02  0.2400E+02
    -35.246  0.0000E+00  0.0000E+00  0.2400E+02  0.2400E+02
    -35.039  0.0000E+00  0.0000E+00  0.2400E+02  0.2400E+02
    -34.832  0.0000E+00  0.0000E+00  0.2400E+02  0.2400E+02
    -34.624  0.0000E+00  0.0000E+00  0.2400E+02  0.2400E+02
    -34.417  0.0000E+00  0.0000E+00  0.2400E+02  0.2400E+02
    -34.209  0.0000E+00  0.0000E+00  0.2400E+02  0.2400E+02
    -34.002  0.0000E+00  0.0000E+00  0.2400E+02  0.2400E+02
    -33.795  0.0000E+00  0.0000E+00  0.2400E+02  0.2400E+02
    -33.587  0.0000E+00  0.0000E+00  0.2400E+02  0.2400E+02
    -33.380  0.0000E+00  0.0000E+00  0.2400E+02  0.2400E+02
    -33.173  0.0000E+00  0.0000E+00  0.2400E+02  0.2400E+02
    -32.965  0.0000E+00  0.0000E+00  0.2400E+02  0.2400E+02
    -32.758  0.0000E+00  0.0000E+00  0.2400E+02  0.2400E+02
    -32.551  0.0000E+00  0.0000E+00  0.2400E+02  0.2400E+02
    -32.343  0.0000E+00  0.0000E+00  0.2400E+02  0.2400E+02
    -32.136  0.0000E+00  0.0000E+00  0.2400E+02  0.2400E+02
    -31.928  0.0000E+00  0.0000E+00  0.2400E+02  0.2400E+02
    -31.721  0.0000E+00  0.0000E+00  0.2400E+02  0.2400E+02
    -31.514  0.0000E+00  0.0000E+00  0.2400E+02  0.2400E+02
    -31.306  0.0000E+00  0.0000E+00  0.2400E+02  0.2400E+02
    -31.099  0.0000E+00  0.0000E+00  0.2400E+02  0.2400E+02
    -30.892  0.0000E+00  0.0000E+00  0.2400E+02  0.2400E+02
    -30.684  0.0000E+00  0.0000E+00  0.2400E+02  0.2400E+02
    -30.477  0.0000E+00  0.0000E+00  0.2400E+02  0.2400E+02
    -30.270  0.0000E+00  0.0000E+00  0.2400E+02  0.2400E+02
    -30.062  0.0000E+00  0.0000E+00  0.2400E+02  0.2400E+02
    -29.855  0.0000E+00  0.0000E+00  0.2400E+02  0.2400E+02
    -29.647  0.0000E+00  0.0000E+00  0.2400E+02  0.2400E+02
    -29.440  0.0000E+00  0.0000E+00  0.2400E+02  0.2400E+02
    -29.233  0.0000E+00  0.0000E+00  0.2400E+02  0.2400E+02
    -29.025  0.0000E+00  0.0000E+00  0.2400E+02  0.2400E+02
    -28.818  0.0000E+00  0.0000E+00  0.2400E+02  0.2400E+02
    -28.611  0.0000E+00  0.0000E+00  0.2400E+02  0.2400E+02
    -28.403  0.0000E+00  0.0000E+00  0.2400E+02  0.2400E+02
    -28.196  0.0000E+00  0.0000E+00  0.2400E+02  0.2400E+02
    -27.989  0.0000E+00  0.0000E+00  0.2400E+02  0.2400E+02
    -27.781  0.0000E+00  0.0000E+00  0.2400E+02  0.2400E+02
    -27.574  0.0000E+00  0.0000E+00  0.2400E+02  0.2400E+02
    -27.366  0.0000E+00  0.0000E+00  0.2400E+02  0.2400E+02
    -27.159  0.0000E+00  0.0000E+00  0.2400E+02  0.2400E+02
    -26.952  0.0000E+00  0.0000E+00  0.2400E+02  0.2400E+02
    -26.744  0.0000E+00  0.0000E+00  0.2400E+02  0.2400E+02
    -26.537  0.0000E+00  0.0000E+00  0.2400E+02  0.2400E+02
    -26.330  0.0000E+00  0.0000E+00  0.2400E+02  0.2400E+02
    -26.122  0.0000E+00  0.0000E+00  0.2400E+02  0.2400E+02
    -25.915  0.0000E+00  0.0000E+00  0.2400E+02  0.2400E+02
    -25.708  0.0000E+00  0.0000E+00  0.2400E+02  0.2400E+02
    -25.500  0.0000E+00  0.0000E+00  0.2400E+02  0.2400E+02
    -25.293  0.0000E+00  0.0000E+00  0.2400E+02  0.2400E+02
    -25.085  0.0000E+00  0.0000E+00  0.2400E+02  0.2400E+02
    -24.878  0.0000E+00  0.0000E+00  0.2400E+02  0.2400E+02
    -24.671  0.0000E+00  0.0000E+00  0.2400E+02  0.2400E+02
    -24.463  0.0000E+00  0.0000E+00  0.2400E+02  0.2400E+02
    -24.256  0.0000E+00  0.0000E+00  0.2400E+02  0.2400E+02
    -24.049  0.0000E+00  0.0000E+00  0.2400E+02  0.2400E+02
    -23.841  0.0000E+00  0.0000E+00  0.2400E+02  0.2400E+02
    -23.634  0.0000E+00  0.0000E+00  0.2400E+02  0.2400E+02
    -23.427  0.0000E+00  0.0000E+00  0.2400E+02  0.2400E+02
    -23.219  0.0000E+00  0.0000E+00  0.2400E+02  0.2400E+02
    -23.012  0.0000E+00  0.0000E+00  0.2400E+02  0.2400E+02
    -22.805  0.0000E+00  0.0000E+00  0.2400E+02  0.2400E+02
    -22.597  0.0000E+00  0.0000E+00  0.2400E+02  0.2400E+02
    -22.390  0.0000E+00  0.0000E+00  0.2400E+02  0.2400E+02
    -22.182  0.0000E+00  0.0000E+00  0.2400E+02  0.2400E+02
    -21.975  0.0000E+00  0.0000E+00  0.2400E+02  0.2400E+02
    -21.768  0.0000E+00  0.0000E+00  0.2400E+02  0.2400E+02
    -21.560  0.0000E+00  0.0000E+00  0.2400E+02  0.2400E+02
    -21.353  0.0000E+00  0.0000E+00  0.2400E+02  0.2400E+02
    -21.146  0.0000E+00  0.0000E+00  0.2400E+02  0.2400E+02
    -20.938  0.0000E+00  0.0000E+00  0.2400E+02  0.2400E+02
    -20.731  0.0000E+00  0.0000E+00  0.2400E+02  0.2400E+02
    -20.524  0.0000E+00  0.0000E+00  0.2400E+02  0.2400E+02
    -20.316  0.0000E+00  0.0000E+00  0.2400E+02  0.2400E+02
    -20.109  0.0000E+00  0.0000E+00  0.2400E+02  0.2400E+02
    -19.901  0.0000E+00  0.0000E+00  0.2400E+02  0.2400E+02
    -19.694  0.0000E+00  0.0000E+00  0.2400E+02  0.2400E+02
    -19.487  0.0000E+00  0.0000E+00  0.2400E+02  0.2400E+02
    -19.279  0.0000E+00  0.0000E+00  0.2400E+02  0.2400E+02
    -19.072  0.0000E+00  0.0000E+00  0.2400E+02  0.2400E+02
    -18.865  0.0000E+00  0.0000E+00  0.2400E+02  0.2400E+02
    -18.657  0.0000E+00  0.0000E+00  0.2400E+02  0.2400E+02
    -18.450  0.0000E+00  0.0000E+00  0.2400E+02  0.2400E+02
    -18.243  0.0000E+00  0.0000E+00  0.2400E+02  0.2400E+02
    -18.035  0.0000E+00  0.0000E+00  0.2400E+02  0.2400E+02
    -17.828  0.0000E+00  0.0000E+00  0.2400E+02  0.2400E+02
    -17.620  0.0000E+00  0.0000E+00  0.2400E+02  0.2400E+02
    -17.413  0.0000E+00  0.0000E+00  0.2400E+02  0.2400E+02
    -17.206  0.0000E+00  0.0000E+00  0.2400E+02  0.2400E+02
    -16.998  0.0000E+00  0.0000E+00  0.2400E+02  0.2400E+02
    -16.791  0.0000E+00  0.0000E+00  0.2400E+02  0.2400E+02
    -16.584  0.0000E+00  0.0000E+00  0.2400E+02  0.2400E+02
    -16.376  0.0000E+00  0.0000E+00  0.2400E+02  0.2400E+02
    -16.169  0.0000E+00  0.0000E+00  0.2400E+02  0.2400E+02
    -15.962  0.0000E+00  0.0000E+00  0.2400E+02  0.2400E+02
    -15.754  0.0000E+00  0.0000E+00  0.2400E+02  0.2400E+02
    -15.547  0.0000E+00  0.0000E+00  0.2400E+02  0.2400E+02
    -15.339  0.0000E+00  0.0000E+00  0.2400E+02  0.2400E+02
    -15.132  0.0000E+00  0.0000E+00  0.2400E+02  0.2400E+02
    -14.925  0.0000E+00  0.0000E+00  0.2400E+02  0.2400E+02
    -14.717  0.0000E+00  0.0000E+00  0.2400E+02  0.2400E+02
    -14.510  0.0000E+00  0.0000E+00  0.2400E+02  0.2400E+02
    -14.303  0.0000E+00  0.0000E+00  0.2400E+02  0.2400E+02
    -14.095  0.0000E+00  0.0000E+00  0.2400E+02  0.2400E+02
    -13.888  0.0000E+00  0.0000E+00  0.2400E+02  0.2400E+02
    -13.681  0.0000E+00  0.0000E+00  0.2400E+02  0.2400E+02
    -13.473  0.0000E+00  0.0000E+00  0.2400E+02  0.2400E+02
    -13.266  0.0000E+00  0.0000E+00  0.2400E+02  0.2400E+02
    -13.058  0.0000E+00  0.0000E+00  0.2400E+02  0.2400E+02
    -12.851  0.0000E+00  0.0000E+00  0.2400E+02  0.2400E+02
    -12.644  0.0000E+00  0.0000E+00  0.2400E+02  0.2400E+02
    -12.436  0.0000E+00  0.0000E+00  0.2400E+02  0.2400E+02
    -12.229  0.0000E+00  0.0000E+00  0.2400E+02  0.2400E+02
    -12.022  0.0000E+00  0.0000E+00  0.2400E+02  0.2400E+02
    -11.814  0.0000E+00  0.0000E+00  0.2400E+02  0.2400E+02
    -11.607  0.1190E+01  0.1190E+01  0.2403E+02  0.2403E+02
    -11.400  0.2870E+01  0.2870E+01  0.2443E+02  0.2443E+02
    -11.192  0.2522E+01  0.2522E+01  0.2489E+02  0.2489E+02
    -10.985  0.4404E+01  0.4404E+01  0.2552E+02  0.2552E+02
    -10.777  0.7096E+01  0.7096E+01  0.2641E+02  0.2641E+02
    -10.570  0.3954E+01  0.3954E+01  0.2717E+02  0.2717E+02
    -10.363  0.4458E+01  0.4458E+01  0.2781E+02  0.2781E+02
    -10.155  0.1158E+02  0.1158E+02  0.2914E+02  0.2914E+02
     -9.948  0.1419E+02  0.1419E+02  0.3120E+02  0.3120E+02
     -9.741  0.3091E+01  0.3091E+01  0.3200E+02  0.3200E+02
     -9.533  0.0000E+00  0.0000E+00  0.3200E+02  0.3200E+02
     -9.326  0.0000E+00  0.0000E+00  0.3200E+02  0.3200E+02
     -9.119  0.0000E+00  0.0000E+00  0.3200E+02  0.3200E+02
     -8.911  0.0000E+00  0.0000E+00  0.3200E+02  0.3200E+02
     -8.704  0.0000E+00  0.0000E+00  0.3200E+02  0.3200E+02
     -8.496  0.0000E+00  0.0000E+00  0.3200E+02  0.3200E+02
     -8.289  0.0000E+00  0.0000E+00  0.3200E+02  0.3200E+02
     -8.082  0.0000E+00  0.0000E+00  0.3200E+02  0.3200E+02
     -7.874  0.0000E+00  0.0000E+00  0.3200E+02  0.3200E+02
     -7.667  0.0000E+00  0.0000E+00  0.3200E+02  0.3200E+02
     -7.460  0.0000E+00  0.0000E+00  0.3200E+02  0.3200E+02
     -7.252  0.0000E+00  0.0000E+00  0.3200E+02  0.3200E+02
     -7.045  0.0000E+00  0.0000E+00  0.3200E+02  0.3200E+02
     -6.838  0.0000E+00  0.0000E+00  0.3200E+02  0.3200E+02
     -6.630  0.0000E+00  0.0000E+00  0.3200E+02  0.3200E+02
     -6.423  0.0000E+00  0.0000E+00  0.3200E+02  0.3200E+02
     -6.215  0.0000E+00  0.0000E+00  0.3200E+02  0.3200E+02
     -6.008  0.0000E+00  0.0000E+00  0.3200E+02  0.3200E+02
     -5.801  0.0000E+00  0.0000E+00  0.3200E+02  0.3200E+02
     -5.593  0.0000E+00  0.0000E+00  0.3200E+02  0.3200E+02
     -5.386  0.0000E+00  0.0000E+00  0.3200E+02  0.3200E+02
     -5.179  0.0000E+00  0.0000E+00  0.3200E+02  0.3200E+02
     -4.971  0.0000E+00  0.0000E+00  0.3200E+02  0.3200E+02
     -4.764  0.0000E+00  0.0000E+00  0.3200E+02  0.3200E+02
     -4.557  0.0000E+00  0.0000E+00  0.3200E+02  0.3200E+02
     -4.349  0.0000E+00  0.0000E+00  0.3200E+02  0.3200E+02
     -4.142  0.0000E+00  0.0000E+00  0.3200E+02  0.3200E+02
     -3.934  0.0000E+00  0.0000E+00  0.3200E+02  0.3200E+02
     -3.727  0.0000E+00  0.0000E+00  0.3200E+02  0.3200E+02
     -3.520  0.0000E+00  0.0000E+00  0.3200E+02  0.3200E+02
     -3.312  0.5200E+00  0.5200E+00  0.3203E+02  0.3203E+02
     -3.105  0.1094E+01  0.1094E+01  0.3218E+02  0.3218E+02
     -2.898  0.5017E+01  0.5017E+01  0.3260E+02  0.3260E+02
     -2.690  0.6551E+01  0.6551E+01  0.3365E+02  0.3365E+02
     -2.483  0.7114E+01  0.7114E+01  0.3486E+02  0.3486E+02
     -2.276  0.4756E+01  0.4756E+01  0.3594E+02  0.3594E+02
     -2.068  0.4816E+01  0.4816E+01  0.3661E+02  0.3661E+02
     -1.861  0.5668E+01  0.5668E+01  0.3764E+02  0.3764E+02
     -1.653  0.9271E+01  0.9271E+01  0.3900E+02  0.3900E+02
     -1.446  0.1331E+02  0.1331E+02  0.4079E+02  0.4079E+02
     -1.239  0.1101E+02  0.1101E+02  0.4237E+02  0.4237E+02
     -1.031  0.9120E+01  0.9120E+01  0.4400E+02  0.4400E+02
     -0.824  0.9351E+01  0.9351E+01  0.4512E+02  0.4512E+02
     -0.617  0.2022E+02  0.2022E+02  0.4779E+02  0.4779E+02
     -0.409  0.9737E+01  0.9737E+01  0.4976E+02  0.4976E+02
     -0.202  0.3771E+01  0.3771E+01  0.5044E+02  0.5044E+02
      0.005  0.8445E+01  0.8445E+01  0.5202E+02  0.5202E+02
      0.213  0.9500E+01  0.9500E+01  0.5307E+02  0.5307E+02
      0.420  0.2378E+02  0.2378E+02  0.5538E+02  0.5538E+02
      0.628  0.1682E+02  0.1682E+02  0.5837E+02  0.5837E+02
      0.835  0.1234E+02  0.1234E+02  0.5965E+02  0.5965E+02
      1.042  0.8479E+01  0.8479E+01  0.6133E+02  0.6133E+02
      1.250  0.6733E+01  0.6733E+01  0.6274E+02  0.6274E+02
      1.457  0.1224E+02  0.1224E+02  0.6410E+02  0.6410E+02
      1.664  0.1592E+02  0.1592E+02  0.6614E+02  0.6614E+02
      1.872  0.1039E+02  0.1039E+02  0.6795E+02  0.6795E+02
      2.079  0.1839E+02  0.1839E+02  0.7027E+02  0.7027E+02
      2.286  0.1639E+02  0.1639E+02  0.7271E+02  0.7271E+02
      2.494  0.2438E+02  0.2438E+02  0.7564E+02  0.7564E+02
      2.701  0.1430E+02  0.1430E+02  0.7775E+02  0.7775E+02
      2.909  0.8026E+01  0.8026E+01  0.7942E+02  0.7942E+02
      3.116  0.2372E+02  0.2372E+02  0.8173E+02  0.8173E+02
      3.323  0.1398E+02  0.1398E+02  0.8382E+02  0.8382E+02
      3.531  0.1152E+02  0.1152E+02  0.8513E+02  0.8513E+02
      3.738  0.6330E+01  0.6330E+01  0.8619E+02  0.8619E+02
      3.945  0.8636E+01  0.8636E+01  0.8737E+02  0.8737E+02
      4.153  0.1853E+02  0.1853E+02  0.8962E+02  0.8962E+02
      4.360  0.7842E+01  0.7841E+01  0.9159E+02  0.9159E+02
      4.567  0.2318E+01  0.2317E+01  0.9210E+02  0.9210E+02
      4.775  0.4523E+01  0.4526E+01  0.9270E+02  0.9270E+02
      4.982  0.1015E+02  0.1013E+02  0.9395E+02  0.9396E+02
      5.189  0.4989E+01  0.5218E+01  0.9530E+02  0.9530E+02
      5.397  0.2130E+01  0.1975E+01  0.9577E+02  0.9577E+02
      5.604  0.2848E+00  0.3432E+00  0.9598E+02  0.9597E+02
      5.812  0.5335E-02  0.4435E-01  0.9600E+02  0.9600E+02
      6.019  0.0000E+00  0.1281E-02  0.9600E+02  0.9600E+02
      6.226  0.0000E+00  0.0000E+00  0.9600E+02  0.9600E+02
      6.434  0.0000E+00  0.0000E+00  0.9600E+02  0.9600E+02
      6.641  0.0000E+00  0.0000E+00  0.9600E+02  0.9600E+02
      6.848  0.0000E+00  0.0000E+00  0.9600E+02  0.9600E+02
      7.056  0.0000E+00  0.0000E+00  0.9600E+02  0.9600E+02
      7.263  0.0000E+00  0.0000E+00  0.9600E+02  0.9600E+02
      7.470  0.0000E+00  0.0000E+00  0.9600E+02  0.9600E+02
      7.678  0.0000E+00  0.0000E+00  0.9600E+02  0.9600E+02
      7.885  0.0000E+00  0.0000E+00  0.9600E+02  0.9600E+02
      8.093  0.0000E+00  0.0000E+00  0.9600E+02  0.9600E+02
      8.300  0.0000E+00  0.0000E+00  0.9600E+02  0.9600E+02
      8.507  0.0000E+00  0.0000E+00  0.9600E+02  0.9600E+02
      8.715  0.0000E+00  0.0000E+00  0.9600E+02  0.9600E+02
      8.922  0.0000E+00  0.0000E+00  0.9600E+02  0.9600E+02
      8.92203091    -53.28685990  301      2.99367972      1.00000000
    -53.287  0.0000E+00  0.0000E+00  0.0000E+00  0.0000E+00  0.0000E+00  0.0000E+00  0.0000E+00  0.0000E+00  0.0000E+00  0.0000E+00  0.0000E+00  0.0000E+00  0.0000E+00  0.0000E+00  0.0000E+00  0.0000E+00  0.0000E+00  0.0000E+00
    -53.079  0.0000E+00  0.0000E+00  0.0000E+00  0.0000E+00  0.0000E+00  0.0000E+00  0.0000E+00  0.0000E+00  0.0000E+00  0.0000E+00  0.0000E+00  0.0000E+00  0.0000E+00  0.0000E+00  0.0000E+00  0.0000E+00  0.0000E+00  0.0000E+00
    -52.872  0.0000E+00  0.0000E+00  0.0000E+00  0.0000E+00  0.0000E+00  0.0000E+00  0.0000E+00  0.0000E+00  0.0000E+00  0.0000E+00  0.0000E+00  0.0000E+00  0.0000E+00  0.0000E+00  0.0000E+00  0.0000E+00  0.0000E+00  0.0000E+00
    -52.665  0.0000E+00  0.0000E+00  0.0000E+00  0.0000E+00  0.0000E+00  0.0000E+00  0.0000E+00  0.0000E+00  0.0000E+00  0.0000E+00  0.0000E+00  0.0000E+00  0.0000E+00  0.0000E+00  0.0000E+00  0.0000E+00  0.0000E+00  0.0000E+00
    -52.457  0.0000E+00  0.0000E+00  0.0000E+00  0.0000E+00  0.0000E+00  0.0000E+00  0.0000E+00  0.0000E+00  0.0000E+00  0.0000E+00  0.0000E+00  0.0000E+00  0.0000E+00  0.0000E+00  0.0000E+00  0.0000E+00  0.0000E+00  0.0000E+00
    -52.250  0.0000E+00  0.0000E+00  0.0000E+00  0.0000E+00  0.0000E+00  0.0000E+00  0.0000E+00  0.0000E+00  0.0000E+00  0.0000E+00  0.0000E+00  0.0000E+00  0.0000E+00  0.0000E+00  0.0000E+00  0.0000E+00  0.0000E+00  0.0000E+00
    -52.043  0.0000E+00  0.0000E+00  0.0000E+00  0.0000E+00  0.0000E+00  0.0000E+00  0.0000E+00  0.0000E+00  0.0000E+00  0.0000E+00  0.0000E+00  0.0000E+00  0.0000E+00  0.0000E+00  0.0000E+00  0.0000E+00  0.0000E+00  0.0000E+00
    -51.835  0.0000E+00  0.0000E+00  0.0000E+00  0.0000E+00  0.0000E+00  0.0000E+00  0.0000E+00  0.0000E+00  0.0000E+00  0.0000E+00  0.0000E+00  0.0000E+00  0.0000E+00  0.0000E+00  0.0000E+00  0.0000E+00  0.0000E+00  0.0000E+00
    -51.628  0.0000E+00  0.0000E+00  0.0000E+00  0.0000E+00  0.0000E+00  0.0000E+00  0.0000E+00  0.0000E+00  0.0000E+00  0.0000E+00  0.0000E+00  0.0000E+00  0.0000E+00  0.0000E+00  0.0000E+00  0.0000E+00  0.0000E+00  0.0000E+00
    -51.421  0.0000E+00  0.0000E+00  0.0000E+00  0.0000E+00  0.0000E+00  0.0000E+00  0.0000E+00  0.0000E+00  0.0000E+00  0.0000E+00  0.0000E+00  0.0000E+00  0.0000E+00  0.0000E+00  0.0000E+00  0.0000E+00  0.0000E+00  0.0000E+00
    -51.213  0.0000E+00  0.0000E+00  0.0000E+00  0.0000E+00  0.0000E+00  0.0000E+00  0.0000E+00  0.0000E+00  0.0000E+00  0.0000E+00  0.0000E+00  0.0000E+00  0.0000E+00  0.0000E+00  0.0000E+00  0.0000E+00  0.0000E+00  0.0000E+00
    -51.006  0.0000E+00  0.0000E+00  0.0000E+00  0.0000E+00  0.0000E+00  0.0000E+00  0.0000E+00  0.0000E+00  0.0000E+00  0.0000E+00  0.0000E+00  0.0000E+00  0.0000E+00  0.0000E+00  0.0000E+00  0.0000E+00  0.0000E+00  0.0000E+00
    -50.799  0.0000E+00  0.0000E+00  0.0000E+00  0.0000E+00  0.0000E+00  0.0000E+00  0.0000E+00  0.0000E+00  0.0000E+00  0.0000E+00  0.0000E+00  0.0000E+00  0.0000E+00  0.0000E+00  0.0000E+00  0.0000E+00  0.0000E+00  0.0000E+00
    -50.591  0.0000E+00  0.0000E+00  0.0000E+00  0.0000E+00  0.0000E+00  0.0000E+00  0.0000E+00  0.0000E+00  0.0000E+00  0.0000E+00  0.0000E+00  0.0000E+00  0.0000E+00  0.0000E+00  0.0000E+00  0.0000E+00  0.0000E+00  0.0000E+00
    -50.384  0.2321E-03  0.2334E-03  0.2718E-01  0.3783E+00  0.2055E-01  0.1758E-02  0.3884E+00  0.2844E-01  0.4351E-05  0.2951E-05  0.2172E-06  0.6993E-07  0.9566E-04  0.1262E-03  0.6405E-04  0.7208E-06  0.2600E-03  0.2862E-03
    -50.176  0.1415E-03  0.1507E-03  0.6808E+00  0.1702E-01  0.1567E-02  0.3143E-01  0.2191E-01  0.5955E+00  0.2143E-05  0.3868E-05  0.4522E-07  0.2166E-06  0.8670E-04  0.6282E-04  0.1334E-05  0.5972E-04  0.3527E-03  0.3399E-03
    -49.969  0.1576E-03  0.1679E-03  0.2537E+01  0.2870E+01  0.2343E+02  0.1097E+02  0.3720E+01  0.2810E+01  0.2065E-04  0.2449E-04  0.3469E-04  0.8191E-05  0.3902E-04  0.4889E-04  0.1518E-04  0.6699E-04  0.7084E-04  0.8047E-04
    -49.762  0.3417E-03  0.3914E-03  0.7122E+01  0.1539E+02  0.3948E+01  0.4075E+01  0.9451E+01  0.7690E+01  0.9629E-04  0.8611E-04  0.2498E-04  0.2473E-04  0.1103E-03  0.1365E-03  0.6130E-04  0.3059E-04  0.2668E-03  0.2337E-03
    -49.554  0.2586E-04  0.3063E-04  0.5579E+00  0.7703E+00  0.2211E-01  0.3490E-01  0.4005E+00  0.6793E+00  0.1403E-04  0.1297E-04  0.6501E-06  0.6797E-06  0.1158E-04  0.1047E-04  0.1182E-05  0.6789E-05  0.4704E-04  0.4783E-04
    -49.347  0.0000E+00  0.0000E+00  0.0000E+00  0.0000E+00  0.0000E+00  0.0000E+00  0.0000E+00  0.0000E+00  0.0000E+00  0.0000E+00  0.0000E+00  0.0000E+00  0.0000E+00  0.0000E+00  0.0000E+00  0.0000E+00  0.0000E+00  0.0000E+00
    -49.140  0.0000E+00  0.0000E+00  0.0000E+00  0.0000E+00  0.0000E+00  0.0000E+00  0.0000E+00  0.0000E+00  0.0000E+00  0.0000E+00  0.0000E+00  0.0000E+00  0.0000E+00  0.0000E+00  0.0000E+00  0.0000E+00  0.0000E+00  0.0000E+00
    -48.932  0.0000E+00  0.0000E+00  0.0000E+00  0.0000E+00  0.0000E+00  0.0000E+00  0.0000E+00  0.0000E+00  0.0000E+00  0.0000E+00  0.0000E+00  0.0000E+00  0.0000E+00  0.0000E+00  0.0000E+00  0.0000E+00  0.0000E+00  0.0000E+00
    -48.725  0.0000E+00  0.0000E+00  0.0000E+00  0.0000E+00  0.0000E+00  0.0000E+00  0.0000E+00  0.0000E+00  0.0000E+00  0.0000E+00  0.0000E+00  0.0000E+00  0.0000E+00  0.0000E+00  0.0000E+00  0.0000E+00  0.0000E+00  0.0000E+00
    -48.518  0.0000E+00  0.0000E+00  0.0000E+00  0.0000E+00  0.0000E+00  0.0000E+00  0.0000E+00  0.0000E+00  0.0000E+00  0.0000E+00  0.0000E+00  0.0000E+00  0.0000E+00  0.0000E+00  0.0000E+00  0.0000E+00  0.0000E+00  0.0000E+00
    -48.310  0.0000E+00  0.0000E+00  0.0000E+00  0.0000E+00  0.0000E+00  0.0000E+00  0.0000E+00  0.0000E+00  0.0000E+00  0.0000E+00  0.0000E+00  0.0000E+00  0.0000E+00  0.0000E+00  0.0000E+00  0.0000E+00  0.0000E+00  0.0000E+00
    -48.103  0.0000E+00  0.0000E+00  0.0000E+00  0.0000E+00  0.0000E+00  0.0000E+00  0.0000E+00  0.0000E+00  0.0000E+00  0.0000E+00  0.0000E+00  0.0000E+00  0.0000E+00  0.0000E+00  0.0000E+00  0.0000E+00  0.0000E+00  0.0000E+00
    -47.895  0.0000E+00  0.0000E+00  0.0000E+00  0.0000E+00  0.0000E+00  0.0000E+00  0.0000E+00  0.0000E+00  0.0000E+00  0.0000E+00  0.0000E+00  0.0000E+00  0.0000E+00  0.0000E+00  0.0000E+00  0.0000E+00  0.0000E+00  0.0000E+00
    -47.688  0.0000E+00  0.0000E+00  0.0000E+00  0.0000E+00  0.0000E+00  0.0000E+00  0.0000E+00  0.0000E+00  0.0000E+00  0.0000E+00  0.0000E+00  0.0000E+00  0.0000E+00  0.0000E+00  0.0000E+00  0.0000E+00  0.0000E+00  0.0000E+00
    -47.481  0.0000E+00  0.0000E+00  0.0000E+00  0.0000E+00  0.0000E+00  0.0000E+00  0.0000E+00  0.0000E+00  0.0000E+00  0.0000E+00  0.0000E+00  0.0000E+00  0.0000E+00  0.0000E+00  0.0000E+00  0.0000E+00  0.0000E+00  0.0000E+00
    -47.273  0.0000E+00  0.0000E+00  0.0000E+00  0.0000E+00  0.0000E+00  0.0000E+00  0.0000E+00  0.0000E+00  0.0000E+00  0.0000E+00  0.0000E+00  0.0000E+00  0.0000E+00  0.0000E+00  0.0000E+00  0.0000E+00  0.0000E+00  0.0000E+00
    -47.066  0.0000E+00  0.0000E+00  0.0000E+00  0.0000E+00  0.0000E+00  0.0000E+00  0.0000E+00  0.0000E+00  0.0000E+00  0.0000E+00  0.0000E+00  0.0000E+00  0.0000E+00  0.0000E+00  0.0000E+00  0.0000E+00  0.0000E+00  0.0000E+00
    -46.859  0.0000E+00  0.0000E+00  0.0000E+00  0.0000E+00  0.0000E+00  0.0000E+00  0.0000E+00  0.0000E+00  0.0000E+00  0.0000E+00  0.0000E+00  0.0000E+00  0.0000E+00  0.0000E+00  0.0000E+00  0.0000E+00  0.0000E+00  0.0000E+00
    -46.651  0.0000E+00  0.0000E+00  0.0000E+00  0.0000E+00  0.0000E+00  0.0000E+00  0.0000E+00  0.0000E+00  0.0000E+00  0.0000E+00  0.0000E+00  0.0000E+00  0.0000E+00  0.0000E+00  0.0000E+00  0.0000E+00  0.0000E+00  0.0000E+00
    -46.444  0.0000E+00  0.0000E+00  0.0000E+00  0.0000E+00  0.0000E+00  0.0000E+00  0.0000E+00  0.0000E+00  0.0000E+00  0.0000E+00  0.0000E+00  0.0000E+00  0.0000E+00  0.0000E+00  0.0000E+00  0.0000E+00  0.0000E+00  0.0000E+00
    -46.237  0.0000E+00  0.0000E+00  0.0000E+00  0.0000E+00  0.0000E+00  0.0000E+00  0.0000E+00  0.0000E+00  0.0000E+00  0.0000E+00  0.0000E+00  0.0000E+00  0.0000E+00  0.0000E+00  0.0000E+00  0.0000E+00  0.0000E+00  0.0000E+00
    -46.029  0.0000E+00  0.0000E+00  0.0000E+00  0.0000E+00  0.0000E+00  0.0000E+00  0.0000E+00  0.0000E+00  0.0000E+00  0.0000E+00  0.0000E+00  0.0000E+00  0.0000E+00  0.0000E+00  0.0000E+00  0.0000E+00  0.0000E+00  0.0000E+00
    -45.822  0.0000E+00  0.0000E+00  0.0000E+00  0.0000E+00  0.0000E+00  0.0000E+00  0.0000E+00  0.0000E+00  0.0000E+00  0.0000E+00  0.0000E+00  0.0000E+00  0.0000E+00  0.0000E+00  0.0000E+00  0.0000E+00  0.0000E+00  0.0000E+00
    -45.614  0.0000E+00  0.0000E+00  0.0000E+00  0.0000E+00  0.0000E+00  0.0000E+00  0.0000E+00  0.0000E+00  0.0000E+00  0.0000E+00  0.0000E+00  0.0000E+00  0.0000E+00  0.0000E+00  0.0000E+00  0.0000E+00  0.0000E+00  0.0000E+00
    -45.407  0.0000E+00  0.0000E+00  0.0000E+00  0.0000E+00  0.0000E+00  0.0000E+00  0.0000E+00  0.0000E+00  0.0000E+00  0.0000E+00  0.0000E+00  0.0000E+00  0.0000E+00  0.0000E+00  0.0000E+00  0.0000E+00  0.0000E+00  0.0000E+00
    -45.200  0.0000E+00  0.0000E+00  0.0000E+00  0.0000E+00  0.0000E+00  0.0000E+00  0.0000E+00  0.0000E+00  0.0000E+00  0.0000E+00  0.0000E+00  0.0000E+00  0.0000E+00  0.0000E+00  0.0000E+00  0.0000E+00  0.0000E+00  0.0000E+00
    -44.992  0.0000E+00  0.0000E+00  0.0000E+00  0.0000E+00  0.0000E+00  0.0000E+00  0.0000E+00  0.0000E+00  0.0000E+00  0.0000E+00  0.0000E+00  0.0000E+00  0.0000E+00  0.0000E+00  0.0000E+00  0.0000E+00  0.0000E+00  0.0000E+00
    -44.785  0.0000E+00  0.0000E+00  0.0000E+00  0.0000E+00  0.0000E+00  0.0000E+00  0.0000E+00  0.0000E+00  0.0000E+00  0.0000E+00  0.0000E+00  0.0000E+00  0.0000E+00  0.0000E+00  0.0000E+00  0.0000E+00  0.0000E+00  0.0000E+00
    -44.578  0.0000E+00  0.0000E+00  0.0000E+00  0.0000E+00  0.0000E+00  0.0000E+00  0.0000E+00  0.0000E+00  0.0000E+00  0.0000E+00  0.0000E+00  0.0000E+00  0.0000E+00  0.0000E+00  0.0000E+00  0.0000E+00  0.0000E+00  0.0000E+00
    -44.370  0.0000E+00  0.0000E+00  0.0000E+00  0.0000E+00  0.0000E+00  0.0000E+00  0.0000E+00  0.0000E+00  0.0000E+00  0.0000E+00  0.0000E+00  0.0000E+00  0.0000E+00  0.0000E+00  0.0000E+00  0.0000E+00  0.0000E+00  0.0000E+00
    -44.163  0.0000E+00  0.0000E+00  0.0000E+00  0.0000E+00  0.0000E+00  0.0000E+00  0.0000E+00  0.0000E+00  0.0000E+00  0.0000E+00  0.0000E+00  0.0000E+00  0.0000E+00  0.0000E+00  0.0000E+00  0.0000E+00  0.0000E+00  0.0000E+00
    -43.956  0.0000E+00  0.0000E+00  0.0000E+00  0.0000E+00  0.0000E+00  0.0000E+00  0.0000E+00  0.0000E+00  0.0000E+00  0.0000E+00  0.0000E+00  0.0000E+00  0.0000E+00  0.0000E+00  0.0000E+00  0.0000E+00  0.0000E+00  0.0000E+00
    -43.748  0.0000E+00  0.0000E+00  0.0000E+00  0.0000E+00  0.0000E+00  0.0000E+00  0.0000E+00  0.0000E+00  0.0000E+00  0.0000E+00  0.0000E+00  0.0000E+00  0.0000E+00  0.0000E+00  0.0000E+00  0.0000E+00  0.0000E+00  0.0000E+00
    -43.541  0.0000E+00  0.0000E+00  0.0000E+00  0.0000E+00  0.0000E+00  0.0000E+00  0.0000E+00  0.0000E+00  0.0000E+00  0.0000E+00  0.0000E+00  0.0000E+00  0.0000E+00  0.0000E+00  0.0000E+00  0.0000E+00  0.0000E+00  0.0000E+00
    -43.333  0.0000E+00  0.0000E+00  0.0000E+00  0.0000E+00  0.0000E+00  0.0000E+00  0.0000E+00  0.0000E+00  0.0000E+00  0.0000E+00  0.0000E+00  0.0000E+00  0.0000E+00  0.0000E+00  0.0000E+00  0.0000E+00  0.0000E+00  0.0000E+00
    -43.126  0.0000E+00  0.0000E+00  0.0000E+00  0.0000E+00  0.0000E+00  0.0000E+00  0.0000E+00  0.0000E+00  0.0000E+00  0.0000E+00  0.0000E+00  0.0000E+00  0.0000E+00  0.0000E+00  0.0000E+00  0.0000E+00  0.0000E+00  0.0000E+00
    -42.919  0.0000E+00  0.0000E+00  0.0000E+00  0.0000E+00  0.0000E+00  0.0000E+00  0.0000E+00  0.0000E+00  0.0000E+00  0.0000E+00  0.0000E+00  0.0000E+00  0.0000E+00  0.0000E+00  0.0000E+00  0.0000E+00  0.0000E+00  0.0000E+00