   16   16   99    2
  0.2081250E+02  0.8066788E-09  0.7035799E-09  0.6406597E-09  0.5000000E-15
  1.000000000000000E-004
  CAR 
 unknown system                          
    160    221     96
 
  0.0000000E+00  0.0000000E+00  0.0000000E+00  0.2267574E-02
      1        -50.258102      -50.258102   1.000000   1.000000
      2        -50.180647      -50.180647   1.000000   1.000000
      3        -50.159544      -50.159544   1.000000   1.000000
      4        -50.139060      -50.139060   1.000000   1.000000
      5        -50.114432      -50.114432   1.000000   1.000000
      6        -50.107226      -50.107226   1.000000   1.000000
      7        -50.080482      -50.080482   1.000000   1.000000
      8        -50.075165      -50.075165   1.000000   1.000000
      9        -50.042696      -50.042696   1.000000   1.000000
     10        -50.038651      -50.038651   1.000000   1.000000
     11        -50.034682      -50.034682   1.000000   1.000000
     12        -50.026297      -50.026297   1.000000   1.000000
     13        -49.987407      -49.987407   1.000000   1.000000
     14        -49.959589      -49.959589   1.000000   1.000000
     15        -49.948990      -49.948990   1.000000   1.000000
     16        -49.928277      -49.928277   1.000000   1.000000
     17        -49.685528      -49.685528   1.000000   1.000000
     18        -49.610998      -49.610998   1.000000   1.000000
     19        -49.602438      -49.602438   1.000000   1.000000
     20        -49.596879      -49.596879   1.000000   1.000000
     21        -49.592088      -49.592088   1.000000   1.000000
     22        -49.579841      -49.579841   1.000000   1.000000
     23        -49.558683      -49.558683   1.000000   1.000000
     24        -49.496091      -49.496091   1.000000   1.000000
     25        -11.672594      -11.672594   1.000000   1.000000
     26        -10.857268      -10.857268   1.000000   1.000000
     27        -10.831854      -10.831854   1.000000   1.000000
     28        -10.336216      -10.336216   1.000000   1.000000
     29        -10.108672      -10.108672   1.000000   1.000000
     30        -10.087644      -10.087644   1.000000   1.000000
     31        -10.066229      -10.066229   1.000000   1.000000
     32         -9.812445       -9.812445   1.000000   1.000000
     33         -3.463808       -3.463808   1.000000   1.000000
     34         -2.938363       -2.938363   1.000000   1.000000
     35         -2.921725       -2.921725   1.000000   1.000000
     36         -2.526723       -2.526723   1.000000   1.000000
     37         -2.515516       -2.515516   1.000000   1.000000
     38         -2.087899       -2.087899   1.000000   1.000000
     39         -2.074842       -2.074842   1.000000   1.000000
     40         -1.651414       -1.651414   1.000000   1.000000
     41         -1.636353       -1.636353   1.000000   1.000000
     42         -0.905403       -0.905403   1.000000   1.000000
     43         -0.836979       -0.836979   1.000000   1.000000
     44         -0.793668       -0.793668   1.000000   1.000000
     45         -0.674080       -0.674080   1.000000   1.000000
     46         -0.526777       -0.526777   1.000000   1.000000
     47         -0.435184       -0.435184   1.000000   1.000000
     48         -0.411250       -0.411250   1.000000   1.000000
     49         -0.326187       -0.326187   1.000000   1.000000
     50         -0.301385       -0.301385   1.000000   1.000000
     51         -0.102665       -0.102665   1.000000   1.000000
     52         -0.063606       -0.063606   1.000000   1.000000
     53          0.074718        0.074718   1.000000   1.000000
     54          0.262865        0.262865   1.000000   1.000000
     55          0.305794        0.305794   1.000000   1.000000
     56          0.695968        0.695968   1.000000   1.000000
     57          0.730019        0.730019   1.000000   1.000000
     58          0.786221        0.786221   1.000000   1.000000
     59          1.132843        1.132843   1.000000   1.000000
     60          1.145456        1.145456   1.000000   1.000000
     61          1.252229        1.252229   1.000000   1.000000
     62          1.337976        1.337976   1.000000   1.000000
     63          1.482626        1.482626   1.000000   1.000000
     64          1.515958        1.515958   1.000000   1.000000
     65          1.525183        1.525183   1.000000   1.000000
     66          1.649503        1.649503   1.000000   1.000000
     67          1.874244        1.874244   1.000000   1.000000
     68          1.875335        1.875335   1.000000   1.000000
     69          1.918218        1.918218   1.000000   1.000000
     70          1.977033        1.977033   1.000000   1.000000
     71          2.018709        2.018709   1.000000   1.000000
     72          2.086517        2.086517   1.000000   1.000000
     73          2.093535        2.093535   1.000000   1.000000
     74          2.139568        2.139568   1.000000   1.000000
     75          2.282957        2.282957   1.000000   1.000000
     76          2.547935        2.547935   1.000000   1.000000
     77          2.810654        2.810654   0.999543   0.999543
     78          2.812409        2.812409   0.999455   0.999455
     79          2.822301        2.822301   0.998588   0.998588
     80          2.886994        2.886994   0.876246   0.876246
     81          2.996395        2.996395   0.026317   0.026317
     82          3.043732        3.043732   0.000525   0.000525
     83          3.179321        3.179321   0.000000   0.000000
     84          3.201025        3.201025   0.000000   0.000000
     85          3.556428        3.556428   0.000000   0.000000
     86          3.659536        3.659536   0.000000   0.000000
     87          3.804664        3.804664   0.000000   0.000000
     88          4.190980        4.190980   0.000000   0.000000
     89          4.209814        4.209814   0.000000   0.000000
     90          4.245641        4.245641   0.000000   0.000000
     91          4.305256        4.305256   0.000000   0.000000
     92          4.345903        4.345902   0.000000   0.000000
     93          5.065137        5.065136   0.000000   0.000000
     94          5.125167        5.125171   0.000000   0.000000
     95          5.303475        5.303475   0.000000   0.000000
     96          5.371174        5.371155   0.000000   0.000000
 
  0.1428571E+00 -0.1622521E-16  0.3041153E-14  0.4535147E-02
      1        -50.254401      -50.254401   1.000000   1.000000
      2        -50.181085      -50.181085   1.000000   1.000000
      3        -50.159210      -50.159210   1.000000   1.000000
      4        -50.138449      -50.138449   1.000000   1.000000
      5        -50.122690      -50.122690   1.000000   1.000000
      6        -50.117211      -50.117211   1.000000   1.000000
      7        -50.082275      -50.082275   1.000000   1.000000
      8        -50.066681      -50.066681   1.000000   1.000000
      9        -50.047448      -50.047448   1.000000   1.000000
     10        -50.032943      -50.032943   1.000000   1.000000
     11        -50.026863      -50.026863   1.000000   1.000000
     12        -50.021835      -50.021835   1.000000   1.000000
     13        -49.988646      -49.988646   1.000000   1.000000
     14        -49.961298      -49.961298   1.000000   1.000000
     15        -49.949842      -49.949842   1.000000   1.000000
     16        -49.930351      -49.930351   1.000000   1.000000
     17        -49.683582      -49.683582   1.000000   1.000000
     18        -49.623915      -49.623915   1.000000   1.000000
     19        -49.598178      -49.598178   1.000000   1.000000
     20        -49.591692      -49.591692   1.000000   1.000000
     21        -49.590680      -49.590680   1.000000   1.000000
     22        -49.580276      -49.580276   1.000000   1.000000
     23        -49.555671      -49.555671   1.000000   1.000000
     24        -49.498549      -49.498549   1.000000   1.000000
     25        -11.638324      -11.638324   1.000000   1.000000
     26        -10.905755      -10.905755   1.000000   1.000000
     27        -10.800936      -10.800936   1.000000   1.000000
     28        -10.324951      -10.324951   1.000000   1.000000
     29        -10.148720      -10.148720   1.000000   1.000000
     30        -10.102955      -10.102955   1.000000   1.000000
     31        -10.054225      -10.054225   1.000000   1.000000
     32         -9.825602       -9.825602   1.000000   1.000000
     33         -3.409123       -3.409123   1.000000   1.000000
     34         -2.918961       -2.918961   1.000000   1.000000
     35         -2.784954       -2.784954   1.000000   1.000000
     36         -2.547091       -2.547091   1.000000   1.000000
     37         -2.397305       -2.397305   1.000000   1.000000
     38         -2.151838       -2.151838   1.000000   1.000000
     39         -2.039371       -2.039371   1.000000   1.000000
     40         -1.636974       -1.636974   1.000000   1.000000
     41         -1.606913       -1.606913   1.000000   1.000000
     42         -0.944792       -0.944792   1.000000   1.000000
     43         -0.896871       -0.896871   1.000000   1.000000
     44         -0.827879       -0.827879   1.000000   1.000000
     45         -0.794020       -0.794020   1.000000   1.000000
     46         -0.596960       -0.596960   1.000000   1.000000
     47         -0.492679       -0.492679   1.000000   1.000000
     48         -0.479628       -0.479628   1.000000   1.000000
     49         -0.351609       -0.351609   1.000000   1.000000
     50         -0.160875       -0.160875   1.000000   1.000000
     51         -0.017962       -0.017962   1.000000   1.000000
     52          0.086139        0.086139   1.000000   1.000000
     53          0.100208        0.100208   1.000000   1.000000
     54          0.117943        0.117943   1.000000   1.000000
     55          0.288201        0.288201   1.000000   1.000000
     56          0.748108        0.748108   1.000000   1.000000
     57          0.759953        0.759953   1.000000   1.000000
     58          0.851179        0.851179   1.000000   1.000000
     59          0.948120        0.948120   1.000000   1.000000
     60          1.016611        1.016611   1.000000   1.000000
     61          1.150969        1.150969   1.000000   1.000000
     62          1.335186        1.335186   1.000000   1.000000
     63          1.422227        1.422227   1.000000   1.000000
     64          1.488769        1.488769   1.000000   1.000000
     65          1.509905        1.509905   1.000000   1.000000
     66          1.664906        1.664906   1.000000   1.000000
     67          1.886653        1.886653   1.000000   1.000000
     68          1.917058        1.917058   1.000000   1.000000
     69          1.968259        1.968259   1.000000   1.000000
     70          2.002283        2.002283   1.000000   1.000000
     71          2.012125        2.012125   1.000000   1.000000
     72          2.026460        2.026460   1.000000   1.000000
     73          2.103396        2.103396   1.000000   1.000000
     74          2.132756        2.132756   1.000000   1.000000
     75          2.402130        2.402130   1.000000   1.000000
     76          2.568565        2.568565   1.000000   1.000000
     77          2.724324        2.724324   1.000000   1.000000
     78          2.802830        2.802830   0.999798   0.999798
     79          2.869450        2.869450   0.950796   0.950796
     80          2.908889        2.908889   0.704406   0.704406
     81          2.979273        2.979273   0.073022   0.073022
     82          3.035397        3.035397   0.001179   0.001179
     83          3.145802        3.145802   0.000000   0.000000
     84          3.231554        3.231554   0.000000   0.000000
     85          3.609751        3.609751   0.000000   0.000000
     86          3.629486        3.629486   0.000000   0.000000
     87          3.788159        3.788159   0.000000   0.000000
     88          4.155282        4.155282   0.000000   0.000000
     89          4.211009        4.211009   0.000000   0.000000
     90          4.242303        4.242303   0.000000   0.000000
     91          4.269918        4.269918   0.000000   0.000000
     92          4.539641        4.539641   0.000000   0.000000
     93          4.834963        4.834963   0.000000   0.000000
     94          5.131511        5.131511   0.000000   0.000000
     95          5.147136        5.147135   0.000000   0.000000
     96          5.357628        5.357629   0.000000   0.000000
 
  0.2857143E+00 -0.3991436E-16 -0.1569561E-14  0.4535147E-02
      1        -50.243603      -50.243603   1.000000   1.000000
      2        -50.187794      -50.187794   1.000000   1.000000
      3        -50.158255      -50.158255   1.000000   1.000000
      4        -50.138860      -50.138860   1.000000   1.000000
      5        -50.135384      -50.135384   1.000000   1.000000
      6        -50.123017      -50.123017   1.000000   1.000000
      7        -50.090957      -50.090957   1.000000   1.000000
      8        -50.073917      -50.073917   1.000000   1.000000
      9        -50.030099      -50.030099   1.000000   1.000000
     10        -50.022863      -50.022863   1.000000   1.000000
     11        -50.017792      -50.017792   1.000000   1.000000
     12        -50.012159      -50.012159   1.000000   1.000000
     13        -49.992249      -49.992249   1.000000   1.000000
     14        -49.967301      -49.967301   1.000000   1.000000
     15        -49.951536      -49.951536   1.000000   1.000000
     16        -49.935379      -49.935379   1.000000   1.000000
     17        -49.677797      -49.677797   1.000000   1.000000
     18        -49.640619      -49.640619   1.000000   1.000000
     19        -49.595637      -49.595637   1.000000   1.000000
     20        -49.589317      -49.589317   1.000000   1.000000
     21        -49.586890      -49.586890   1.000000   1.000000
     22        -49.581022      -49.581022   1.000000   1.000000
     23        -49.545566      -49.545566   1.000000   1.000000
     24        -49.505684      -49.505684   1.000000   1.000000
     25        -11.539652      -11.539652   1.000000   1.000000
     26        -11.035736      -11.035736   1.000000   1.000000
     27        -10.712047      -10.712047   1.000000   1.000000
     28        -10.293009      -10.293009   1.000000   1.000000
     29        -10.262188      -10.262188   1.000000   1.000000
     30        -10.139682      -10.139682   1.000000   1.000000
     31        -10.020296      -10.020296   1.000000   1.000000
     32         -9.862129       -9.862129   1.000000   1.000000
     33         -3.250099       -3.250099   1.000000   1.000000
     34         -2.863536       -2.863536   1.000000   1.000000
     35         -2.606409       -2.606409   1.000000   1.000000
     36         -2.400226       -2.400226   1.000000   1.000000
     37         -2.383376       -2.383376   1.000000   1.000000
     38         -2.053797       -2.053797   1.000000   1.000000
     39         -1.900231       -1.900231   1.000000   1.000000
     40         -1.558194       -1.558194   1.000000   1.000000
     41         -1.524529       -1.524529   1.000000   1.000000
     42         -1.066866       -1.066866   1.000000   1.000000
     43         -1.059514       -1.059514   1.000000   1.000000
     44         -1.047755       -1.047755   1.000000   1.000000
     45         -0.762041       -0.762041   1.000000   1.000000
     46         -0.759295       -0.759295   1.000000   1.000000
     47         -0.672629       -0.672629   1.000000   1.000000
     48         -0.612207       -0.612207   1.000000   1.000000
     49         -0.439031       -0.439031   1.000000   1.000000
     50         -0.279385       -0.279385   1.000000   1.000000
     51          0.078033        0.078033   1.000000   1.000000
     52          0.163346        0.163346   1.000000   1.000000
     53          0.235481        0.235481   1.000000   1.000000
     54          0.242291        0.242291   1.000000   1.000000
     55          0.316090        0.316090   1.000000   1.000000
     56          0.399071        0.399071   1.000000   1.000000
     57          0.758351        0.758351   1.000000   1.000000
     58          0.792745        0.792745   1.000000   1.000000
     59          1.015271        1.015271   1.000000   1.000000
     60          1.056214        1.056214   1.000000   1.000000
     61          1.101005        1.101005   1.000000   1.000000
     62          1.266081        1.266081   1.000000   1.000000
     63          1.333463        1.333463   1.000000   1.000000
     64          1.434047        1.434047   1.000000   1.000000
     65          1.486389        1.486389   1.000000   1.000000
     66          1.676237        1.676237   1.000000   1.000000
     67          1.781070        1.781070   1.000000   1.000000
     68          1.804634        1.804634   1.000000   1.000000
     69          1.903125        1.903125   1.000000   1.000000
     70          1.978430        1.978430   1.000000   1.000000
     71          2.066089        2.066089   1.000000   1.000000
     72          2.115330        2.115330   1.000000   1.000000
     73          2.194452        2.194452   1.000000   1.000000
     74          2.233637        2.233637   1.000000   1.000000
     75          2.510143        2.510143   1.000000   1.000000
     76          2.655996        2.655996   1.000000   1.000000
     77          2.705593        2.705593   1.000000   1.000000
     78          2.781936        2.781936   0.999982   0.999982
     79          2.826040        2.826040   0.998014   0.998014
     80          2.931712        2.931712   0.456837   0.456837
     81          2.951351        2.951351   0.253382   0.253382
     82          3.014674        3.014674   0.007045   0.007045
     83          3.113957        3.113957   0.000000   0.000000
     84          3.360074        3.360074   0.000000   0.000000
     85          3.648413        3.648413   0.000000   0.000000
     86          3.726250        3.726250   0.000000   0.000000
     87          3.740648        3.740648   0.000000   0.000000
     88          3.930386        3.930386   0.000000   0.000000
     89          4.058448        4.058448   0.000000   0.000000
     90          4.137720        4.137720   0.000000   0.000000
     91          4.189056        4.189056   0.000000   0.000000
     92          4.393821        4.393821   0.000000   0.000000
     93          5.007991        5.007991   0.000000   0.000000
     94          5.128324        5.128324   0.000000   0.000000
     95          5.171812        5.171812   0.000000   0.000000
     96          5.318671        5.318670   0.000000   0.000000
 
  0.4285714E+00  0.6051082E-18  0.1462976E-14  0.4535147E-02
      1        -50.226765      -50.226765   1.000000   1.000000
      2        -50.206038      -50.206038   1.000000   1.000000
      3        -50.153227      -50.153227   1.000000   1.000000
      4        -50.144587      -50.144587   1.000000   1.000000
      5        -50.134383      -50.134383   1.000000   1.000000
      6        -50.128211      -50.128211   1.000000   1.000000
      7        -50.093260      -50.093260   1.000000   1.000000
      8        -50.085957      -50.085957   1.000000   1.000000
      9        -50.019309      -50.019309   1.000000   1.000000
     10        -50.013953      -50.013953   1.000000   1.000000
     11        -50.007541      -50.007541   1.000000   1.000000
     12        -50.001257      -50.001257   1.000000   1.000000
     13        -49.995050      -49.995050   1.000000   1.000000
     14        -49.979364      -49.979364   1.000000   1.000000
     15        -49.952381      -49.952381   1.000000   1.000000
     16        -49.939954      -49.939954   1.000000   1.000000
     17        -49.668453      -49.668453   1.000000   1.000000
     18        -49.655837      -49.655837   1.000000   1.000000
     19        -49.592499      -49.592499   1.000000   1.000000
     20        -49.588771      -49.588771   1.000000   1.000000
     21        -49.586493      -49.586493   1.000000   1.000000
     22        -49.582453      -49.582453   1.000000   1.000000
     23        -49.531398      -49.531398   1.000000   1.000000
     24        -49.516709      -49.516709   1.000000   1.000000
     25        -11.389456      -11.389456   1.000000   1.000000
     26        -11.210448      -11.210448   1.000000   1.000000
     27        -10.577169      -10.577169   1.000000   1.000000
     28        -10.417255      -10.417255   1.000000   1.000000
     29        -10.245218      -10.245218   1.000000   1.000000
     30        -10.190584      -10.190584   1.000000   1.000000
     31         -9.970474       -9.970474   1.000000   1.000000
     32         -9.914038       -9.914038   1.000000   1.000000
     33         -3.003151       -3.003151   1.000000   1.000000
     34         -2.780935       -2.780935   1.000000   1.000000
     35         -2.711062       -2.711062   1.000000   1.000000
     36         -2.675239       -2.675239   1.000000   1.000000
     37         -1.814329       -1.814329   1.000000   1.000000
     38         -1.694071       -1.694071   1.000000   1.000000
     39         -1.629758       -1.629758   1.000000   1.000000
     40         -1.417945       -1.417945   1.000000   1.000000
     41         -1.401786       -1.401786   1.000000   1.000000
     42         -1.292181       -1.292181   1.000000   1.000000
     43         -1.233872       -1.233872   1.000000   1.000000
     44         -1.192058       -1.192058   1.000000   1.000000
     45         -1.122305       -1.122305   1.000000   1.000000
     46         -0.849983       -0.849983   1.000000   1.000000
     47         -0.834662       -0.834662   1.000000   1.000000
     48         -0.800294       -0.800294   1.000000   1.000000
     49         -0.659077       -0.659077   1.000000   1.000000
     50         -0.540343       -0.540343   1.000000   1.000000
     51          0.136241        0.136241   1.000000   1.000000
     52          0.188514        0.188514   1.000000   1.000000
     53          0.305308        0.305308   1.000000   1.000000
     54          0.384911        0.384911   1.000000   1.000000
     55          0.436506        0.436506   1.000000   1.000000
     56          0.476302        0.476302   1.000000   1.000000
     57          0.583576        0.583576   1.000000   1.000000
     58          0.857525        0.857525   1.000000   1.000000
     59          0.948017        0.948017   1.000000   1.000000
     60          0.978645        0.978645   1.000000   1.000000
     61          1.223226        1.223226   1.000000   1.000000
     62          1.327750        1.327750   1.000000   1.000000
     63          1.391099        1.391099   1.000000   1.000000
     64          1.444544        1.444544   1.000000   1.000000
     65          1.464385        1.464385   1.000000   1.000000
     66          1.537505        1.537505   1.000000   1.000000
     67          1.601924        1.601924   1.000000   1.000000
     68          1.704982        1.704982   1.000000   1.000000
     69          1.835711        1.835711   1.000000   1.000000
     70          1.918643        1.918643   1.000000   1.000000
     71          2.123768        2.123768   1.000000   1.000000
     72          2.140440        2.140440   1.000000   1.000000
     73          2.346180        2.346180   1.000000   1.000000
     74          2.448057        2.448057   1.000000   1.000000
     75          2.477593        2.477593   1.000000   1.000000
     76          2.651384        2.651384   1.000000   1.000000
     77          2.742619        2.742619   1.000000   1.000000
     78          2.770790        2.770790   0.999996   0.999996
     79          2.865862        2.865862   0.960294   0.960294
     80          2.952187        2.952187   0.245873   0.245874
     81          2.991042        2.991042   0.037008   0.037008
     82          3.048194        3.048194   0.000333   0.000333
     83          3.080193        3.080193   0.000008   0.000008
     84          3.357282        3.357282   0.000000   0.000000
     85          3.506200        3.506200   0.000000   0.000000
     86          3.636805        3.636805   0.000000   0.000000
     87          3.796640        3.796640   0.000000   0.000000
     88          3.873726        3.873726   0.000000   0.000000
     89          3.935857        3.935857   0.000000   0.000000
     90          4.027905        4.027905   0.000000   0.000000
     91          4.117137        4.117137   0.000000   0.000000
     92          4.141148        4.141148   0.000000   0.000000
     93          5.104432        5.104432   0.000000   0.000000
     94          5.227981        5.227980   0.000000   0.000000
     95          5.253203        5.253235   0.000000   0.000000
     96          5.352334        5.352362   0.000000   0.000000
 
  0.1373793E-17  0.1428571E+00 -0.2185280E-14  0.4535147E-02
      1        -50.254458      -50.254458   1.000000   1.000000
      2        -50.178991      -50.178991   1.000000   1.000000
      3        -50.158552      -50.158552   1.000000   1.000000
      4        -50.144869      -50.144869   1.000000   1.000000
      5        -50.124802      -50.124802   1.000000   1.000000
      6        -50.112085      -50.112085   1.000000   1.000000
      7        -50.082207      -50.082207   1.000000   1.000000
      8        -50.061557      -50.061557   1.000000   1.000000
      9        -50.047348      -50.047348   1.000000   1.000000
     10        -50.039887      -50.039887   1.000000   1.000000
     11        -50.029394      -50.029394   1.000000   1.000000
     12        -50.016738      -50.016738   1.000000   1.000000
     13        -49.988697      -49.988697   1.000000   1.000000
     14        -49.961336      -49.961336   1.000000   1.000000
     15        -49.950049      -49.950049   1.000000   1.000000
     16        -49.930347      -49.930347   1.000000   1.000000
     17        -49.683964      -49.683964   1.000000   1.000000
     18        -49.615026      -49.615026   1.000000   1.000000
     19        -49.610622      -49.610622   1.000000   1.000000
     20        -49.599508      -49.599508   1.000000   1.000000
     21        -49.580902      -49.580902   1.000000   1.000000
     22        -49.575130      -49.575130   1.000000   1.000000
     23        -49.558810      -49.558810   1.000000   1.000000
     24        -49.498574      -49.498574   1.000000   1.000000
     25        -11.637371      -11.637371   1.000000   1.000000
     26        -10.882004      -10.882004   1.000000   1.000000
     27        -10.825442      -10.825442   1.000000   1.000000
     28        -10.323847      -10.323847   1.000000   1.000000
     29        -10.149937      -10.149937   1.000000   1.000000
     30        -10.080496      -10.080496   1.000000   1.000000
     31        -10.077454      -10.077454   1.000000   1.000000
     32         -9.826915       -9.826915   1.000000   1.000000
     33         -3.409062       -3.409062   1.000000   1.000000
     34         -2.906241       -2.906241   1.000000   1.000000
     35         -2.797433       -2.797433   1.000000   1.000000
     36         -2.536443       -2.536443   1.000000   1.000000
     37         -2.399024       -2.399024   1.000000   1.000000
     38         -2.165187       -2.165187   1.000000   1.000000
     39         -2.027222       -2.027222   1.000000   1.000000
     40         -1.626232       -1.626232   1.000000   1.000000
     41         -1.615750       -1.615750   1.000000   1.000000
     42         -0.916943       -0.916943   1.000000   1.000000
     43         -0.903580       -0.903580   1.000000   1.000000
     44         -0.854731       -0.854731   1.000000   1.000000
     45         -0.795834       -0.795834   1.000000   1.000000
     46         -0.597260       -0.597260   1.000000   1.000000
     47         -0.496216       -0.496216   1.000000   1.000000
     48         -0.477913       -0.477913   1.000000   1.000000
     49         -0.360951       -0.360951   1.000000   1.000000
     50         -0.167656       -0.167656   1.000000   1.000000
     51          0.018097        0.018097   1.000000   1.000000
     52          0.081689        0.081689   1.000000   1.000000
     53          0.091590        0.091590   1.000000   1.000000
     54          0.157167        0.157167   1.000000   1.000000
     55          0.250170        0.250170   1.000000   1.000000
     56          0.762242        0.762242   1.000000   1.000000
     57          0.778362        0.778362   1.000000   1.000000
     58          0.821568        0.821568   1.000000   1.000000
     59          0.983902        0.983902   1.000000   1.000000
     60          1.034270        1.034270   1.000000   1.000000
     61          1.156090        1.156090   1.000000   1.000000
     62          1.267212        1.267212   1.000000   1.000000
     63          1.421772        1.421772   1.000000   1.000000
     64          1.470629        1.470629   1.000000   1.000000
     65          1.501854        1.501854   1.000000   1.000000
     66          1.670462        1.670462   1.000000   1.000000
     67          1.878270        1.878270   1.000000   1.000000
     68          1.922930        1.922930   1.000000   1.000000
     69          1.978494        1.978494   1.000000   1.000000
     70          1.991841        1.991841   1.000000   1.000000
     71          1.996598        1.996598   1.000000   1.000000
     72          2.056513        2.056513   1.000000   1.000000
     73          2.103292        2.103292   1.000000   1.000000
     74          2.143027        2.143027   1.000000   1.000000
     75          2.404949        2.404949   1.000000   1.000000
     76          2.565197        2.565197   1.000000   1.000000