       N       E                     dE             d eps       ncg     rms          rms(c)
DAV:   1     0.192284122952E+04    0.19228E+04   -0.89365E+04 96408   0.200E+03
DAV:   2     0.100497003194E+03   -0.18223E+04   -0.17925E+04 85824   0.572E+02
DAV:   3    -0.934028073260E+02   -0.19390E+03   -0.18808E+03126408   0.180E+02
DAV:   4    -0.105923378972E+03   -0.12521E+02   -0.12445E+02123672   0.469E+01
DAV:   5    -0.106300720296E+03   -0.37734E+00   -0.37657E+00115344   0.788E+00    0.293E+01
RMM:   6    -0.125358266882E+03   -0.19058E+02   -0.22987E+02 84996   0.100E+02    0.643E+01
RMM:   7    -0.104853464626E+03    0.20505E+02   -0.69742E+01 85526   0.585E+01    0.371E+01
RMM:   8    -0.958121078179E+02    0.90414E+01   -0.98388E+00 85719   0.222E+01    0.810E+00
RMM:   9    -0.964476895796E+02   -0.63558E+00   -0.33815E+00118891   0.543E+00    0.850E+00
RMM:  10    -0.965506913214E+02   -0.10300E+00   -0.11660E+00 97399   0.516E+00    0.871E+00
RMM:  11    -0.964592329897E+02    0.91458E-01   -0.70127E-01103846   0.361E+00    0.498E+00
RMM:  12    -0.964096366372E+02    0.49596E-01   -0.28347E-01112042   0.228E+00    0.157E+00
RMM:  13    -0.964363059918E+02   -0.26669E-01   -0.15505E-01125607   0.110E+00    0.157E+00
RMM:  14    -0.964352049812E+02    0.11010E-02   -0.41357E-02121219   0.711E-01    0.307E-01
RMM:  15    -0.964371721624E+02   -0.19672E-02   -0.15360E-02115314   0.309E-01    0.222E-01
RMM:  16    -0.964375096325E+02   -0.33747E-03   -0.46760E-03 87932   0.186E-01    0.108E-01
RMM:  17    -0.964377338638E+02   -0.22423E-03   -0.20553E-03 66104   0.124E-01    0.105E-01
RMM:  18    -0.964377928902E+02   -0.59026E-04   -0.79601E-04 56516   0.902E-02
   1 F= -.10145603E+03 E0= -.10145228E+03  d E =-.101456E+03  mag=     0.0000
       N       E                     dE             d eps       ncg     rms          rms(c)
DAV:   1    -0.959367371165E+02    0.50100E+00   -0.56655E+01 85992   0.102E+02    0.101E+01
RMM:   2    -0.987006554725E+02   -0.27639E+01   -0.22556E+01123353   0.270E+01    0.258E+01
RMM:   3    -0.973640650859E+02    0.13366E+01   -0.66208E+00 94452   0.184E+01    0.113E+01
RMM:   4    -0.970755412062E+02    0.28852E+00   -0.22487E+00 97005   0.997E+00    0.777E+00
RMM:   5    -0.972561646570E+02   -0.18062E+00   -0.11755E+00 91616   0.674E+00    0.117E+01
RMM:   6    -0.967699476095E+02    0.48622E+00   -0.56129E-01 92408   0.497E+00    0.145E+00
RMM:   7    -0.967881200181E+02   -0.18172E-01   -0.19674E-01123723   0.149E+00    0.109E+00
RMM:   8    -0.967849503888E+02    0.31696E-02   -0.33469E-02117685   0.697E-01    0.428E-01
RMM:   9    -0.967852762350E+02   -0.32585E-03   -0.12941E-02114168   0.392E-01    0.189E-01
RMM:  10    -0.967855307902E+02   -0.25456E-03   -0.38771E-03 92563   0.231E-01    0.102E-01
RMM:  11    -0.967856468858E+02   -0.11610E-03   -0.12259E-03 65528   0.121E-01
   2 F= -.10180726E+03 E0= -.10180319E+03  d E =-.351233E+00  mag=     0.0000
       N       E                     dE             d eps       ncg     rms          rms(c)
DAV:   1    -0.960243146022E+02    0.76122E+00   -0.63551E+01 85008   0.108E+02    0.107E+01
RMM:   2    -0.989864745031E+02   -0.29622E+01   -0.25367E+01124494   0.284E+01    0.262E+01
RMM:   3    -0.977083738592E+02    0.12781E+01   -0.73107E+00 94770   0.192E+01    0.126E+01
RMM:   4    -0.972757423547E+02    0.43263E+00   -0.25561E+00 95627   0.107E+01    0.788E+00
RMM:   5    -0.975578547889E+02   -0.28211E+00   -0.13645E+00 90518   0.722E+00    0.133E+01
RMM:   6    -0.969357979260E+02    0.62206E+00   -0.65021E-01 91698   0.542E+00    0.165E+00
RMM:   7    -0.969587867188E+02   -0.22989E-01   -0.22517E-01122730   0.158E+00    0.124E+00
RMM:   8    -0.969546356848E+02    0.41510E-02   -0.38885E-02117231   0.761E-01    0.474E-01
RMM:   9    -0.969551435882E+02   -0.50790E-03   -0.14771E-02116448   0.412E-01    0.203E-01
RMM:  10    -0.969554254488E+02   -0.28186E-03   -0.45645E-03 95924   0.239E-01    0.114E-01
RMM:  11    -0.969555727134E+02   -0.14726E-03   -0.14220E-03 67445   0.125E-01
   3 F= -.10198213E+03 E0= -.10197694E+03  d E =-.526106E+00  mag=     0.0000
       N       E                     dE             d eps       ncg     rms          rms(c)
DAV:   1    -0.968351172120E+02    0.12031E+00   -0.93796E+00 92400   0.420E+01    0.417E+00
RMM:   2    -0.972734346570E+02   -0.43832E+00   -0.38445E+00119511   0.118E+01    0.971E+00
RMM:   3    -0.970700768197E+02    0.20336E+00   -0.12033E+00 94469   0.789E+00    0.490E+00
RMM:   4    -0.970217339076E+02    0.48343E-01   -0.38743E-01 98936   0.411E+00    0.335E+00
RMM:   5    -0.970524015364E+02   -0.30668E-01   -0.19508E-01 92577   0.274E+00    0.488E+00
RMM:   6    -0.969675212640E+02    0.84880E-01   -0.98280E-02 91665   0.207E+00    0.547E-01
RMM:   7    -0.969697596316E+02   -0.22384E-02   -0.33710E-02122282   0.615E-01    0.286E-01
RMM:   8    -0.969694602477E+02    0.29938E-03   -0.57818E-03104848   0.283E-01    0.156E-01
RMM:   9    -0.969695930250E+02   -0.13278E-03   -0.23205E-03 81763   0.164E-01    0.811E-02
RMM:  10    -0.969696200388E+02   -0.27014E-04   -0.70090E-04 57734   0.110E-01
   4 F= -.10199829E+03 E0= -.10199248E+03  d E =-.542266E+00  mag=    -0.0000
       N       E                     dE             d eps       ncg     rms          rms(c)
DAV:   1    -0.959313279196E+02    0.10383E+01   -0.43697E+01 87936   0.985E+01    0.762E+00
RMM:   2    -0.978392442542E+02   -0.19079E+01   -0.17955E+01121390   0.235E+01    0.158E+01
RMM:   3    -0.975843384135E+02    0.25491E+00   -0.47461E+00 99903   0.149E+01    0.954E+00
RMM:   4    -0.973085358476E+02    0.27580E+00   -0.14745E+00101574   0.772E+00    0.247E+00
RMM:   5    -0.972806059802E+02    0.27930E-01   -0.48667E-01113408   0.367E+00    0.324E+00
RMM:   6    -0.972972996546E+02   -0.16694E-01   -0.16716E-01 97182   0.228E+00    0.346E+00
RMM:   7    -0.972523389812E+02    0.44961E-01   -0.58333E-02 94334   0.146E+00    0.666E-01
RMM:   8    -0.972520598848E+02    0.27910E-03   -0.33530E-02119226   0.646E-01    0.290E-01
RMM:   9    -0.972531035182E+02   -0.10436E-02   -0.84137E-03110914   0.295E-01    0.244E-01
RMM:  10    -0.972529457650E+02    0.15775E-03   -0.21543E-03 77497   0.165E-01    0.799E-02
RMM:  11    -0.972530215367E+02   -0.75772E-04   -0.66577E-04 57952   0.114E-01
   5 F= -.10228251E+03 E0= -.10227615E+03  d E =-.284211E+00  mag=    -0.0000
       N       E                     dE             d eps       ncg     rms          rms(c)
DAV:   1    -0.909255778270E+02    0.63274E+01   -0.49589E+02114504   0.291E+02    0.236E+01
RMM:   2    -0.104348153919E+03   -0.13423E+02   -0.12467E+02130652   0.573E+01    0.434E+01
RMM:   3    -0.103871351253E+03    0.47680E+00   -0.30467E+01 98796   0.372E+01    0.339E+01
RMM:   4    -0.987011604761E+02    0.51702E+01   -0.11586E+01 91797   0.244E+01    0.108E+01
RMM:   5    -0.100339748206E+03   -0.16386E+01   -0.52123E+00 97120   0.131E+01    0.248E+01
RMM:   6    -0.977443460177E+02    0.25954E+01   -0.22549E+00 89781   0.101E+01    0.451E+00
RMM:   7    -0.978479881438E+02   -0.10364E+00   -0.86004E-01111717   0.402E+00    0.235E+00
RMM:   8    -0.978673853938E+02   -0.19397E-01   -0.31436E-01120923   0.194E+00    0.124E+00
RMM:   9    -0.978732355774E+02   -0.58502E-02   -0.83748E-02127297   0.982E-01    0.632E-01
RMM:  10    -0.978748982710E+02   -0.16627E-02   -0.22501E-02117381   0.545E-01    0.419E-01
RMM:  11    -0.978754730176E+02   -0.57475E-03   -0.69034E-03105584   0.281E-01    0.211E-01
RMM:  12    -0.978757694309E+02   -0.29641E-03   -0.24609E-03 79763   0.152E-01    0.117E-01
RMM:  13    -0.978758075687E+02   -0.38138E-04   -0.75715E-04 58555   0.111E-01
   6 F= -.10291469E+03 E0= -.10290799E+03  d E =-.916395E+00  mag=    -0.0000
       N       E                     dE             d eps       ncg     rms          rms(c)
DAV:   1    -0.654330030584E+02    0.32443E+02   -0.22720E+03 96744   0.559E+02    0.439E+01
RMM:   2    -0.103825308017E+03   -0.38392E+02   -0.58186E+02137152   0.130E+02    0.294E+01
RMM:   3    -0.102439774341E+03    0.13855E+01   -0.79097E+01 92418   0.610E+01    0.337E+01
RMM:   4    -0.106790373864E+03   -0.43506E+01   -0.35077E+01103641   0.318E+01    0.530E+01
RMM:   5    -0.955754338745E+02    0.11215E+02   -0.12453E+01 90077   0.240E+01    0.203E+01
RMM:   6    -0.973297563349E+02   -0.17543E+01   -0.80645E+00 93504   0.164E+01    0.275E+01
RMM:   7    -0.938580483922E+02    0.34717E+01   -0.35317E+00 88180   0.131E+01    0.589E+00
RMM:   8    -0.941862909391E+02   -0.32824E+00   -0.19542E+00117732   0.533E+00    0.480E+00
RMM:   9    -0.942311721144E+02   -0.44881E-01   -0.44487E-01128164   0.243E+00    0.277E+00
RMM:  10    -0.942900970897E+02   -0.58925E-01   -0.13539E-01120229   0.146E+00    0.254E+00
RMM:  11    -0.943173974775E+02   -0.27300E-01   -0.44481E-02117519   0.639E-01    0.288E+00
RMM:  12    -0.943092221922E+02    0.81753E-02   -0.10511E-02107734   0.354E-01    0.283E+00
RMM:  13    -0.942339581231E+02    0.75264E-01   -0.10983E-01139139   0.143E+00    0.240E+00
RMM:  14    -0.941919083607E+02    0.42050E-01   -0.14237E-01142312   0.151E+00    0.155E+00
RMM:  15    -0.941958073784E+02   -0.38990E-02   -0.39949E-02119124   0.734E-01    0.134E+00
RMM:  16    -0.941888349266E+02    0.69725E-02   -0.47953E-02134834   0.849E-01    0.594E-01
RMM:  17    -0.941896797061E+02   -0.84478E-03   -0.35187E-02123023   0.695E-01    0.866E-01
RMM:  18    -0.941919647107E+02   -0.22850E-02   -0.15799E-02112931   0.436E-01    0.514E-01
RMM:  19    -0.941941792216E+02   -0.22145E-02   -0.64326E-03103279   0.284E-01    0.295E-01
RMM:  20    -0.941941971895E+02   -0.17968E-04   -0.54606E-03 97786   0.360E-01    0.572E-01
RMM:  21    -0.941938370612E+02    0.36013E-03   -0.32535E-03 90850   0.257E-01    0.312E-01
RMM:  22    -0.941939301857E+02   -0.93125E-04   -0.65499E-04 59297   0.120E-01
   7 F= -.99290249E+02 E0= -.99281397E+02  d E =0.270805E+01  mag=    -0.0000
       N       E                     dE             d eps       ncg     rms          rms(c)
DAV:   1    -0.935269944662E+02    0.66684E+00   -0.18899E+03106080   0.514E+02    0.619E+01
RMM:   2    -0.407779725185E+03   -0.31425E+03   -0.11178E+03122481   0.222E+02    0.126E+02
RMM:   3    -0.126112904011E+03    0.28167E+03   -0.39986E+02 86525   0.142E+02    0.705E+01
RMM:   4    -0.123087256317E+03    0.30256E+01   -0.71118E+01 92312   0.539E+01    0.687E+01
RMM:   5    -0.123363160238E+03   -0.27590E+00   -0.87852E+01 97469   0.488E+01    0.681E+01
RMM:   6    -0.963876576665E+02    0.26976E+02   -0.17302E+01 87258   0.292E+01    0.133E+01
RMM:   7    -0.107917494878E+03   -0.11530E+02   -0.16152E+01101241   0.182E+01    0.519E+01
RMM:   8    -0.990889827900E+02    0.88285E+01   -0.29353E+00 91933   0.114E+01    0.292E+01
RMM:   9    -0.991817477936E+02   -0.92765E-01   -0.13721E+00120766   0.337E+00    0.293E+01
RMM:  10    -0.984836436976E+02    0.69810E+00   -0.29716E-01119910   0.188E+00    0.272E+01
RMM:  11    -0.982229827618E+02    0.26066E+00   -0.95559E-02124465   0.946E-01    0.257E+01
RMM:  12    -0.991747215872E+02   -0.95174E+00   -0.18761E-01121018   0.192E+00    0.295E+01
RMM:  13    -0.981666773336E+02    0.10080E+01   -0.23171E-01134883   0.212E+00    0.255E+01
RMM:  14    -0.969037403600E+02    0.12629E+01   -0.81620E-01150006   0.335E+00    0.210E+01
RMM:  15    -0.951234438949E+02    0.17803E+01   -0.23170E+00150779   0.601E+00    0.669E+00
RMM:  16    -0.952058726595E+02   -0.82429E-01   -0.33061E-01133726   0.146E+00    0.740E+00
RMM:  17    -0.951845598281E+02    0.21313E-01   -0.92033E-02119622   0.653E-01    0.707E+00
RMM:  18    -0.951822817928E+02    0.22780E-02   -0.33918E-02109479   0.325E-01    0.706E+00
RMM:  19    -0.950686698730E+02    0.11361E+00   -0.68894E-02144894   0.121E+00    0.621E+00
RMM:  20    -0.947391868917E+02    0.32948E+00   -0.15964E-01155093   0.181E+00    0.656E+00
RMM:  21    -0.947839101258E+02   -0.44723E-01   -0.32187E-02124592   0.628E-01    0.561E+00
RMM:  22    -0.947663032374E+02    0.17607E-01   -0.85465E-03101925   0.264E-01    0.575E+00
RMM:  23    -0.950386357598E+02   -0.27233E+00   -0.87745E-02149621   0.139E+00    0.489E+00
RMM:  24    -0.951910129180E+02   -0.15238E+00   -0.72642E-02152510   0.121E+00    0.449E+00
RMM:  25    -0.952673441367E+02   -0.76331E-01   -0.37143E-02136938   0.708E-01    0.484E+00
RMM:  26    -0.952902745351E+02   -0.22930E-01   -0.17765E-02128286   0.502E-01    0.445E+00
RMM:  27    -0.953096046398E+02   -0.19330E-01   -0.45101E-02141774   0.854E-01    0.347E+00
RMM:  28    -0.953173338104E+02   -0.77292E-02   -0.40631E-02141452   0.711E-01    0.256E+00
RMM:  29    -0.953485134780E+02   -0.31180E-01   -0.36482E-02138958   0.770E-01    0.187E+00
RMM:  30    -0.953639465944E+02   -0.15433E-01   -0.20179E-02129224   0.548E-01    0.186E+00
RMM:  31    -0.953784004453E+02   -0.14454E-01   -0.19685E-02130269   0.541E-01    0.209E+00
RMM:  32    -0.953780512211E+02    0.34922E-03   -0.11157E-02122137   0.441E-01    0.190E+00
RMM:  33    -0.953836499509E+02   -0.55987E-02   -0.85434E-03114956   0.348E-01    0.184E+00
RMM:  34    -0.954009690643E+02   -0.17319E-01   -0.21138E-02133330   0.633E-01    0.163E+00
RMM:  35    -0.953996736653E+02    0.12954E-02   -0.47150E-03 93423   0.330E-01    0.165E+00
RMM:  36    -0.953904059419E+02    0.92677E-02   -0.72061E-03116579   0.436E-01    0.172E+00
RMM:  37    -0.953996031984E+02   -0.91973E-02   -0.35696E-03 92285   0.345E-01    0.168E+00
RMM:  38    -0.953744796946E+02    0.25124E-01   -0.11507E-02123774   0.548E-01    0.171E+00
RMM:  39    -0.953782140436E+02   -0.37343E-02   -0.16027E-03 77142   0.195E-01    0.174E+00
RMM:  40    -0.953598647323E+02    0.18349E-01   -0.87227E-03123374   0.428E-01    0.183E+00
RMM:  41    -0.953734799095E+02   -0.13615E-01   -0.22746E-03 83982   0.301E-01    0.178E+00
RMM:  42    -0.954011256233E+02   -0.27646E-01   -0.21168E-01154120   0.222E+00    0.169E+00
RMM:  43    -0.954263127495E+02   -0.25187E-01   -0.51932E-02138764   0.797E-01    0.182E+00
RMM:  44    -0.954523768132E+02   -0.26064E-01   -0.13151E-02124798   0.562E-01    0.160E+00
RMM:  45    -0.954541527646E+02   -0.17760E-02   -0.28149E-03 83275   0.192E-01    0.158E+00
RMM:  46    -0.954580001129E+02   -0.38473E-02   -0.26692E-03 87454   0.223E-01    0.166E+00
RMM:  47    -0.954643773274E+02   -0.63772E-02   -0.10754E-02129040   0.473E-01    0.187E+00
RMM:  48    -0.954636589722E+02    0.71836E-03   -0.17572E-03 75283   0.180E-01    0.183E+00
RMM:  49    -0.954640493970E+02   -0.39042E-03   -0.72350E-03112532   0.386E-01    0.195E+00
RMM:  50    -0.954578091809E+02    0.62402E-02   -0.57145E-03107046   0.322E-01    0.194E+00
RMM:  51    -0.954580095633E+02   -0.20038E-03   -0.19409E-03 84115   0.195E-01    0.183E+00
RMM:  52    -0.954259551266E+02    0.32054E-01   -0.78875E-02147134   0.137E+00    0.220E+00
RMM:  53    -0.954422353012E+02   -0.16280E-01   -0.98734E-03122589   0.560E-01    0.137E+00
RMM:  54    -0.954362405494E+02    0.59948E-02   -0.75102E-03120229   0.398E-01    0.164E+00
RMM:  55    -0.954363685331E+02   -0.12798E-03   -0.18846E-03 80196   0.192E-01
   8 F= -.10047677E+03 E0= -.10046331E+03  d E =0.152152E+01  mag=     0.0000
       N       E                     dE             d eps       ncg     rms          rms(c)
DAV:   1    -0.948513811835E+02    0.58486E+00   -0.38396E+01 86832   0.765E+01    0.502E+00
RMM:   2    -0.971560256176E+02   -0.23046E+01   -0.10964E+01121474   0.192E+01    0.202E+01
RMM:   3    -0.957674948817E+02    0.13885E+01   -0.29415E+00107013   0.115E+01    0.443E+00
RMM:   4    -0.960653130741E+02   -0.29782E+00   -0.92263E-01110016   0.539E+00    0.918E+00
RMM:   5    -0.958017533442E+02    0.26356E+00   -0.28424E-01 94152   0.339E+00    0.263E+00
RMM:   6    -0.958001480033E+02    0.16053E-02   -0.10088E-01105797   0.167E+00    0.187E+00
RMM:   7    -0.958201928363E+02   -0.20045E-01   -0.45513E-02123615   0.769E-01    0.183E+00
RMM:   8    -0.958593791321E+02   -0.39186E-01   -0.23300E-02111849   0.651E-01    0.232E+00
RMM:   9    -0.958219838836E+02    0.37395E-01   -0.18430E-02101670   0.768E-01    0.160E+00
RMM:  10    -0.958261076553E+02   -0.41238E-02   -0.21508E-02119973   0.622E-01    0.143E+00
RMM:  11    -0.958300239471E+02   -0.39163E-02   -0.42848E-03103166   0.254E-01    0.144E+00
RMM:  12    -0.958131604571E+02    0.16863E-01   -0.83583E-03116765   0.419E-01    0.142E+00
RMM:  13    -0.957211425744E+02    0.92018E-01   -0.15004E-01155880   0.171E+00    0.177E+00
RMM:  14    -0.957339803000E+02   -0.12838E-01   -0.15280E-02106785   0.364E-01    0.174E+00
RMM:  15    -0.957495682748E+02   -0.15588E-01   -0.33411E-02133384   0.906E-01    0.176E+00
RMM:  16    -0.957056609398E+02    0.43907E-01   -0.33513E-02139034   0.782E-01    0.239E+00
RMM:  17    -0.956567021045E+02    0.48959E-01   -0.90378E-02154077   0.131E+00    0.311E+00
RMM:  18    -0.956412125990E+02    0.15490E-01   -0.50342E-02141475   0.832E-01    0.370E+00
RMM:  19    -0.956668121743E+02   -0.25600E-01   -0.12819E-02123058   0.465E-01    0.387E+00
RMM:  20    -0.957073745256E+02   -0.40562E-01   -0.25326E-02133971   0.713E-01    0.397E+00
RMM:  21    -0.957066616124E+02    0.71291E-03   -0.22225E-03 85774   0.201E-01    0.396E+00
RMM:  22    -0.956936930219E+02    0.12969E-01   -0.90581E-03125089   0.437E-01    0.438E+00
RMM:  23    -0.955178879639E+02    0.17581E+00   -0.13520E-01156232   0.162E+00    0.502E+00
RMM:  24    -0.955191763545E+02   -0.12884E-02   -0.17788E-02120023   0.419E-01    0.516E+00
RMM:  25    -0.955258335631E+02   -0.66572E-02   -0.55373E-03104388   0.258E-01    0.520E+00
RMM:  26    -0.954698192881E+02    0.56014E-01   -0.17292E-02129652   0.547E-01    0.546E+00
RMM:  27    -0.954712737697E+02   -0.14545E-02   -0.28597E-03 90096   0.178E-01    0.545E+00
RMM:  28    -0.954805577526E+02   -0.92840E-02   -0.87417E-04 65499   0.144E-01    0.539E+00
RMM:  29    -0.955108518120E+02   -0.30294E-01   -0.17199E-02129143   0.583E-01    0.495E+00
RMM:  30    -0.955713715396E+02   -0.60520E-01   -0.71306E-02154111   0.120E+00    0.430E+00
RMM:  31    -0.956323632511E+02   -0.60992E-01   -0.78155E-02153504   0.112E+00    0.351E+00
RMM:  32    -0.956445940710E+02   -0.12231E-01   -0.10495E-02111268   0.305E-01    0.350E+00
RMM:  33    -0.956448995270E+02   -0.30546E-03   -0.41749E-03106485   0.255E-01    0.344E+00
RMM:  34    -0.956636522360E+02   -0.18753E-01   -0.49814E-02141055   0.919E-01    0.299E+00
RMM:  35    -0.956241060333E+02    0.39546E-01   -0.82933E-02155343   0.137E+00    0.369E+00
RMM:  36    -0.956421388372E+02   -0.18033E-01   -0.10594E-02117013   0.361E-01    0.360E+00
RMM:  37    -0.956508191407E+02   -0.86803E-02   -0.31670E-03 93202   0.217E-01    0.346E+00
RMM:  38    -0.956537873409E+02   -0.29682E-02   -0.98100E-04 65517   0.128E-01    0.343E+00
RMM:  39    -0.956530856543E+02    0.70169E-03   -0.25287E-04 50979   0.889E-02    0.343E+00
RMM:  40    -0.956524580108E+02    0.62764E-03   -0.16947E-04 49306   0.717E-02    0.344E+00
RMM:  41    -0.956532834341E+02   -0.82542E-03   -0.10041E-04 49076   0.562E-02    0.344E+00
RMM:  42    -0.956585220901E+02   -0.52387E-02   -0.40246E-04 52882   0.955E-02    0.342E+00
RMM:  43    -0.956897744782E+02   -0.31252E-01   -0.11700E-02119501   0.403E-01    0.324E+00
RMM:  44    -0.957440518599E+02   -0.54277E-01   -0.42488E-02138080   0.790E-01    0.333E+00
RMM:  45    -0.957441162654E+02   -0.64406E-04   -0.56029E-03102226   0.223E-01    0.329E+00
RMM:  46    -0.957441242216E+02   -0.79562E-05   -0.35706E-03 99005   0.283E-01    0.337E+00
RMM:  47    -0.958285003372E+02   -0.84376E-01   -0.67366E-02144517   0.111E+00    0.366E+00
RMM:  48    -0.958009654018E+02    0.27535E-01   -0.16660E-02130528   0.601E-01    0.283E+00
RMM:  49    -0.957989013757E+02    0.20640E-02   -0.38020E-03100644   0.250E-01    0.268E+00
RMM:  50    -0.957689603829E+02    0.29941E-01   -0.22337E-02130368   0.669E-01    0.258E+00
RMM:  51    -0.957503048145E+02    0.18656E-01   -0.17767E-02129837   0.513E-01    0.271E+00
RMM:  52    -0.957582550739E+02   -0.79503E-02   -0.34744E-03 97882   0.276E-01    0.268E+00
RMM:  53    -0.957570103077E+02    0.12448E-02   -0.17484E-03 77796   0.209E-01    0.272E+00
RMM:  54    -0.957568120916E+02    0.19822E-03   -0.20560E-04 49088   0.757E-02
   9 F= -.10079884E+03 E0= -.10078631E+03  d E =-.322064E+00  mag=     0.0000
       N       E                     dE             d eps       ncg     rms          rms(c)
DAV:   1    -0.956771774084E+02    0.79833E-01   -0.50846E+00 91392   0.275E+01    0.378E+00
RMM:   2    -0.977063333334E+02   -0.20292E+01   -0.30969E+00 95866   0.107E+01    0.215E+01
RMM:   3    -0.958133922131E+02    0.18929E+01   -0.12248E+00 86181   0.847E+00    0.250E+00
RMM:   4    -0.959469326672E+02   -0.13354E+00   -0.30389E-01135351   0.238E+00    0.386E+00
RMM:   5    -0.959497652337E+02   -0.28326E-02   -0.45907E-02126925   0.773E-01    0.392E+00
RMM:   6    -0.959394789776E+02    0.10286E-01   -0.76558E-03115495   0.315E-01    0.379E+00
RMM:   7    -0.959035220964E+02    0.35957E-01   -0.45411E-02136113   0.971E-01    0.322E+00
RMM:   8    -0.958177250089E+02    0.85797E-01   -0.88017E-02146928   0.148E+00    0.239E+00
RMM:   9    -0.957994369285E+02    0.18288E-01   -0.30504E-02132817   0.634E-01    0.250E+00
RMM:  10    -0.958089285970E+02   -0.94917E-02   -0.40932E-03 92362   0.277E-01    0.249E+00
RMM:  11    -0.957138024672E+02    0.95126E-01   -0.11254E-01155182   0.149E+00    0.303E+00
RMM:  12    -0.957265762293E+02   -0.12774E-01   -0.17599E-02124027   0.462E-01    0.280E+00
RMM:  13    -0.957278223800E+02   -0.12462E-02   -0.11371E-02126330   0.462E-01    0.264E+00
RMM:  14    -0.957639949207E+02   -0.36173E-01   -0.46569E-02145219   0.956E-01    0.204E+00
RMM:  15    -0.957949994484E+02   -0.31005E-01   -0.25199E-02138468   0.644E-01    0.185E+00
RMM:  16    -0.957972871128E+02   -0.22877E-02   -0.27274E-03 85584   0.222E-01    0.185E+00
RMM:  17    -0.957996397160E+02   -0.23526E-02   -0.83326E-04 62993   0.141E-01    0.184E+00
RMM:  18    -0.957921914115E+02    0.74483E-02   -0.39208E-03113053   0.293E-01    0.183E+00
RMM:  19    -0.957375580883E+02    0.54633E-01   -0.97754E-02153243   0.141E+00    0.215E+00
RMM:  20    -0.957364059804E+02    0.11521E-02   -0.28853E-02130942   0.566E-01    0.230E+00
RMM:  21    -0.957730759333E+02   -0.36670E-01   -0.65537E-02156405   0.130E+00    0.190E+00
RMM:  22    -0.957677460788E+02    0.53299E-02   -0.77984E-03117876   0.364E-01    0.195E+00
RMM:  23    -0.956649929087E+02    0.10275E+00   -0.19023E-01156558   0.195E+00    0.183E+00
RMM:  24    -0.956818922359E+02   -0.16899E-01   -0.30826E-02129916   0.620E-01    0.180E+00
RMM:  25    -0.956914944755E+02   -0.96022E-02   -0.82118E-03124969   0.399E-01    0.145E+00
RMM:  26    -0.957021784382E+02   -0.10684E-01   -0.28036E-02138834   0.727E-01    0.970E-01
RMM:  27    -0.957318968290E+02   -0.29718E-01   -0.11384E-01155942   0.153E+00    0.199E+00
RMM:  28    -0.957488610119E+02   -0.16964E-01   -0.19706E-02119769   0.514E-01    0.190E+00
RMM:  29    -0.957612451142E+02   -0.12384E-01   -0.22084E-02134678   0.613E-01    0.171E+00
RMM:  30    -0.957615115975E+02   -0.26648E-03   -0.32289E-03 92252   0.203E-01    0.175E+00
RMM:  31    -0.957520916870E+02    0.94199E-02   -0.33738E-03 97259   0.299E-01    0.164E+00
RMM:  32    -0.957336241926E+02    0.18467E-01   -0.13067E-02127146   0.513E-01    0.153E+00
RMM:  33    -0.957087904738E+02    0.24834E-01   -0.57150E-02155236   0.105E+00    0.933E-01
RMM:  34    -0.957194149197E+02   -0.10624E-01   -0.98638E-03113776   0.374E-01    0.759E-01
RMM:  35    -0.957198321870E+02   -0.41727E-03   -0.18989E-03 80651   0.240E-01    0.660E-01
RMM:  36    -0.957190385310E+02    0.79366E-03   -0.72155E-03119681   0.415E-01    0.641E-01
RMM:  37    -0.957200076384E+02   -0.96911E-03   -0.19755E-03 81969   0.246E-01    0.317E-01
RMM:  38    -0.957205129855E+02   -0.50535E-03   -0.11091E-03 69026   0.165E-01    0.266E-01
RMM:  39    -0.957207442656E+02   -0.23128E-03   -0.10104E-03 66794   0.140E-01    0.375E-01
RMM:  40    -0.957202057126E+02    0.53855E-03   -0.14772E-03 74663   0.217E-01    0.117E-01
RMM:  41    -0.957205537428E+02   -0.34803E-03   -0.35635E-04 51506   0.969E-02    0.740E-02
RMM:  42    -0.957205420876E+02    0.11655E-04   -0.16810E-04 48488   0.937E-02
  10 F= -.10076342E+03 E0= -.10074884E+03  d E =-.286644E+00  mag=    -0.0000
       N       E                     dE             d eps       ncg     rms          rms(c)
DAV:   1    -0.957161835510E+02    0.43702E-02   -0.41167E-01 98112   0.808E+00    0.616E-01
RMM:   2    -0.957916486876E+02   -0.75465E-01   -0.14892E-01109672   0.242E+00    0.512E+00
RMM:   3    -0.957211198914E+02    0.70529E-01   -0.49737E-02 97035   0.164E+00    0.234E-01
RMM:   4    -0.957257642943E+02   -0.46444E-02   -0.12903E-02120924   0.580E-01    0.509E-01
RMM:   5    -0.957255663816E+02    0.19791E-03   -0.23536E-03 81819   0.303E-01    0.395E-01
RMM:   6    -0.957250403725E+02    0.52601E-03   -0.10015E-03 64942   0.203E-01    0.153E-01
RMM:   7    -0.957252210245E+02   -0.18065E-03   -0.48694E-04 55424   0.987E-02
  11 F= -.10076784E+03 E0= -.10075332E+03  d E =-.291067E+00  mag=    -0.0000
       N       E                     dE             d eps       ncg     rms          rms(c)
DAV:   1    -0.975444206989E+02   -0.18194E+01   -0.46654E+01 99072   0.348E+01    0.121E+01
RMM:   2    -0.107547276329E+03   -0.10003E+02   -0.13462E+01 86986   0.224E+01    0.499E+01
RMM:   3    -0.967165121006E+02    0.10831E+02   -0.85459E+00 85281   0.220E+01    0.150E+01
RMM:   4    -0.968961866268E+02   -0.17967E+00   -0.28561E+00 88858   0.117E+01    0.167E+01
RMM:   5    -0.962631232882E+02    0.63306E+00   -0.12337E+00 91784   0.723E+00    0.112E+01
RMM:   6    -0.957361826945E+02    0.52694E+00   -0.46770E-01 89822   0.468E+00    0.438E+00
RMM:   7    -0.957520927917E+02   -0.15910E-01   -0.21384E-01116345   0.166E+00    0.227E+00
RMM:   8    -0.957864768287E+02   -0.34384E-01   -0.62131E-02111543   0.115E+00    0.131E+00
RMM:   9    -0.958170492620E+02   -0.30572E-01   -0.28756E-02109983   0.604E-01    0.132E+00
RMM:  10    -0.958226821447E+02   -0.56329E-02   -0.85174E-03104225   0.411E-01    0.149E+00
RMM:  11    -0.958126275352E+02    0.10055E-01   -0.11527E-02104734   0.562E-01    0.112E+00
RMM:  12    -0.958243063900E+02   -0.11679E-01   -0.22767E-02124620   0.669E-01    0.104E+00
RMM:  13    -0.958241062146E+02    0.20018E-03   -0.60811E-03101354   0.404E-01    0.287E-01
RMM:  14    -0.958249389083E+02   -0.83269E-03   -0.18168E-03 78513   0.223E-01    0.238E-01
RMM:  15    -0.958260235426E+02   -0.10846E-02   -0.87434E-04 62497   0.152E-01    0.233E-01
RMM:  16    -0.958250625829E+02    0.96096E-03   -0.44278E-04 53665   0.138E-01    0.196E-01
RMM:  17    -0.958230763861E+02    0.19862E-02   -0.22000E-03 83464   0.225E-01    0.103E-01
RMM:  18    -0.958238212667E+02   -0.74488E-03   -0.90589E-04 64186   0.157E-01    0.103E-01
RMM:  19    -0.958241636250E+02   -0.34236E-03   -0.25737E-04 49277   0.119E-01    0.640E-02
RMM:  20    -0.958241988402E+02   -0.35215E-04   -0.11407E-04 48865   0.770E-02
  12 F= -.10088223E+03 E0= -.10086820E+03  d E =-.114391E+00  mag=     0.0000
       N       E                     dE             d eps       ncg     rms          rms(c)
DAV:   1    -0.960936012602E+02   -0.26944E+00   -0.70307E+00 99528   0.135E+01    0.493E+00
RMM:   2    -0.982585601009E+02   -0.21650E+01   -0.26962E+00 86638   0.103E+01    0.239E+01
RMM:   3    -0.958659154216E+02    0.23926E+01   -0.14222E+00 85337   0.890E+00    0.415E+00
RMM:   4    -0.959650884733E+02   -0.99173E-01   -0.39405E-01 86313   0.433E+00    0.638E+00
RMM:   5    -0.958852613394E+02    0.79827E-01   -0.16780E-01 92788   0.264E+00    0.376E+00
RMM:   6    -0.958277132070E+02    0.57548E-01   -0.69954E-02 90058   0.179E+00    0.634E-01
RMM:   7    -0.958289113918E+02   -0.11982E-02   -0.29392E-02114549   0.603E-01    0.319E-01
RMM:   8    -0.958298359839E+02   -0.92459E-03   -0.50506E-03 94126   0.320E-01    0.284E-01
RMM:   9    -0.958304604457E+02   -0.62446E-03   -0.16870E-03 75698   0.150E-01    0.330E-01
RMM:  10    -0.958289542676E+02    0.15062E-02   -0.13357E-03 75844   0.199E-01    0.156E-01
RMM:  11    -0.958292350408E+02   -0.28077E-03   -0.60580E-04 57493   0.118E-01    0.136E-01
RMM:  12    -0.958295071193E+02   -0.27208E-03   -0.22882E-04 49946   0.939E-02    0.127E-01
RMM:  13    -0.958293586439E+02    0.14848E-03   -0.11361E-04 48698   0.788E-02
  13 F= -.10089398E+03 E0= -.10087982E+03  d E =-.126140E+00  mag=     0.0000
       N       E                     dE             d eps       ncg     rms          rms(c)
DAV:   1    -0.958622960099E+02   -0.32789E-01   -0.14049E+01 92832   0.524E+01    0.666E+00
RMM:   2    -0.100026338778E+03   -0.41640E+01   -0.89391E+00109159   0.190E+01    0.311E+01
RMM:   3    -0.959610019264E+02    0.40653E+01   -0.36411E+00 89573   0.144E+01    0.684E+00
RMM:   4    -0.963929869906E+02   -0.43199E+00   -0.11173E+00 97135   0.676E+00    0.121E+01
RMM:   5    -0.959030286651E+02    0.48996E+00   -0.48813E-01 90396   0.479E+00    0.422E+00
RMM:   6    -0.958368344244E+02    0.66194E-01   -0.14380E-01 89993   0.251E+00    0.160E+00
RMM:   7    -0.958630781730E+02   -0.26244E-01   -0.89819E-02123981   0.105E+00    0.145E+00
RMM:   8    -0.958692238517E+02   -0.61457E-02   -0.18952E-02114772   0.519E-01    0.131E+00
RMM:   9    -0.958536847145E+02    0.15539E-01   -0.11622E-02 96040   0.585E-01    0.989E-01
RMM:  10    -0.958445570130E+02    0.91277E-02   -0.17359E-02114820   0.566E-01    0.391E-01
RMM:  11    -0.958498644255E+02   -0.53074E-02   -0.53652E-03 96332   0.370E-01    0.270E-01
RMM:  12    -0.958523179039E+02   -0.24535E-02   -0.26720E-03 85301   0.238E-01    0.303E-01
RMM:  13    -0.958508542285E+02    0.14637E-02   -0.75467E-04 63578   0.191E-01    0.273E-01
RMM:  14    -0.958476617263E+02    0.31925E-02   -0.32644E-03 92366   0.285E-01    0.128E-01
RMM:  15    -0.958485320725E+02   -0.87035E-03   -0.13253E-03 73603   0.182E-01    0.667E-02
RMM:  16    -0.958490896937E+02   -0.55762E-03   -0.45770E-04 53036   0.143E-01    0.531E-02
RMM:  17    -0.958492145325E+02   -0.12484E-03   -0.15525E-04 48881   0.101E-01
  14 F= -.10092157E+03 E0= -.10090829E+03  d E =-.275934E-01  mag=     0.0000
       N       E                     dE             d eps       ncg     rms          rms(c)
DAV:   1    -0.958535244210E+02   -0.44347E-02   -0.89879E-01 89520   0.134E+01    0.169E+00
RMM:   2    -0.961359261310E+02   -0.28240E+00   -0.58051E-01104267   0.492E+00    0.967E+00
RMM:   3    -0.958502205432E+02    0.28571E+00   -0.22015E-01 89820   0.351E+00    0.140E+00
RMM:   4    -0.958801251393E+02   -0.29905E-01   -0.65879E-02 94887   0.167E+00    0.271E+00
RMM:   5    -0.958597270071E+02    0.20398E-01   -0.26438E-02 94376   0.106E+00    0.999E-01
RMM:   6    -0.958547545060E+02    0.49725E-02   -0.94776E-03 88105   0.662E-01    0.188E-01
RMM:   7    -0.958552918852E+02   -0.53738E-03   -0.47969E-03102169   0.235E-01    0.201E-01
RMM:   8    -0.958557623320E+02   -0.47045E-03   -0.93865E-04 64222   0.144E-01    0.219E-01
RMM:   9    -0.958545176964E+02    0.12446E-02   -0.75586E-04 60635   0.158E-01    0.153E-01
RMM:  10    -0.958544907387E+02    0.26958E-04   -0.40075E-04 53074   0.964E-02
  15 F= -.10092492E+03 E0= -.10091140E+03  d E =-.309377E-01  mag=    -0.0000
       N       E                     dE             d eps       ncg     rms          rms(c)
DAV:   1    -0.958669041698E+02   -0.12386E-01   -0.85460E-01106800   0.104E+01    0.177E+00
RMM:   2    -0.964752774418E+02   -0.60837E+00   -0.68568E-01 90108   0.527E+00    0.137E+01
RMM:   3    -0.958397788326E+02    0.63550E+00   -0.29609E-01 86041   0.422E+00    0.874E-01
RMM:   4    -0.959071906600E+02   -0.67412E-01   -0.65473E-02103606   0.150E+00    0.390E+00
RMM:   5    -0.958583933530E+02    0.48797E-01   -0.29652E-02 88231   0.123E+00    0.477E-01
RMM:   6    -0.958608582336E+02   -0.24649E-02   -0.82825E-03104556   0.452E-01    0.436E-01
RMM:   7    -0.958610649011E+02   -0.20667E-03   -0.19897E-03 83806   0.190E-01    0.449E-01
RMM:   8    -0.958609187464E+02    0.14615E-03   -0.10815E-03 71532   0.187E-01
  16 F= -.10093170E+03 E0= -.10091870E+03  d E =-.678061E-02  mag=    -0.0000
       N       E                     dE             d eps       ncg     rms          rms(c)
DAV:   1    -0.959165543792E+02   -0.55489E-01   -0.76190E+00106080   0.310E+01    0.515E+00
RMM:   2    -0.100213117053E+03   -0.42966E+01   -0.57392E+00 89529   0.156E+01    0.311E+01
RMM:   3    -0.958289430346E+02    0.43842E+01   -0.24406E+00 86266   0.122E+01    0.348E+00
RMM:   4    -0.960745654264E+02   -0.24562E+00   -0.46269E-01105429   0.406E+00    0.796E+00
RMM:   5    -0.958516994463E+02    0.22287E+00   -0.17498E-01 90023   0.295E+00    0.114E+00
RMM:   6    -0.958700083145E+02   -0.18309E-01   -0.66014E-02119937   0.118E+00    0.128E+00
RMM:   7    -0.958739513729E+02   -0.39431E-02   -0.14053E-02121865   0.447E-01    0.135E+00
RMM:   8    -0.958429629347E+02    0.30988E-01   -0.32677E-02123658   0.907E-01    0.821E-01
RMM:   9    -0.958465461016E+02   -0.35832E-02   -0.78973E-03 99839   0.433E-01    0.810E-01
RMM:  10    -0.958505743502E+02   -0.40282E-02   -0.27210E-03 84607   0.277E-01    0.723E-01
RMM:  11    -0.958506871169E+02   -0.11277E-03   -0.70709E-04 59569   0.129E-01
  17 F= -.10092248E+03 E0= -.10090924E+03  d E =0.244357E-02  mag=     0.0000
       N       E                     dE             d eps       ncg     rms          rms(c)
DAV:   1    -0.958983849444E+02   -0.47811E-01   -0.37300E+00106128   0.218E+01    0.378E+00
RMM:   2    -0.982736693672E+02   -0.23753E+01   -0.29757E+00 88636   0.110E+01    0.237E+01
RMM:   3    -0.958264405600E+02    0.24472E+01   -0.13097E+00 86018   0.891E+00    0.128E+00
RMM:   4    -0.959131949507E+02   -0.86754E-01   -0.18596E-01125832   0.223E+00    0.353E+00
RMM:   5    -0.958823132953E+02    0.30882E-01   -0.35706E-02100022   0.127E+00    0.128E+00
RMM:   6    -0.958942468831E+02   -0.11934E-01   -0.16971E-02126170   0.530E-01    0.152E+00
RMM:   7    -0.958568884172E+02    0.37358E-01   -0.35452E-02121802   0.969E-01    0.766E-01
RMM:   8    -0.958582010789E+02   -0.13127E-02   -0.16038E-02105925   0.677E-01    0.678E-01
RMM:   9    -0.958641744412E+02   -0.59734E-02   -0.31782E-03 84207   0.335E-01    0.663E-01
RMM:  10    -0.958666454530E+02   -0.24710E-02   -0.20911E-03 81684   0.223E-01    0.607E-01
RMM:  11    -0.958606903193E+02    0.59551E-02   -0.18783E-03 80980   0.257E-01    0.493E-01
RMM:  12    -0.958505256273E+02    0.10165E-01   -0.14318E-02127646   0.572E-01    0.431E-01
RMM:  13    -0.958562792570E+02   -0.57536E-02   -0.27333E-03 87942   0.304E-01    0.219E-01
RMM:  14    -0.958572585907E+02   -0.97933E-03   -0.10210E-03 67569   0.218E-01    0.154E-01
RMM:  15    -0.958572409617E+02    0.17629E-04   -0.34507E-04 49897   0.131E-01
  18 F= -.10092834E+03 E0= -.10091488E+03  d E =-.342479E-02  mag=     0.0000
