unknown system                          
           1
     4.928782   -5.004600    1.168203
     4.687465    4.878857    1.055570
     1.037519   -0.084014    7.250017
   Fe   Se
     8     8
unknown system                          
           1
     4.928782   -5.004600    1.168203
     4.687465    4.878857    1.055570
     1.037519   -0.084014    7.250017
   Fe   Se
     8     8
Direct configuration=     1
   0.95834826  0.00013384  0.99972385
   0.04165174  0.49986616  0.00027615
   0.45834826  0.00013384  0.99972385
   0.54165174  0.49986616  0.00027615
   0.25000000  0.25000000  0.00000000
   0.25000000  0.75000000  0.00000000
   0.75000000  0.25000000  0.00000000
   0.75000000  0.75000000  0.00000000
   0.25611875  0.06162384  0.76409123
   0.37459953  0.56150401  0.76444887
   0.75611875  0.06162384  0.76409123
   0.87459953  0.56150401  0.76444887
   0.24388125  0.43837616  0.23590877
   0.12540047  0.93849599  0.23555113
   0.74388125  0.43837616  0.23590877
   0.62540047  0.93849599  0.23555113
