  16  16   1   0
  0.1862500E+02  0.7117569E-09  0.6811864E-09  0.6618691E-09  0.5000000E-15
  1.000000000000000E-004
  CAR 
 unknown system                          
      9.46725815    -52.31904181  301      3.91465100      1.00000000
    -52.319  0.0000E+00  0.0000E+00  0.0000E+00  0.0000E+00
    -52.113  0.0000E+00  0.0000E+00  0.0000E+00  0.0000E+00
    -51.907  0.0000E+00  0.0000E+00  0.0000E+00  0.0000E+00
    -51.701  0.0000E+00  0.0000E+00  0.0000E+00  0.0000E+00
    -51.495  0.0000E+00  0.0000E+00  0.0000E+00  0.0000E+00
    -51.289  0.0000E+00  0.0000E+00  0.0000E+00  0.0000E+00
    -51.083  0.0000E+00  0.0000E+00  0.0000E+00  0.0000E+00
    -50.877  0.0000E+00  0.0000E+00  0.0000E+00  0.0000E+00
    -50.671  0.0000E+00  0.0000E+00  0.0000E+00  0.0000E+00
    -50.465  0.0000E+00  0.0000E+00  0.0000E+00  0.0000E+00
    -50.259  0.0000E+00  0.0000E+00  0.0000E+00  0.0000E+00
    -50.054  0.0000E+00  0.0000E+00  0.0000E+00  0.0000E+00
    -49.848  0.0000E+00  0.0000E+00  0.0000E+00  0.0000E+00
    -49.642  0.1816E-05  0.1816E-05  0.3740E-06  0.3740E-06
    -49.436  0.1660E+00  0.1660E+00  0.3419E-01  0.3419E-01
    -49.230  0.3337E-01  0.3337E-01  0.4106E-01  0.4106E-01
    -49.024  0.3449E+00  0.3449E+00  0.1121E+00  0.1121E+00
    -48.818  0.5656E+00  0.5656E+00  0.2286E+00  0.2286E+00
    -48.612  0.6718E-01  0.6718E-01  0.2424E+00  0.2424E+00
    -48.406  0.3035E-07  0.3035E-07  0.2424E+00  0.2424E+00
    -48.200  0.0000E+00  0.0000E+00  0.2424E+00  0.2424E+00
    -47.994  0.0000E+00  0.0000E+00  0.2424E+00  0.2424E+00
    -47.788  0.0000E+00  0.0000E+00  0.2424E+00  0.2424E+00
    -47.582  0.0000E+00  0.0000E+00  0.2424E+00  0.2424E+00
    -47.376  0.0000E+00  0.0000E+00  0.2424E+00  0.2424E+00
    -47.170  0.0000E+00  0.0000E+00  0.2424E+00  0.2424E+00
    -46.964  0.0000E+00  0.0000E+00  0.2424E+00  0.2424E+00
    -46.758  0.0000E+00  0.0000E+00  0.2424E+00  0.2424E+00
    -46.552  0.0000E+00  0.0000E+00  0.2424E+00  0.2424E+00
    -46.346  0.0000E+00  0.0000E+00  0.2424E+00  0.2424E+00
    -46.140  0.0000E+00  0.0000E+00  0.2424E+00  0.2424E+00
    -45.934  0.0000E+00  0.0000E+00  0.2424E+00  0.2424E+00
    -45.729  0.0000E+00  0.0000E+00  0.2424E+00  0.2424E+00
    -45.523  0.0000E+00  0.0000E+00  0.2424E+00  0.2424E+00
    -45.317  0.0000E+00  0.0000E+00  0.2424E+00  0.2424E+00
    -45.111  0.0000E+00  0.0000E+00  0.2424E+00  0.2424E+00
    -44.905  0.0000E+00  0.0000E+00  0.2424E+00  0.2424E+00
    -44.699  0.0000E+00  0.0000E+00  0.2424E+00  0.2424E+00
    -44.493  0.0000E+00  0.0000E+00  0.2424E+00  0.2424E+00
    -44.287  0.0000E+00  0.0000E+00  0.2424E+00  0.2424E+00
    -44.081  0.0000E+00  0.0000E+00  0.2424E+00  0.2424E+00
    -43.875  0.0000E+00  0.0000E+00  0.2424E+00  0.2424E+00
    -43.669  0.0000E+00  0.0000E+00  0.2424E+00  0.2424E+00
    -43.463  0.0000E+00  0.0000E+00  0.2424E+00  0.2424E+00
    -43.257  0.0000E+00  0.0000E+00  0.2424E+00  0.2424E+00
    -43.051  0.0000E+00  0.0000E+00  0.2424E+00  0.2424E+00
    -42.845  0.0000E+00  0.0000E+00  0.2424E+00  0.2424E+00
    -42.639  0.0000E+00  0.0000E+00  0.2424E+00  0.2424E+00
    -42.433  0.0000E+00  0.0000E+00  0.2424E+00  0.2424E+00
    -42.227  0.0000E+00  0.0000E+00  0.2424E+00  0.2424E+00
    -42.021  0.0000E+00  0.0000E+00  0.2424E+00  0.2424E+00
    -41.815  0.0000E+00  0.0000E+00  0.2424E+00  0.2424E+00
    -41.609  0.0000E+00  0.0000E+00  0.2424E+00  0.2424E+00
    -41.403  0.0000E+00  0.0000E+00  0.2424E+00  0.2424E+00
    -41.198  0.0000E+00  0.0000E+00  0.2424E+00  0.2424E+00
    -40.992  0.0000E+00  0.0000E+00  0.2424E+00  0.2424E+00
    -40.786  0.0000E+00  0.0000E+00  0.2424E+00  0.2424E+00
    -40.580  0.0000E+00  0.0000E+00  0.2424E+00  0.2424E+00
    -40.374  0.0000E+00  0.0000E+00  0.2424E+00  0.2424E+00
    -40.168  0.0000E+00  0.0000E+00  0.2424E+00  0.2424E+00
    -39.962  0.0000E+00  0.0000E+00  0.2424E+00  0.2424E+00
    -39.756  0.0000E+00  0.0000E+00  0.2424E+00  0.2424E+00
    -39.550  0.0000E+00  0.0000E+00  0.2424E+00  0.2424E+00
    -39.344  0.0000E+00  0.0000E+00  0.2424E+00  0.2424E+00
    -39.138  0.0000E+00  0.0000E+00  0.2424E+00  0.2424E+00
    -38.932  0.0000E+00  0.0000E+00  0.2424E+00  0.2424E+00
    -38.726  0.0000E+00  0.0000E+00  0.2424E+00  0.2424E+00
    -38.520  0.0000E+00  0.0000E+00  0.2424E+00  0.2424E+00
    -38.314  0.0000E+00  0.0000E+00  0.2424E+00  0.2424E+00
    -38.108  0.0000E+00  0.0000E+00  0.2424E+00  0.2424E+00
    -37.902  0.0000E+00  0.0000E+00  0.2424E+00  0.2424E+00
    -37.696  0.0000E+00  0.0000E+00  0.2424E+00  0.2424E+00
    -37.490  0.0000E+00  0.0000E+00  0.2424E+00  0.2424E+00
    -37.284  0.0000E+00  0.0000E+00  0.2424E+00  0.2424E+00
    -37.078  0.0000E+00  0.0000E+00  0.2424E+00  0.2424E+00
    -36.872  0.0000E+00  0.0000E+00  0.2424E+00  0.2424E+00
    -36.667  0.0000E+00  0.0000E+00  0.2424E+00  0.2424E+00
    -36.461  0.0000E+00  0.0000E+00  0.2424E+00  0.2424E+00
    -36.255  0.0000E+00  0.0000E+00  0.2424E+00  0.2424E+00
    -36.049  0.0000E+00  0.0000E+00  0.2424E+00  0.2424E+00
    -35.843  0.0000E+00  0.0000E+00  0.2424E+00  0.2424E+00
    -35.637  0.0000E+00  0.0000E+00  0.2424E+00  0.2424E+00
    -35.431  0.0000E+00  0.0000E+00  0.2424E+00  0.2424E+00
    -35.225  0.0000E+00  0.0000E+00  0.2424E+00  0.2424E+00
    -35.019  0.0000E+00  0.0000E+00  0.2424E+00  0.2424E+00
    -34.813  0.0000E+00  0.0000E+00  0.2424E+00  0.2424E+00
    -34.607  0.0000E+00  0.0000E+00  0.2424E+00  0.2424E+00
    -34.401  0.0000E+00  0.0000E+00  0.2424E+00  0.2424E+00
    -34.195  0.0000E+00  0.0000E+00  0.2424E+00  0.2424E+00
    -33.989  0.0000E+00  0.0000E+00  0.2424E+00  0.2424E+00
    -33.783  0.0000E+00  0.0000E+00  0.2424E+00  0.2424E+00
    -33.577  0.0000E+00  0.0000E+00  0.2424E+00  0.2424E+00
    -33.371  0.0000E+00  0.0000E+00  0.2424E+00  0.2424E+00
    -33.165  0.0000E+00  0.0000E+00  0.2424E+00  0.2424E+00
    -32.959  0.0000E+00  0.0000E+00  0.2424E+00  0.2424E+00
    -32.753  0.0000E+00  0.0000E+00  0.2424E+00  0.2424E+00
    -32.547  0.0000E+00  0.0000E+00  0.2424E+00  0.2424E+00
    -32.341  0.0000E+00  0.0000E+00  0.2424E+00  0.2424E+00
    -32.136  0.0000E+00  0.0000E+00  0.2424E+00  0.2424E+00
    -31.930  0.0000E+00  0.0000E+00  0.2424E+00  0.2424E+00
    -31.724  0.0000E+00  0.0000E+00  0.2424E+00  0.2424E+00
    -31.518  0.0000E+00  0.0000E+00  0.2424E+00  0.2424E+00
    -31.312  0.0000E+00  0.0000E+00  0.2424E+00  0.2424E+00
    -31.106  0.0000E+00  0.0000E+00  0.2424E+00  0.2424E+00
    -30.900  0.0000E+00  0.0000E+00  0.2424E+00  0.2424E+00
    -30.694  0.0000E+00  0.0000E+00  0.2424E+00  0.2424E+00
    -30.488  0.0000E+00  0.0000E+00  0.2424E+00  0.2424E+00
    -30.282  0.0000E+00  0.0000E+00  0.2424E+00  0.2424E+00
    -30.076  0.0000E+00  0.0000E+00  0.2424E+00  0.2424E+00
    -29.870  0.0000E+00  0.0000E+00  0.2424E+00  0.2424E+00
    -29.664  0.0000E+00  0.0000E+00  0.2424E+00  0.2424E+00
    -29.458  0.0000E+00  0.0000E+00  0.2424E+00  0.2424E+00
    -29.252  0.0000E+00  0.0000E+00  0.2424E+00  0.2424E+00
    -29.046  0.0000E+00  0.0000E+00  0.2424E+00  0.2424E+00
    -28.840  0.0000E+00  0.0000E+00  0.2424E+00  0.2424E+00
    -28.634  0.0000E+00  0.0000E+00  0.2424E+00  0.2424E+00
    -28.428  0.0000E+00  0.0000E+00  0.2424E+00  0.2424E+00
    -28.222  0.0000E+00  0.0000E+00  0.2424E+00  0.2424E+00
    -28.016  0.0000E+00  0.0000E+00  0.2424E+00  0.2424E+00
    -27.810  0.0000E+00  0.0000E+00  0.2424E+00  0.2424E+00
    -27.605  0.0000E+00  0.0000E+00  0.2424E+00  0.2424E+00
    -27.399  0.0000E+00  0.0000E+00  0.2424E+00  0.2424E+00
    -27.193  0.0000E+00  0.0000E+00  0.2424E+00  0.2424E+00
    -26.987  0.0000E+00  0.0000E+00  0.2424E+00  0.2424E+00
    -26.781  0.0000E+00  0.0000E+00  0.2424E+00  0.2424E+00
    -26.575  0.0000E+00  0.0000E+00  0.2424E+00  0.2424E+00
    -26.369  0.0000E+00  0.0000E+00  0.2424E+00  0.2424E+00
    -26.163  0.0000E+00  0.0000E+00  0.2424E+00  0.2424E+00
    -25.957  0.0000E+00  0.0000E+00  0.2424E+00  0.2424E+00
    -25.751  0.0000E+00  0.0000E+00  0.2424E+00  0.2424E+00
    -25.545  0.0000E+00  0.0000E+00  0.2424E+00  0.2424E+00
    -25.339  0.0000E+00  0.0000E+00  0.2424E+00  0.2424E+00
    -25.133  0.0000E+00  0.0000E+00  0.2424E+00  0.2424E+00
    -24.927  0.0000E+00  0.0000E+00  0.2424E+00  0.2424E+00
    -24.721  0.0000E+00  0.0000E+00  0.2424E+00  0.2424E+00
    -24.515  0.0000E+00  0.0000E+00  0.2424E+00  0.2424E+00
    -24.309  0.0000E+00  0.0000E+00  0.2424E+00  0.2424E+00
    -24.103  0.0000E+00  0.0000E+00  0.2424E+00  0.2424E+00
    -23.897  0.0000E+00  0.0000E+00  0.2424E+00  0.2424E+00
    -23.691  0.0000E+00  0.0000E+00  0.2424E+00  0.2424E+00
    -23.485  0.0000E+00  0.0000E+00  0.2424E+00  0.2424E+00
    -23.279  0.0000E+00  0.0000E+00  0.2424E+00  0.2424E+00
    -23.074  0.0000E+00  0.0000E+00  0.2424E+00  0.2424E+00
    -22.868  0.0000E+00  0.0000E+00  0.2424E+00  0.2424E+00
    -22.662  0.0000E+00  0.0000E+00  0.2424E+00  0.2424E+00
    -22.456  0.0000E+00  0.0000E+00  0.2424E+00  0.2424E+00
    -22.250  0.0000E+00  0.0000E+00  0.2424E+00  0.2424E+00
    -22.044  0.0000E+00  0.0000E+00  0.2424E+00  0.2424E+00
    -21.838  0.0000E+00  0.0000E+00  0.2424E+00  0.2424E+00
    -21.632  0.0000E+00  0.0000E+00  0.2424E+00  0.2424E+00
    -21.426  0.0000E+00  0.0000E+00  0.2424E+00  0.2424E+00
    -21.220  0.0000E+00  0.0000E+00  0.2424E+00  0.2424E+00
    -21.014  0.0000E+00  0.0000E+00  0.2424E+00  0.2424E+00
    -20.808  0.0000E+00  0.0000E+00  0.2424E+00  0.2424E+00
    -20.602  0.0000E+00  0.0000E+00  0.2424E+00  0.2424E+00
    -20.396  0.0000E+00  0.0000E+00  0.2424E+00  0.2424E+00
    -20.190  0.0000E+00  0.0000E+00  0.2424E+00  0.2424E+00
    -19.984  0.0000E+00  0.0000E+00  0.2424E+00  0.2424E+00
    -19.778  0.0000E+00  0.0000E+00  0.2424E+00  0.2424E+00
    -19.572  0.0000E+00  0.0000E+00  0.2424E+00  0.2424E+00
    -19.366  0.0000E+00  0.0000E+00  0.2424E+00  0.2424E+00
    -19.160  0.0000E+00  0.0000E+00  0.2424E+00  0.2424E+00
    -18.954  0.0000E+00  0.0000E+00  0.2424E+00  0.2424E+00
    -18.748  0.0000E+00  0.0000E+00  0.2424E+00  0.2424E+00
    -18.543  0.0000E+00  0.0000E+00  0.2424E+00  0.2424E+00
    -18.337  0.0000E+00  0.0000E+00  0.2424E+00  0.2424E+00
    -18.131  0.0000E+00  0.0000E+00  0.2424E+00  0.2424E+00
    -17.925  0.0000E+00  0.0000E+00  0.2424E+00  0.2424E+00
    -17.719  0.0000E+00  0.0000E+00  0.2424E+00  0.2424E+00
    -17.513  0.0000E+00  0.0000E+00  0.2424E+00  0.2424E+00
    -17.307  0.0000E+00  0.0000E+00  0.2424E+00  0.2424E+00
    -17.101  0.0000E+00  0.0000E+00  0.2424E+00  0.2424E+00
    -16.895  0.0000E+00  0.0000E+00  0.2424E+00  0.2424E+00
    -16.689  0.0000E+00  0.0000E+00  0.2424E+00  0.2424E+00
    -16.483  0.0000E+00  0.0000E+00  0.2424E+00  0.2424E+00
    -16.277  0.0000E+00  0.0000E+00  0.2424E+00  0.2424E+00
    -16.071  0.0000E+00  0.0000E+00  0.2424E+00  0.2424E+00
    -15.865  0.0000E+00  0.0000E+00  0.2424E+00  0.2424E+00
    -15.659  0.0000E+00  0.0000E+00  0.2424E+00  0.2424E+00
    -15.453  0.0000E+00  0.0000E+00  0.2424E+00  0.2424E+00
    -15.247  0.0000E+00  0.0000E+00  0.2424E+00  0.2424E+00
    -15.041  0.0000E+00  0.0000E+00  0.2424E+00  0.2424E+00
    -14.835  0.0000E+00  0.0000E+00  0.2424E+00  0.2424E+00
    -14.629  0.0000E+00  0.0000E+00  0.2424E+00  0.2424E+00
    -14.423  0.0000E+00  0.0000E+00  0.2424E+00  0.2424E+00
    -14.217  0.0000E+00  0.0000E+00  0.2424E+00  0.2424E+00
    -14.012  0.0000E+00  0.0000E+00  0.2424E+00  0.2424E+00
    -13.806  0.0000E+00  0.0000E+00  0.2424E+00  0.2424E+00
    -13.600  0.0000E+00  0.0000E+00  0.2424E+00  0.2424E+00
    -13.394  0.0000E+00  0.0000E+00  0.2424E+00  0.2424E+00
    -13.188  0.0000E+00  0.0000E+00  0.2424E+00  0.2424E+00
    -12.982  0.0000E+00  0.0000E+00  0.2424E+00  0.2424E+00
    -12.776  0.0000E+00  0.0000E+00  0.2424E+00  0.2424E+00
    -12.570  0.0000E+00  0.0000E+00  0.2424E+00  0.2424E+00
    -12.364  0.0000E+00  0.0000E+00  0.2424E+00  0.2424E+00
    -12.158  0.0000E+00  0.0000E+00  0.2424E+00  0.2424E+00
    -11.952  0.0000E+00  0.0000E+00  0.2424E+00  0.2424E+00
    -11.746  0.0000E+00  0.0000E+00  0.2424E+00  0.2424E+00
    -11.540  0.0000E+00  0.0000E+00  0.2424E+00  0.2424E+00
    -11.334  0.0000E+00  0.0000E+00  0.2424E+00  0.2424E+00
    -11.128  0.2046E-13  0.2046E-13  0.2424E+00  0.2424E+00
    -10.922  0.1191E-03  0.1191E-03  0.2424E+00  0.2424E+00
    -10.716  0.7871E-02  0.7871E-02  0.2441E+00  0.2441E+00
    -10.510  0.1905E-01  0.1905E-01  0.2480E+00  0.2480E+00
    -10.304  0.2356E-01  0.2356E-01  0.2528E+00  0.2528E+00
    -10.098  0.2987E-01  0.2987E-01  0.2590E+00  0.2590E+00
     -9.892  0.4531E-01  0.4531E-01  0.2683E+00  0.2683E+00
     -9.686  0.3352E-01  0.3352E-01  0.2752E+00  0.2752E+00
     -9.481  0.3744E-01  0.3744E-01  0.2829E+00  0.2829E+00
     -9.275  0.5539E-01  0.5539E-01  0.2944E+00  0.2944E+00
     -9.069  0.9670E-01  0.9670E-01  0.3143E+00  0.3143E+00
     -8.863  0.4351E-01  0.4351E-01  0.3232E+00  0.3232E+00
     -8.657  0.1744E-04  0.1744E-04  0.3232E+00  0.3232E+00
     -8.451  0.0000E+00  0.0000E+00  0.3232E+00  0.3232E+00
     -8.245  0.0000E+00  0.0000E+00  0.3232E+00  0.3232E+00
     -8.039  0.0000E+00  0.0000E+00  0.3232E+00  0.3232E+00
     -7.833  0.0000E+00  0.0000E+00  0.3232E+00  0.3232E+00
     -7.627  0.0000E+00  0.0000E+00  0.3232E+00  0.3232E+00
     -7.421  0.0000E+00  0.0000E+00  0.3232E+00  0.3232E+00
     -7.215  0.0000E+00  0.0000E+00  0.3232E+00  0.3232E+00
     -7.009  0.0000E+00  0.0000E+00  0.3232E+00  0.3232E+00
     -6.803  0.0000E+00  0.0000E+00  0.3232E+00  0.3232E+00
     -6.597  0.0000E+00  0.0000E+00  0.3232E+00  0.3232E+00
     -6.391  0.0000E+00  0.0000E+00  0.3232E+00  0.3232E+00
     -6.185  0.0000E+00  0.0000E+00  0.3232E+00  0.3232E+00
     -5.979  0.0000E+00  0.0000E+00  0.3232E+00  0.3232E+00
     -5.773  0.0000E+00  0.0000E+00  0.3232E+00  0.3232E+00
     -5.567  0.0000E+00  0.0000E+00  0.3232E+00  0.3232E+00
     -5.361  0.0000E+00  0.0000E+00  0.3232E+00  0.3232E+00
     -5.155  0.0000E+00  0.0000E+00  0.3232E+00  0.3232E+00
     -4.950  0.0000E+00  0.0000E+00  0.3232E+00  0.3232E+00
     -4.744  0.0000E+00  0.0000E+00  0.3232E+00  0.3232E+00
     -4.538  0.0000E+00  0.0000E+00  0.3232E+00  0.3232E+00
     -4.332  0.0000E+00  0.0000E+00  0.3232E+00  0.3232E+00
     -4.126  0.0000E+00  0.0000E+00  0.3232E+00  0.3232E+00
     -3.920  0.0000E+00  0.0000E+00  0.3232E+00  0.3232E+00
     -3.714  0.0000E+00  0.0000E+00  0.3232E+00  0.3232E+00
     -3.508  0.0000E+00  0.0000E+00  0.3232E+00  0.3232E+00
     -3.302  0.0000E+00  0.0000E+00  0.3232E+00  0.3232E+00
     -3.096  0.6540E-12  0.6540E-12  0.3232E+00  0.3232E+00
     -2.890  0.8919E-04  0.8919E-04  0.3233E+00  0.3233E+00
     -2.684  0.2683E-02  0.2683E-02  0.3238E+00  0.3238E+00
     -2.478  0.5619E-02  0.5619E-02  0.3250E+00  0.3250E+00
     -2.272  0.7929E-02  0.7929E-02  0.3266E+00  0.3266E+00
     -2.066  0.2405E-01  0.2405E-01  0.3315E+00  0.3315E+00
     -1.860  0.4828E-01  0.4828E-01  0.3415E+00  0.3415E+00
     -1.654  0.5601E-01  0.5601E-01  0.3530E+00  0.3530E+00
     -1.448  0.4756E-01  0.4756E-01  0.3628E+00  0.3628E+00
     -1.242  0.5081E-01  0.5081E-01  0.3733E+00  0.3733E+00
     -1.036  0.4030E-01  0.4030E-01  0.3816E+00  0.3816E+00
     -0.830  0.5589E-01  0.5589E-01  0.3931E+00  0.3931E+00
     -0.625  0.5780E-01  0.5780E-01  0.4050E+00  0.4050E+00
     -0.419  0.8246E-01  0.8246E-01  0.4220E+00  0.4220E+00
     -0.213  0.8650E-01  0.8650E-01  0.4398E+00  0.4398E+00
     -0.007  0.5517E-01  0.5517E-01  0.4512E+00  0.4512E+00
      0.199  0.1097E+00  0.1097E+00  0.4738E+00  0.4738E+00
      0.405  0.1124E+00  0.1124E+00  0.4969E+00  0.4969E+00
      0.611  0.5083E-01  0.5083E-01  0.5074E+00  0.5074E+00
      0.817  0.6409E-01  0.6409E-01  0.5206E+00  0.5206E+00
      1.023  0.4776E-01  0.4776E-01  0.5304E+00  0.5304E+00
      1.229  0.8819E-01  0.8819E-01  0.5486E+00  0.5486E+00
      1.435  0.1526E+00  0.1526E+00  0.5800E+00  0.5800E+00
      1.641  0.7757E-01  0.7757E-01  0.5960E+00  0.5960E+00
      1.847  0.7950E-01  0.7950E-01  0.6124E+00  0.6124E+00
      2.053  0.6811E-01  0.6811E-01  0.6264E+00  0.6264E+00
      2.259  0.6320E-01  0.6320E-01  0.6394E+00  0.6394E+00
      2.465  0.8511E-01  0.8511E-01  0.6569E+00  0.6569E+00
      2.671  0.1006E+00  0.1006E+00  0.6776E+00  0.6776E+00
      2.877  0.9196E-01  0.9196E-01  0.6966E+00  0.6966E+00
      3.083  0.1119E+00  0.1119E+00  0.7196E+00  0.7196E+00
      3.289  0.1323E+00  0.1323E+00  0.7469E+00  0.7469E+00
      3.495  0.1330E+00  0.1330E+00  0.7743E+00  0.7743E+00
      3.701  0.9317E-01  0.9317E-01  0.7935E+00  0.7935E+00
      3.906  0.6650E-01  0.6650E-01  0.8072E+00  0.8072E+00
      4.112  0.1343E+00  0.1343E+00  0.8348E+00  0.8348E+00
      4.318  0.9059E-01  0.9059E-01  0.8535E+00  0.8535E+00
      4.524  0.5554E-01  0.5554E-01  0.8649E+00  0.8649E+00
      4.730  0.5148E-01  0.5148E-01  0.8755E+00  0.8755E+00
      4.936  0.6859E-01  0.6859E-01  0.8896E+00  0.8896E+00
      5.142  0.1133E+00  0.1133E+00  0.9130E+00  0.9130E+00
      5.348  0.6219E-01  0.6219E-01  0.9258E+00  0.9258E+00
      5.554  0.2551E-01  0.2551E-01  0.9310E+00  0.9310E+00
      5.760  0.3483E-01  0.3483E-01  0.9382E+00  0.9382E+00
      5.966  0.7167E-01  0.7167E-01  0.9530E+00  0.9530E+00
      6.172  0.4696E-01  0.4696E-01  0.9627E+00  0.9627E+00
      6.378  0.2326E-01  0.2326E-01  0.9674E+00  0.9674E+00
      6.584  0.9792E-02  0.9791E-02  0.9695E+00  0.9695E+00
      6.790  0.1155E-02  0.1156E-02  0.9697E+00  0.9697E+00
      6.996  0.1972E-07  0.2606E-07  0.9697E+00  0.9697E+00
      7.202  0.0000E+00  0.0000E+00  0.9697E+00  0.9697E+00
      7.408  0.0000E+00  0.0000E+00  0.9697E+00  0.9697E+00
      7.614  0.0000E+00  0.0000E+00  0.9697E+00  0.9697E+00
      7.820  0.0000E+00  0.0000E+00  0.9697E+00  0.9697E+00
      8.026  0.0000E+00  0.0000E+00  0.9697E+00  0.9697E+00
      8.232  0.0000E+00  0.0000E+00  0.9697E+00  0.9697E+00
      8.437  0.0000E+00  0.0000E+00  0.9697E+00  0.9697E+00
      8.643  0.0000E+00  0.0000E+00  0.9697E+00  0.9697E+00
      8.849  0.0000E+00  0.0000E+00  0.9697E+00  0.9697E+00
      9.055  0.0000E+00  0.0000E+00  0.9697E+00  0.9697E+00
      9.261  0.0000E+00  0.0000E+00  0.9697E+00  0.9697E+00
      9.467  0.0000E+00  0.0000E+00  0.9697E+00  0.9697E+00
      9.46725815    -52.31904181  301      3.91465100      1.00000000
    -52.319  0.0000E+00  0.0000E+00  0.0000E+00  0.0000E+00  0.0000E+00  0.0000E+00  0.0000E+00  0.0000E+00  0.0000E+00  0.0000E+00  0.0000E+00  0.0000E+00  0.0000E+00  0.0000E+00  0.0000E+00  0.0000E+00  0.0000E+00  0.0000E+00
    -52.113  0.0000E+00  0.0000E+00  0.0000E+00  0.0000E+00  0.0000E+00  0.0000E+00  0.0000E+00  0.0000E+00  0.0000E+00  0.0000E+00  0.0000E+00  0.0000E+00  0.0000E+00  0.0000E+00  0.0000E+00  0.0000E+00  0.0000E+00  0.0000E+00
    -51.907  0.0000E+00  0.0000E+00  0.0000E+00  0.0000E+00  0.0000E+00  0.0000E+00  0.0000E+00  0.0000E+00  0.0000E+00  0.0000E+00  0.0000E+00  0.0000E+00  0.0000E+00  0.0000E+00  0.0000E+00  0.0000E+00  0.0000E+00  0.0000E+00
    -51.701  0.0000E+00  0.0000E+00  0.0000E+00  0.0000E+00  0.0000E+00  0.0000E+00  0.0000E+00  0.0000E+00  0.0000E+00  0.0000E+00  0.0000E+00  0.0000E+00  0.0000E+00  0.0000E+00  0.0000E+00  0.0000E+00  0.0000E+00  0.0000E+00
    -51.495  0.0000E+00  0.0000E+00  0.0000E+00  0.0000E+00  0.0000E+00  0.0000E+00  0.0000E+00  0.0000E+00  0.0000E+00  0.0000E+00  0.0000E+00  0.0000E+00  0.0000E+00  0.0000E+00  0.0000E+00  0.0000E+00  0.0000E+00  0.0000E+00
    -51.289  0.0000E+00  0.0000E+00  0.0000E+00  0.0000E+00  0.0000E+00  0.0000E+00  0.0000E+00  0.0000E+00  0.0000E+00  0.0000E+00  0.0000E+00  0.0000E+00  0.0000E+00  0.0000E+00  0.0000E+00  0.0000E+00  0.0000E+00  0.0000E+00
    -51.083  0.0000E+00  0.0000E+00  0.0000E+00  0.0000E+00  0.0000E+00  0.0000E+00  0.0000E+00  0.0000E+00  0.0000E+00  0.0000E+00  0.0000E+00  0.0000E+00  0.0000E+00  0.0000E+00  0.0000E+00  0.0000E+00  0.0000E+00  0.0000E+00
    -50.877  0.0000E+00  0.0000E+00  0.0000E+00  0.0000E+00  0.0000E+00  0.0000E+00  0.0000E+00  0.0000E+00  0.0000E+00  0.0000E+00  0.0000E+00  0.0000E+00  0.0000E+00  0.0000E+00  0.0000E+00  0.0000E+00  0.0000E+00  0.0000E+00
    -50.671  0.0000E+00  0.0000E+00  0.0000E+00  0.0000E+00  0.0000E+00  0.0000E+00  0.0000E+00  0.0000E+00  0.0000E+00  0.0000E+00  0.0000E+00  0.0000E+00  0.0000E+00  0.0000E+00  0.0000E+00  0.0000E+00  0.0000E+00  0.0000E+00
    -50.465  0.0000E+00  0.0000E+00  0.0000E+00  0.0000E+00  0.0000E+00  0.0000E+00  0.0000E+00  0.0000E+00  0.0000E+00  0.0000E+00  0.0000E+00  0.0000E+00  0.0000E+00  0.0000E+00  0.0000E+00  0.0000E+00  0.0000E+00  0.0000E+00
    -50.259  0.0000E+00  0.0000E+00  0.0000E+00  0.0000E+00  0.0000E+00  0.0000E+00  0.0000E+00  0.0000E+00  0.0000E+00  0.0000E+00  0.0000E+00  0.0000E+00  0.0000E+00  0.0000E+00  0.0000E+00  0.0000E+00  0.0000E+00  0.0000E+00
    -50.054  0.0000E+00  0.0000E+00  0.0000E+00  0.0000E+00  0.0000E+00  0.0000E+00  0.0000E+00  0.0000E+00  0.0000E+00  0.0000E+00  0.0000E+00  0.0000E+00  0.0000E+00  0.0000E+00  0.0000E+00  0.0000E+00  0.0000E+00  0.0000E+00
    -49.848  0.0000E+00  0.0000E+00  0.0000E+00  0.0000E+00  0.0000E+00  0.0000E+00  0.0000E+00  0.0000E+00  0.0000E+00  0.0000E+00  0.0000E+00  0.0000E+00  0.0000E+00  0.0000E+00  0.0000E+00  0.0000E+00  0.0000E+00  0.0000E+00
    -49.642  0.5079E-08  0.6493E-08  0.6275E-05  0.8080E-05  0.2883E-06  0.3244E-06  0.5614E-05  0.6263E-05  0.1271E-09  0.1410E-09  0.1889E-11  0.1668E-11  0.2625E-08  0.3362E-08  0.3772E-09  0.4199E-09  0.9302E-09  0.1335E-08
    -49.436  0.3454E-03  0.3532E-03  0.5190E+00  0.5065E+00  0.2353E-01  0.2338E-01  0.4921E+00  0.4883E+00  0.6369E-05  0.6459E-05  0.2044E-06  0.2140E-06  0.1757E-03  0.1793E-03  0.4513E-04  0.4550E-04  0.4920E-03  0.5096E-03
    -49.230  0.3737E-04  0.3421E-04  0.1249E+00  0.9592E-01  0.5927E-02  0.5452E-02  0.1259E+00  0.1164E+00  0.7205E-06  0.7094E-06  0.4878E-07  0.4979E-07  0.1897E-04  0.1696E-04  0.9485E-05  0.9353E-05  0.1503E-03  0.1373E-03
    -49.024  0.9937E-04  0.9632E-04  0.1913E+01  0.1883E+01  0.2635E+01  0.2313E+01  0.1938E+01  0.1942E+01  0.4245E-05  0.4384E-05  0.6432E-05  0.5430E-05  0.2276E-04  0.2204E-04  0.8987E-05  0.1091E-04  0.6280E-04  0.6105E-04
    -48.818  0.9207E-04  0.8986E-04  0.1805E+01  0.1811E+01  0.2152E+01  0.2473E+01  0.1821E+01  0.1788E+01  0.4171E-04  0.4165E-04  0.1811E-04  0.1909E-04  0.3485E-04  0.3368E-04  0.2418E-04  0.2198E-04  0.7225E-04  0.6903E-04
    -48.612  0.1326E-04  0.1370E-04  0.4735E+00  0.5389E+00  0.1947E-01  0.2055E-01  0.4584E+00  0.5011E+00  0.2971E-05  0.2782E-05  0.1080E-06  0.1047E-06  0.4940E-05  0.5077E-05  0.2157E-05  0.2192E-05  0.3438E-04  0.3449E-04
    -48.406  0.1464E-11  0.1652E-11  0.1972E-06  0.2474E-06  0.7860E-08  0.9326E-08  0.1875E-06  0.2294E-06  0.1898E-12  0.2158E-12  0.8439E-14  0.1192E-13  0.5587E-12  0.6293E-12  0.6120E-12  0.6999E-12  0.1212E-10  0.1413E-10
    -48.200  0.0000E+00  0.0000E+00  0.0000E+00  0.0000E+00  0.0000E+00  0.0000E+00  0.0000E+00  0.0000E+00  0.0000E+00  0.0000E+00  0.0000E+00  0.0000E+00  0.0000E+00  0.0000E+00  0.0000E+00  0.0000E+00  0.0000E+00  0.0000E+00
    -47.994  0.0000E+00  0.0000E+00  0.0000E+00  0.0000E+00  0.0000E+00  0.0000E+00  0.0000E+00  0.0000E+00  0.0000E+00  0.0000E+00  0.0000E+00  0.0000E+00  0.0000E+00  0.0000E+00  0.0000E+00  0.0000E+00  0.0000E+00  0.0000E+00
    -47.788  0.0000E+00  0.0000E+00  0.0000E+00  0.0000E+00  0.0000E+00  0.0000E+00  0.0000E+00  0.0000E+00  0.0000E+00  0.0000E+00  0.0000E+00  0.0000E+00  0.0000E+00  0.0000E+00  0.0000E+00  0.0000E+00  0.0000E+00  0.0000E+00
    -47.582  0.0000E+00  0.0000E+00  0.0000E+00  0.0000E+00  0.0000E+00  0.0000E+00  0.0000E+00  0.0000E+00  0.0000E+00  0.0000E+00  0.0000E+00  0.0000E+00  0.0000E+00  0.0000E+00  0.0000E+00  0.0000E+00  0.0000E+00  0.0000E+00
    -47.376  0.0000E+00  0.0000E+00  0.0000E+00  0.0000E+00  0.0000E+00  0.0000E+00  0.0000E+00  0.0000E+00  0.0000E+00  0.0000E+00  0.0000E+00  0.0000E+00  0.0000E+00  0.0000E+00  0.0000E+00  0.0000E+00  0.0000E+00  0.0000E+00
    -47.170  0.0000E+00  0.0000E+00  0.0000E+00  0.0000E+00  0.0000E+00  0.0000E+00  0.0000E+00  0.0000E+00  0.0000E+00  0.0000E+00  0.0000E+00  0.0000E+00  0.0000E+00  0.0000E+00  0.0000E+00  0.0000E+00  0.0000E+00  0.0000E+00
    -46.964  0.0000E+00  0.0000E+00  0.0000E+00  0.0000E+00  0.0000E+00  0.0000E+00  0.0000E+00  0.0000E+00  0.0000E+00  0.0000E+00  0.0000E+00  0.0000E+00  0.0000E+00  0.0000E+00  0.0000E+00  0.0000E+00  0.0000E+00  0.0000E+00
    -46.758  0.0000E+00  0.0000E+00  0.0000E+00  0.0000E+00  0.0000E+00  0.0000E+00  0.0000E+00  0.0000E+00  0.0000E+00  0.0000E+00  0.0000E+00  0.0000E+00  0.0000E+00  0.0000E+00  0.0000E+00  0.0000E+00  0.0000E+00  0.0000E+00
    -46.552  0.0000E+00  0.0000E+00  0.0000E+00  0.0000E+00  0.0000E+00  0.0000E+00  0.0000E+00  0.0000E+00  0.0000E+00  0.0000E+00  0.0000E+00  0.0000E+00  0.0000E+00  0.0000E+00  0.0000E+00  0.0000E+00  0.0000E+00  0.0000E+00
    -46.346  0.0000E+00  0.0000E+00  0.0000E+00  0.0000E+00  0.0000E+00  0.0000E+00  0.0000E+00  0.0000E+00  0.0000E+00  0.0000E+00  0.0000E+00  0.0000E+00  0.0000E+00  0.0000E+00  0.0000E+00  0.0000E+00  0.0000E+00  0.0000E+00
    -46.140  0.0000E+00  0.0000E+00  0.0000E+00  0.0000E+00  0.0000E+00  0.0000E+00  0.0000E+00  0.0000E+00  0.0000E+00  0.0000E+00  0.0000E+00  0.0000E+00  0.0000E+00  0.0000E+00  0.0000E+00  0.0000E+00  0.0000E+00  0.0000E+00
    -45.934  0.0000E+00  0.0000E+00  0.0000E+00  0.0000E+00  0.0000E+00  0.0000E+00  0.0000E+00  0.0000E+00  0.0000E+00  0.0000E+00  0.0000E+00  0.0000E+00  0.0000E+00  0.0000E+00  0.0000E+00  0.0000E+00  0.0000E+00  0.0000E+00
    -45.729  0.0000E+00  0.0000E+00  0.0000E+00  0.0000E+00  0.0000E+00  0.0000E+00  0.0000E+00  0.0000E+00  0.0000E+00  0.0000E+00  0.0000E+00  0.0000E+00  0.0000E+00  0.0000E+00  0.0000E+00  0.0000E+00  0.0000E+00  0.0000E+00
    -45.523  0.0000E+00  0.0000E+00  0.0000E+00  0.0000E+00  0.0000E+00  0.0000E+00  0.0000E+00  0.0000E+00  0.0000E+00  0.0000E+00  0.0000E+00  0.0000E+00  0.0000E+00  0.0000E+00  0.0000E+00  0.0000E+00  0.0000E+00  0.0000E+00
    -45.317  0.0000E+00  0.0000E+00  0.0000E+00  0.0000E+00  0.0000E+00  0.0000E+00  0.0000E+00  0.0000E+00  0.0000E+00  0.0000E+00  0.0000E+00  0.0000E+00  0.0000E+00  0.0000E+00  0.0000E+00  0.0000E+00  0.0000E+00  0.0000E+00
    -45.111  0.0000E+00  0.0000E+00  0.0000E+00  0.0000E+00  0.0000E+00  0.0000E+00  0.0000E+00  0.0000E+00  0.0000E+00  0.0000E+00  0.0000E+00  0.0000E+00  0.0000E+00  0.0000E+00  0.0000E+00  0.0000E+00  0.0000E+00  0.0000E+00
    -44.905  0.0000E+00  0.0000E+00  0.0000E+00  0.0000E+00  0.0000E+00  0.0000E+00  0.0000E+00  0.0000E+00  0.0000E+00  0.0000E+00  0.0000E+00  0.0000E+00  0.0000E+00  0.0000E+00  0.0000E+00  0.0000E+00  0.0000E+00  0.0000E+00
    -44.699  0.0000E+00  0.0000E+00  0.0000E+00  0.0000E+00  0.0000E+00  0.0000E+00  0.0000E+00  0.0000E+00  0.0000E+00  0.0000E+00  0.0000E+00  0.0000E+00  0.0000E+00  0.0000E+00  0.0000E+00  0.0000E+00  0.0000E+00  0.0000E+00
    -44.493  0.0000E+00  0.0000E+00  0.0000E+00  0.0000E+00  0.0000E+00  0.0000E+00  0.0000E+00  0.0000E+00  0.0000E+00  0.0000E+00  0.0000E+00  0.0000E+00  0.0000E+00  0.0000E+00  0.0000E+00  0.0000E+00  0.0000E+00  0.0000E+00
    -44.287  0.0000E+00  0.0000E+00  0.0000E+00  0.0000E+00  0.0000E+00  0.0000E+00  0.0000E+00  0.0000E+00  0.0000E+00  0.0000E+00  0.0000E+00  0.0000E+00  0.0000E+00  0.0000E+00  0.0000E+00  0.0000E+00  0.0000E+00  0.0000E+00
    -44.081  0.0000E+00  0.0000E+00  0.0000E+00  0.0000E+00  0.0000E+00  0.0000E+00  0.0000E+00  0.0000E+00  0.0000E+00  0.0000E+00  0.0000E+00  0.0000E+00  0.0000E+00  0.0000E+00  0.0000E+00  0.0000E+00  0.0000E+00  0.0000E+00
    -43.875  0.0000E+00  0.0000E+00  0.0000E+00  0.0000E+00  0.0000E+00  0.0000E+00  0.0000E+00  0.0000E+00  0.0000E+00  0.0000E+00  0.0000E+00  0.0000E+00  0.0000E+00  0.0000E+00  0.0000E+00  0.0000E+00  0.0000E+00  0.0000E+00
    -43.669  0.0000E+00  0.0000E+00  0.0000E+00  0.0000E+00  0.0000E+00  0.0000E+00  0.0000E+00  0.0000E+00  0.0000E+00  0.0000E+00  0.0000E+00  0.0000E+00  0.0000E+00  0.0000E+00  0.0000E+00  0.0000E+00  0.0000E+00  0.0000E+00
    -43.463  0.0000E+00  0.0000E+00  0.0000E+00  0.0000E+00  0.0000E+00  0.0000E+00  0.0000E+00  0.0000E+00  0.0000E+00  0.0000E+00  0.0000E+00  0.0000E+00  0.0000E+00  0.0000E+00  0.0000E+00  0.0000E+00  0.0000E+00  0.0000E+00
    -43.257  0.0000E+00  0.0000E+00  0.0000E+00  0.0000E+00  0.0000E+00  0.0000E+00  0.0000E+00  0.0000E+00  0.0000E+00  0.0000E+00  0.0000E+00  0.0000E+00  0.0000E+00  0.0000E+00  0.0000E+00  0.0000E+00  0.0000E+00  0.0000E+00
    -43.051  0.0000E+00  0.0000E+00  0.0000E+00  0.0000E+00  0.0000E+00  0.0000E+00  0.0000E+00  0.0000E+00  0.0000E+00  0.0000E+00  0.0000E+00  0.0000E+00  0.0000E+00  0.0000E+00  0.0000E+00  0.0000E+00  0.0000E+00  0.0000E+00
    -42.845  0.0000E+00  0.0000E+00  0.0000E+00  0.0000E+00  0.0000E+00  0.0000E+00  0.0000E+00  0.0000E+00  0.0000E+00  0.0000E+00  0.0000E+00  0.0000E+00  0.0000E+00  0.0000E+00  0.0000E+00  0.0000E+00  0.0000E+00  0.0000E+00
    -42.639  0.0000E+00  0.0000E+00  0.0000E+00  0.0000E+00  0.0000E+00  0.0000E+00  0.0000E+00  0.0000E+00  0.0000E+00  0.0000E+00  0.0000E+00  0.0000E+00  0.0000E+00  0.0000E+00  0.0000E+00  0.0000E+00  0.0000E+00  0.0000E+00
    -42.433  0.0000E+00  0.0000E+00  0.0000E+00  0.0000E+00  0.0000E+00  0.0000E+00  0.0000E+00  0.0000E+00  0.0000E+00  0.0000E+00  0.0000E+00  0.0000E+00  0.0000E+00  0.0000E+00  0.0000E+00  0.0000E+00  0.0000E+00  0.0000E+00
    -42.227  0.0000E+00  0.0000E+00  0.0000E+00  0.0000E+00  0.0000E+00  0.0000E+00  0.0000E+00  0.0000E+00  0.0000E+00  0.0000E+00  0.0000E+00  0.0000E+00  0.0000E+00  0.0000E+00  0.0000E+00  0.0000E+00  0.0000E+00  0.0000E+00
    -42.021  0.0000E+00  0.0000E+00  0.0000E+00  0.0000E+00  0.0000E+00  0.0000E+00  0.0000E+00  0.0000E+00  0.0000E+00  0.0000E+00  0.0000E+00  0.0000E+00  0.0000E+00  0.0000E+00  0.0000E+00  0.0000E+00  0.0000E+00  0.0000E+00