 running   24 mpi-ranks, on    1 nodes
 distrk:  each k-point on   24 cores,    1 groups
 distr:  one band on    1 cores,   24 groups
 vasp.6.4.1 05Apr23 (build Jun 01 2023 13:46:15) complex                        
  
 POSCAR found type information on POSCAR FeSe
 POSCAR found :  2 types and      16 ions
 Reading from existing POTCAR
 scaLAPACK will be used
 -----------------------------------------------------------------------------
|                                                                             |
|           W    W    AA    RRRRR   N    N  II  N    N   GGGG   !!!           |
|           W    W   A  A   R    R  NN   N  II  NN   N  G    G  !!!           |
|           W    W  A    A  R    R  N N  N  II  N N  N  G       !!!           |
|           W WW W  AAAAAA  RRRRR   N  N N  II  N  N N  G  GGG   !            |
|           WW  WW  A    A  R   R   N   NN  II  N   NN  G    G                |
|           W    W  A    A  R    R  N    N  II  N    N   GGGG   !!!           |
|                                                                             |
|     For optimal performance we recommend to set                             |
|       NCORE = 2 up to number-of-cores-per-socket                            |
|     NCORE specifies how many cores store one orbital (NPAR=cpu/NCORE).      |
|     This setting can greatly improve the performance of VASP for DFT.       |
|     The default, NCORE=1 might be grossly inefficient on modern             |
|     multi-core architectures or massively parallel machines. Do your        |
|     own testing! More info at https://www.vasp.at/wiki/index.php/NCORE      |
|     Unfortunately you need to use the default for GW and RPA                |
|     calculations (for HF NCORE is supported but not extensively tested      |
|     yet).                                                                   |
|                                                                             |
 -----------------------------------------------------------------------------

 Reading from existing POTCAR
 LDA part: xc-table for Pade appr. of Perdew
 POSCAR, INCAR and KPOINTS ok, starting setup
 FFT: planning ... GRIDC
 FFT: planning ... GRID_SOFT
 FFT: planning ... GRID
 WAVECAR not read
 WARNING: random wavefunctions but no delay for mixing, default for NELMDL
 entering main loop
       N       E                     dE             d eps       ncg     rms          rms(c)
DAV:   1     0.197100368965E+04    0.19710E+04   -0.90527E+04 89640   0.208E+03
DAV:   2     0.930419001890E+02   -0.18780E+04   -0.18451E+04 84864   0.594E+02
DAV:   3    -0.943524755788E+02   -0.18739E+03   -0.18118E+03124008   0.187E+02
DAV:   4    -0.104790297921E+03   -0.10438E+02   -0.10382E+02120720   0.457E+01
DAV:   5    -0.105068044187E+03   -0.27775E+00   -0.27736E+00113040   0.703E+00    0.257E+01
RMM:   6    -0.111891349660E+03   -0.68233E+01   -0.13110E+02 84876   0.805E+01    0.374E+01
RMM:   7    -0.964195725027E+02    0.15472E+02   -0.35406E+01 84968   0.469E+01    0.112E+01
RMM:   8    -0.994970223343E+02   -0.30774E+01   -0.77160E+00 94920   0.141E+01    0.269E+01
RMM:   9    -0.958779008908E+02    0.36191E+01   -0.53806E+00 90999   0.131E+01    0.182E+00
RMM:  10    -0.962047238973E+02   -0.32682E+00   -0.20182E+00125077   0.418E+00    0.701E+00
RMM:  11    -0.960620116392E+02    0.14271E+00   -0.31668E-01109051   0.218E+00    0.171E+00
RMM:  12    -0.960604191993E+02    0.15924E-02   -0.15522E-01 86622   0.230E+00    0.204E+00
RMM:  13    -0.960634634106E+02   -0.30442E-02   -0.66659E-02104635   0.737E-01    0.199E+00
RMM:  14    -0.960648514683E+02   -0.13881E-02   -0.14608E-01122705   0.138E+00    0.118E+00
RMM:  15    -0.960752615135E+02   -0.10410E-01   -0.15119E-02 99011   0.597E-01    0.146E+00
RMM:  16    -0.960814540210E+02   -0.61925E-02   -0.32131E-02117527   0.779E-01    0.998E-01
RMM:  17    -0.960501128521E+02    0.31341E-01   -0.40935E-02118122   0.830E-01    0.575E-01
RMM:  18    -0.960449665510E+02    0.51463E-02   -0.11382E-02106378   0.323E-01    0.402E-01
RMM:  19    -0.960403232262E+02    0.46433E-02   -0.95429E-03100127   0.261E-01    0.282E-01
RMM:  20    -0.960375878322E+02    0.27354E-02   -0.12931E-02110161   0.296E-01    0.923E-02
RMM:  21    -0.960377173623E+02   -0.12953E-03   -0.10607E-03 71281   0.116E-01
   1 F= -.10165408E+03 E0= -.10163966E+03  d E =-.101654E+03  mag=    -0.0000
 curvature:   0.00 expect dE= 0.000E+00 dE for cont linesearch  0.000E+00
 trial: gam= 0.00000 g(F)=  0.278E-02 g(S)=  0.404E-03 ort = 0.000E+00 (trialstep = 0.100E+01)
 search vector abs. value=  0.319E-02
 bond charge predicted
       N       E                     dE             d eps       ncg     rms          rms(c)
DAV:   1    -0.960414104055E+02   -0.38226E-02   -0.17917E-01114936   0.153E+00    0.400E-01
RMM:   2    -0.960406697010E+02    0.74070E-03   -0.13648E-02 90789   0.727E-01    0.323E-01
RMM:   3    -0.960412212327E+02   -0.55153E-03   -0.69306E-03 87628   0.566E-01    0.574E-01
RMM:   4    -0.960405258143E+02    0.69542E-03   -0.28395E-03 77173   0.346E-01    0.411E-01
RMM:   5    -0.960414272308E+02   -0.90142E-03   -0.18055E-03 73819   0.247E-01    0.704E-01
RMM:   6    -0.960398991732E+02    0.15281E-02   -0.76100E-04 61196   0.187E-01    0.183E-01
RMM:   7    -0.960397806951E+02    0.11848E-03   -0.23388E-04 49010   0.683E-02
   2 F= -.10165604E+03 E0= -.10164162E+03  d E =-.196359E-02  mag=    -0.0000
 trial-energy change:   -0.001964  1 .order   -0.002324   -0.003186   -0.001461
 step:   1.8475(harm=  1.8475)  dis= 0.00741  next Energy=  -101.657019 (dE=-0.294E-02)
 bond charge predicted
       N       E                     dE             d eps       ncg     rms          rms(c)
DAV:   1    -0.960414545580E+02   -0.15554E-02   -0.13441E-01 99696   0.130E+00    0.350E-01
RMM:   2    -0.960410603752E+02    0.39418E-03   -0.10396E-02 88842   0.648E-01    0.327E-01
RMM:   3    -0.960431303092E+02   -0.20699E-02   -0.56792E-03 86804   0.499E-01    0.894E-01
RMM:   4    -0.960408928888E+02    0.22374E-02   -0.23137E-03 75727   0.318E-01    0.373E-01
RMM:   5    -0.960414230112E+02   -0.53012E-03   -0.16679E-03 72561   0.240E-01    0.494E-01
RMM:   6    -0.960407963754E+02    0.62664E-03   -0.65157E-04 59526   0.179E-01    0.291E-01
RMM:   7    -0.960401848802E+02    0.61150E-03   -0.28434E-04 46629   0.106E-01    0.688E-02
RMM:   8    -0.960402838582E+02   -0.98978E-04   -0.12785E-04 44247   0.570E-02
   3 F= -.10165646E+03 E0= -.10164200E+03  d E =-.238697E-02  mag=     0.0000
 curvature:  -0.92 expect dE=-0.185E-02 dE for cont linesearch -0.362E-05
 trial: gam= 0.59287 g(F)=  0.676E-03 g(S)=  0.132E-02 ort = 0.112E-03 (trialstep = 0.115E+01)
 search vector abs. value=  0.325E-02
 bond charge predicted
       N       E                     dE             d eps       ncg     rms          rms(c)
DAV:   1    -0.960597214223E+02   -0.19537E-01   -0.48436E-01 95688   0.348E+00    0.108E+00
RMM:   2    -0.960492193218E+02    0.10502E-01   -0.49074E-02100353   0.146E+00    0.830E-01
RMM:   3    -0.960598309749E+02   -0.10612E-01   -0.41032E-02 90888   0.139E+00    0.194E+00
RMM:   4    -0.960466228328E+02    0.13208E-01   -0.19766E-02 86886   0.968E-01    0.810E-01
RMM:   5    -0.960481179227E+02   -0.14951E-02   -0.76858E-03 86154   0.569E-01    0.125E+00
RMM:   6    -0.960440088355E+02    0.41091E-02   -0.26804E-03 75819   0.312E-01    0.468E-01
RMM:   7    -0.960427613881E+02    0.12474E-02   -0.12926E-03 71513   0.147E-01    0.266E-01
RMM:   8    -0.960421206714E+02    0.64072E-03   -0.60949E-04 56297   0.139E-01    0.992E-02
RMM:   9    -0.960424298057E+02   -0.30913E-03   -0.28553E-04 49041   0.960E-02    0.194E-01
RMM:  10    -0.960422169751E+02    0.21283E-03   -0.19781E-04 46538   0.106E-01    0.566E-02
RMM:  11    -0.960422175465E+02   -0.57145E-06   -0.96448E-05 45348   0.494E-02
   4 F= -.10165768E+03 E0= -.10164318E+03  d E =-.121693E-02  mag=    -0.0000
 trial-energy change:   -0.001217  1 .order   -0.001487   -0.002367   -0.000607
 step:   1.5401(harm=  1.5401)  dis= 0.00304  next Energy=  -101.658054 (dE=-0.159E-02)
 bond charge predicted
       N       E                     dE             d eps       ncg     rms          rms(c)
DAV:   1    -0.960446905613E+02   -0.24736E-02   -0.57484E-02 97464   0.120E+00    0.372E-01
RMM:   2    -0.960435598966E+02    0.11307E-02   -0.63524E-03 95652   0.525E-01    0.308E-01
RMM:   3    -0.960449099441E+02   -0.13500E-02   -0.50465E-03 83892   0.495E-01    0.704E-01
RMM:   4    -0.960430648171E+02    0.18451E-02   -0.24235E-03 74883   0.345E-01    0.250E-01
RMM:   5    -0.960427806798E+02    0.28414E-03   -0.67933E-04 62137   0.174E-01    0.165E-01
RMM:   6    -0.960427738853E+02    0.67945E-05   -0.22705E-04 48115   0.717E-02
   5 F= -.10165798E+03 E0= -.10164350E+03  d E =-.152196E-02  mag=     0.0000
 curvature:  -1.21 expect dE=-0.767E-03 dE for cont linesearch -0.321E-03
 trial: gam=-0.00449 g(F)=  0.426E-03 g(S)=  0.207E-03 ort = 0.928E-03 (trialstep = 0.122E+01)
 search vector abs. value=  0.624E-03
 reached required accuracy - stopping structural energy minimisation
