 running   24 mpi-ranks, on    1 nodes
 distrk:  each k-point on   24 cores,    1 groups
 distr:  one band on    1 cores,   24 groups
 vasp.6.4.1 05Apr23 (build Jun 01 2023 13:46:15) complex                        
  
 POSCAR found type information on POSCAR FeSe
 POSCAR found :  2 types and      16 ions
 Reading from existing POTCAR
 scaLAPACK will be used
 -----------------------------------------------------------------------------
|                                                                             |
|           W    W    AA    RRRRR   N    N  II  N    N   GGGG   !!!           |
|           W    W   A  A   R    R  NN   N  II  NN   N  G    G  !!!           |
|           W    W  A    A  R    R  N N  N  II  N N  N  G       !!!           |
|           W WW W  AAAAAA  RRRRR   N  N N  II  N  N N  G  GGG   !            |
|           WW  WW  A    A  R   R   N   NN  II  N   NN  G    G                |
|           W    W  A    A  R    R  N    N  II  N    N   GGGG   !!!           |
|                                                                             |
|     For optimal performance we recommend to set                             |
|       NCORE = 2 up to number-of-cores-per-socket                            |
|     NCORE specifies how many cores store one orbital (NPAR=cpu/NCORE).      |
|     This setting can greatly improve the performance of VASP for DFT.       |
|     The default, NCORE=1 might be grossly inefficient on modern             |
|     multi-core architectures or massively parallel machines. Do your        |
|     own testing! More info at https://www.vasp.at/wiki/index.php/NCORE      |
|     Unfortunately you need to use the default for GW and RPA                |
|     calculations (for HF NCORE is supported but not extensively tested      |
|     yet).                                                                   |
|                                                                             |
 -----------------------------------------------------------------------------

 Reading from existing POTCAR
 LDA part: xc-table for Pade appr. of Perdew
 POSCAR, INCAR and KPOINTS ok, starting setup
 FFT: planning ... GRIDC
 FFT: planning ... GRID_SOFT
 FFT: planning ... GRID
 WAVECAR not read
 WARNING: random wavefunctions but no delay for mixing, default for NELMDL
 entering main loop
       N       E                     dE             d eps       ncg     rms          rms(c)
DAV:   1     0.197784041020E+04    0.19778E+04   -0.90622E+04 89856   0.208E+03
DAV:   2     0.936064954568E+02   -0.18842E+04   -0.18513E+04 84888   0.595E+02
DAV:   3    -0.942670018232E+02   -0.18787E+03   -0.18172E+03123456   0.187E+02
DAV:   4    -0.104639080366E+03   -0.10372E+02   -0.10319E+02120000   0.458E+01
DAV:   5    -0.104920242096E+03   -0.28116E+00   -0.28072E+00113136   0.706E+00    0.254E+01
RMM:   6    -0.110849626845E+03   -0.59294E+01   -0.12583E+02 84870   0.791E+01    0.360E+01
RMM:   7    -0.963832478450E+02    0.14466E+02   -0.33760E+01 84980   0.459E+01    0.111E+01
RMM:   8    -0.993768227061E+02   -0.29936E+01   -0.77749E+00 94876   0.142E+01    0.265E+01
RMM:   9    -0.958340816581E+02    0.35427E+01   -0.54206E+00 90913   0.132E+01    0.175E+00
RMM:  10    -0.961555372375E+02   -0.32146E+00   -0.19968E+00125331   0.427E+00    0.693E+00
RMM:  11    -0.960142347589E+02    0.14130E+00   -0.30611E-01109704   0.214E+00    0.155E+00
RMM:  12    -0.960117883910E+02    0.24464E-02   -0.16266E-01 86526   0.237E+00    0.203E+00
RMM:  13    -0.960133807714E+02   -0.15924E-02   -0.70130E-02101651   0.752E-01    0.189E+00
RMM:  14    -0.960055199923E+02    0.78608E-02   -0.12304E-01118089   0.149E+00    0.720E-01
RMM:  15    -0.960041981552E+02    0.13218E-02   -0.15866E-02105149   0.548E-01    0.516E-01
RMM:  16    -0.959986665987E+02    0.55316E-02   -0.94656E-03 89023   0.401E-01    0.445E-01
RMM:  17    -0.959980364394E+02    0.63016E-03   -0.24013E-03 89495   0.217E-01    0.321E-01
RMM:  18    -0.959945755457E+02    0.34609E-02   -0.83146E-03105522   0.354E-01    0.161E-01
RMM:  19    -0.959933379308E+02    0.12376E-02   -0.79026E-03112174   0.276E-01    0.854E-02
RMM:  20    -0.959933689074E+02   -0.30977E-04   -0.11010E-03 69144   0.107E-01
   1 F= -.10161231E+03 E0= -.10159809E+03  d E =-.101612E+03  mag=     0.0000
 curvature:   0.00 expect dE= 0.000E+00 dE for cont linesearch  0.000E+00
 trial: gam= 0.00000 g(F)=  0.468E-01 g(S)=  0.127E-03 ort = 0.000E+00 (trialstep = 0.100E+01)
 search vector abs. value=  0.470E-01
 bond charge predicted
       N       E                     dE             d eps       ncg     rms          rms(c)
DAV:   1    -0.960078726771E+02   -0.14535E-01   -0.19840E+00101976   0.405E+00    0.413E-01
RMM:   2    -0.960179900199E+02   -0.10117E-01   -0.10891E-01 98666   0.176E+00    0.783E-01
RMM:   3    -0.960204185374E+02   -0.24285E-02   -0.39810E-02104243   0.877E-01    0.659E-01
RMM:   4    -0.960192903160E+02    0.11282E-02   -0.88583E-03 95713   0.517E-01    0.263E-01
RMM:   5    -0.960199232963E+02   -0.63298E-03   -0.23600E-03 79854   0.253E-01    0.582E-01
RMM:   6    -0.960188057836E+02    0.11175E-02   -0.79306E-04 61747   0.179E-01    0.823E-02
RMM:   7    -0.960187556138E+02    0.50170E-04   -0.10192E-03 67488   0.103E-01
   2 F= -.10163837E+03 E0= -.10162414E+03  d E =-.260592E-01  mag=    -0.0000
 trial-energy change:   -0.026059  1 .order   -0.027888   -0.046976   -0.008799
 step:   1.3824(harm=  1.2305)  dis= 0.02365  next Energy=  -101.639948 (dE=-0.276E-01)
 bond charge predicted
       N       E                     dE             d eps       ncg     rms          rms(c)
DAV:   1    -0.960168252732E+02    0.19805E-02   -0.28425E-01109920   0.153E+00    0.177E-01
RMM:   2    -0.960183093240E+02   -0.14841E-02   -0.15422E-02 90141   0.643E-01    0.317E-01
RMM:   3    -0.960188484904E+02   -0.53917E-03   -0.56848E-03 94387   0.300E-01    0.312E-01
RMM:   4    -0.960191134031E+02   -0.26491E-03   -0.96267E-04 64270   0.136E-01    0.357E-01
RMM:   5    -0.960188198155E+02    0.29359E-03   -0.45305E-04 53549   0.113E-01    0.290E-01
RMM:   6    -0.960191196674E+02   -0.29985E-03   -0.67002E-04 59080   0.146E-01    0.443E-01
RMM:   7    -0.960183790855E+02    0.74058E-03   -0.35225E-04 51429   0.130E-01    0.692E-02
RMM:   8    -0.960184197513E+02   -0.40666E-04   -0.19084E-04 45308   0.577E-02
   3 F= -.10163828E+03 E0= -.10162405E+03  d E =-.259690E-01  mag=    -0.0000
 curvature:  -0.35 expect dE=-0.649E-02 dE for cont linesearch -0.372E-03
 trial: gam= 0.00000 g(F)=  0.177E-02 g(S)=  0.169E-01 ort =-0.709E-02 (trialstep = 0.108E+01)
 search vector abs. value=  0.187E-01
 bond charge predicted
       N       E                     dE             d eps       ncg     rms          rms(c)
DAV:   1    -0.961365700210E+02   -0.11819E+00   -0.27634E+00 96096   0.111E+01    0.262E+00
RMM:   2    -0.960885159118E+02    0.48054E-01   -0.42317E-01109259   0.426E+00    0.265E+00
RMM:   3    -0.961792865849E+02   -0.90771E-01   -0.30290E-01 93689   0.376E+00    0.578E+00
RMM:   4    -0.960653930562E+02    0.11389E+00   -0.14557E-01 86197   0.267E+00    0.270E+00
RMM:   5    -0.961095420698E+02   -0.44149E-01   -0.94693E-02 94344   0.174E+00    0.440E+00
RMM:   6    -0.960348295206E+02    0.74713E-01   -0.44984E-02 86967   0.146E+00    0.686E-01
RMM:   7    -0.960363307754E+02   -0.15013E-02   -0.13514E-02 99093   0.343E-01    0.687E-01
RMM:   8    -0.960363142043E+02    0.16571E-04   -0.21420E-03 83111   0.190E-01    0.685E-01
RMM:   9    -0.960359874258E+02    0.32678E-03   -0.35294E-04 52770   0.929E-02    0.662E-01
RMM:  10    -0.960447672283E+02   -0.87798E-02   -0.70092E-02135669   0.796E-01    0.637E-01
RMM:  11    -0.960466787559E+02   -0.19115E-02   -0.46014E-03102291   0.224E-01    0.666E-01
RMM:  12    -0.960560386380E+02   -0.93599E-02   -0.91601E-03116962   0.271E-01    0.700E-01
RMM:  13    -0.960714272781E+02   -0.15389E-01   -0.10292E-02118265   0.295E-01    0.921E-01
RMM:  14    -0.960607447991E+02    0.10682E-01   -0.31036E-03 94040   0.178E-01    0.785E-01
RMM:  15    -0.960399143604E+02    0.20830E-01   -0.29576E-02125049   0.479E-01    0.482E-01
RMM:  16    -0.960374788334E+02    0.24355E-02   -0.37872E-03 99124   0.165E-01    0.381E-01
RMM:  17    -0.960349056874E+02    0.25731E-02   -0.24686E-03 94526   0.166E-01    0.311E-01
RMM:  18    -0.960333875822E+02    0.15181E-02   -0.17662E-03 81449   0.128E-01    0.235E-01
RMM:  19    -0.960324999154E+02    0.88767E-03   -0.11656E-03 69879   0.135E-01    0.163E-01
RMM:  20    -0.960320273727E+02    0.47254E-03   -0.10180E-03 67513   0.106E-01    0.104E-01
RMM:  21    -0.960317265250E+02    0.30085E-03   -0.12251E-03 70140   0.119E-01    0.363E-02
RMM:  22    -0.960317021553E+02    0.24370E-04   -0.61186E-04 58436   0.897E-02
   4 F= -.10164916E+03 E0= -.10163479E+03  d E =-.108808E-01  mag=    -0.0000
 trial-energy change:   -0.010881  1 .order   -0.010874   -0.020082   -0.001665
 step:   1.1738(harm=  1.1738)  dis= 0.00300  next Energy=  -101.649227 (dE=-0.109E-01)
 bond charge predicted
       N       E                     dE             d eps       ncg     rms          rms(c)
DAV:   1    -0.960328099387E+02   -0.10834E-02   -0.22009E-02107088   0.100E+00    0.239E-01
RMM:   2    -0.960324821106E+02    0.32783E-03   -0.34166E-03 98704   0.380E-01    0.238E-01
RMM:   3    -0.960332652792E+02   -0.78317E-03   -0.23490E-03 75295   0.348E-01    0.536E-01
RMM:   4    -0.960322877257E+02    0.97755E-03   -0.11419E-03 63603   0.243E-01    0.251E-01
RMM:   5    -0.960325963440E+02   -0.30862E-03   -0.69335E-04 61236   0.161E-01    0.390E-01
RMM:   6    -0.960320225227E+02    0.57382E-03   -0.33291E-04 50778   0.138E-01    0.312E-02
RMM:   7    -0.960320448073E+02   -0.22285E-04   -0.83369E-05 44568   0.393E-02
   5 F= -.10164928E+03 E0= -.10163491E+03  d E =-.110024E-01  mag=     0.0000
 curvature:  -0.59 expect dE=-0.338E-02 dE for cont linesearch -0.526E-05
 trial: gam= 0.28716 g(F)=  0.503E-02 g(S)=  0.738E-03 ort = 0.409E-03 (trialstep = 0.110E+01)
 search vector abs. value=  0.754E-02
 bond charge predicted
       N       E                     dE             d eps       ncg     rms          rms(c)
DAV:   1    -0.960525622109E+02   -0.20540E-01   -0.91254E-01110064   0.839E+00    0.130E+00
RMM:   2    -0.960605253486E+02   -0.79631E-02   -0.17464E-01106054   0.272E+00    0.209E+00
RMM:   3    -0.960698304625E+02   -0.93051E-02   -0.91668E-02 93860   0.212E+00    0.266E+00
RMM:   4    -0.960453001411E+02    0.24530E-01   -0.41745E-02 90678   0.146E+00    0.132E+00
RMM:   5    -0.960529596562E+02   -0.76595E-02   -0.18631E-02 92565   0.834E-01    0.205E+00
RMM:   6    -0.960381798463E+02    0.14780E-01   -0.89022E-03 86278   0.647E-01    0.318E-01
RMM:   7    -0.960387701812E+02   -0.59033E-03   -0.25793E-03 88328   0.172E-01    0.386E-01
RMM:   8    -0.960384283917E+02    0.34179E-03   -0.26363E-03 92902   0.192E-01    0.214E-01
RMM:   9    -0.960380989326E+02    0.32946E-03   -0.31727E-04 50497   0.982E-02    0.139E-01
RMM:  10    -0.960381627162E+02   -0.63784E-04   -0.12193E-04 48179   0.803E-02
   6 F= -.10165451E+03 E0= -.10164014E+03  d E =-.522483E-02  mag=     0.0000
 trial-energy change:   -0.005225  1 .order   -0.003045   -0.006448    0.000358
 step:   1.0760(harm=  1.0383)  dis= 0.00479  next Energy=  -101.654509 (dE=-0.523E-02)
 bond charge predicted
       N       E                     dE             d eps       ncg     rms          rms(c)
DAV:   1    -0.960378640842E+02    0.23485E-03   -0.59059E-04 73728   0.196E-01    0.899E-02
RMM:   2    -0.960384622552E+02   -0.59817E-03   -0.15055E-03 72696   0.199E-01    0.408E-01
RMM:   3    -0.960379738151E+02    0.48844E-03   -0.71106E-04 60837   0.185E-01    0.251E-01
RMM:   4    -0.960379560211E+02    0.17794E-04   -0.28859E-04 45642   0.117E-01
   7 F= -.10165431E+03 E0= -.10163995E+03  d E =-.503394E-02  mag=    -0.0000
 curvature:  -0.38 expect dE=-0.955E-03 dE for cont linesearch -0.375E-03
 trial: gam=-0.03579 g(F)=  0.193E-02 g(S)=  0.575E-03 ort = 0.272E-02 (trialstep = 0.109E+01)
 search vector abs. value=  0.232E-02
 reached required accuracy - stopping structural energy minimisation
