unknown system                          
           1
     4.948739   -5.010867    1.126259
     4.702299    4.861391    0.934628
     1.096374   -0.148616    6.493803
   Fe   Se
     8     8
unknown system                          
           1
     4.948739   -5.010867    1.126259
     4.702299    4.861391    0.934628
     1.096374   -0.148616    6.493803
   Fe   Se
     8     8
Direct configuration=     1
   0.95805676  0.00021274  0.99962517
   0.04194324  0.49978726  0.00037483
   0.45805676  0.00021274  0.99962517
   0.54194324  0.49978726  0.00037483
   0.25000000  0.25000000  0.00000000
   0.25000000  0.75000000  0.00000000
   0.75000000  0.25000000  0.00000000
   0.75000000  0.75000000  0.00000000
   0.26012229  0.05968993  0.73766115
   0.37937336  0.55940584  0.73827997
   0.76012229  0.05968993  0.73766115
   0.87937336  0.55940584  0.73827997
   0.23987771  0.44031007  0.26233885
   0.12062664  0.94059416  0.26172003
   0.73987771  0.44031007  0.26233885
   0.62062664  0.94059416  0.26172003
