       N       E                     dE             d eps       ncg     rms          rms(c)
DAV:   1    -0.108862346099E+02   -0.10886E+02   -0.46687E+03  7168   0.144E+02
DAV:   2    -0.149048887336E+02   -0.40187E+01   -0.40003E+01 10816   0.946E+00
DAV:   3    -0.149066211222E+02   -0.17324E-02   -0.17214E-02  7168   0.274E-01
DAV:   4    -0.149066219643E+02   -0.84208E-06   -0.83141E-06 14272   0.486E-03
DAV:   5    -0.149066219635E+02    0.83782E-09   -0.14800E-12  7168   0.360E-06    0.296E+00
DAV:   6    -0.148495688056E+02    0.57053E-01   -0.49193E-03 11008   0.839E-02    0.172E+00
DAV:   7    -0.148087776562E+02    0.40791E-01   -0.14272E-02 11392   0.134E-01    0.297E-01
DAV:   8    -0.148086714427E+02    0.10621E-03   -0.48253E-05 10304   0.891E-03    0.960E-02
DAV:   9    -0.148086733557E+02   -0.19130E-05   -0.33541E-06 12736   0.242E-03    0.165E-03
DAV:  10    -0.148086729458E+02    0.40988E-06   -0.47518E-09  7808   0.140E-04
   1 F= -.14808673E+02 E0= -.14808673E+02  d E =0.000000E+00
