 vasp.6.4.3 19Mar24 (build Mar 26 2024 14:05:37) complex                        
  
 executed on             LinuxIFC date 2025.01.03  05:13:42
 running   64 mpi-ranks, on    1 nodes
 distrk:  each k-point on   64 cores,    1 groups
 distr:  one band on NCORE=   1 cores,   64 groups


--------------------------------------------------------------------------------------------------------


 INCAR:
   ALGO = Normal
   EDIFF = 1e-06
   EDIFFG = -0.01
   ENCUT = 520
   GGA = Pe
   IBRION = -1
   ISIF = 4
   ISMEAR = -5
   LCHARG = False
   LREAL = False
   LWAVE = False
   NELM = 200
   NSW = 0
   PREC = Accurate
   SIGMA = 0.2

 POTCAR:    PAW_PBE Al 04Jan2001                  
 -----------------------------------------------------------------------------
|                                                                             |
|           W    W    AA    RRRRR   N    N  II  N    N   GGGG   !!!           |
|           W    W   A  A   R    R  NN   N  II  NN   N  G    G  !!!           |
|           W    W  A    A  R    R  N N  N  II  N N  N  G       !!!           |
|           W WW W  AAAAAA  RRRRR   N  N N  II  N  N N  G  GGG   !            |
|           WW  WW  A    A  R   R   N   NN  II  N   NN  G    G                |
|           W    W  A    A  R    R  N    N  II  N    N   GGGG   !!!           |
|                                                                             |
|     For optimal performance we recommend to set                             |
|       NCORE = 2 up to number-of-cores-per-socket                            |
|     NCORE specifies how many cores store one orbital (NPAR=cpu/NCORE).      |
|     This setting can greatly improve the performance of VASP for DFT.       |
|     The default, NCORE=1 might be grossly inefficient on modern             |
|     multi-core architectures or massively parallel machines. Do your        |
|     own testing! More info at https://www.vasp.at/wiki/index.php/NCORE      |
|     Unfortunately you need to use the default for GW and RPA                |
|     calculations (for HF NCORE is supported but not extensively tested      |
|     yet).                                                                   |
|                                                                             |
 -----------------------------------------------------------------------------

 POTCAR:    PAW_PBE Al 04Jan2001                  
   SHA256 =  17880443556af62b473fe41b62a467bd001ad55d2cabe504a3f22e34d4e9db96 Al/POTCAR             
   COPYR  = (c) Copyright 04Jan2001 Georg Kresse                                                    
   COPYR  = This file is part of the software VASP. Any use, copying, and all other rights are regul
   COPYR  = If you do not have a valid VASP license, you may not use, copy or distribute this file. 
   VRHFIN =Al: s2p1                                                                                 
   LEXCH  = PE                                                                                      
   EATOM  =    53.5387 eV,    3.9350 Ry                                                             
                                                                                                    
   TITEL  = PAW_PBE Al 04Jan2001                                                                    
   LULTRA =        F    use ultrasoft PP ?                                                          
   IUNSCR =        1    unscreen: 0-lin 1-nonlin 2-no                                               
   RPACOR =    1.500    partial core radius                                                         
   POMASS =   26.981; ZVAL   =    3.000    mass and valenz                                          
   RCORE  =    1.900    outmost cutoff radius                                                       
   RWIGS  =    2.650; RWIGS  =    1.402    wigner-seitz radius (au A)                               
   ENMAX  =  240.300; ENMIN  =  180.225 eV                                                          
   ICORE  =        2    local potential                                                             
   LCOR   =        T    correct aug charges                                                         
   LPAW   =        T    paw PP                                                                      
   EAUG   =  291.052                                                                                
   DEXC   =    0.000                                                                                
   RMAX   =    1.939    core radius for proj-oper                                                   
   RAUG   =    1.300    factor for augmentation sphere                                              
   RDEP   =    1.966    radius for radial grids                                                     
   RDEPT  =    1.856    core radius for aug-charge                                                  
                                                                                                    
   Atomic configuration                                                                             
    6 entries                                                                                       
     n  l   j            E        occ.                                                              
     1  0  0.50     -1511.1048   2.0000                                                             
     2  0  0.50      -108.1629   2.0000                                                             
     2  1  1.50       -69.6402   6.0000                                                             
     3  0  0.50        -7.7528   2.0000                                                             
     3  1  1.50        -2.7121   1.0000                                                             
     3  2  2.50        -2.7212   0.0000                                                             
   Description                                                                                      
     l       E           TYP  RCUT    TYP  RCUT                                                     
     0     -7.7528455     23  1.900                                                                 
     0     -3.3096929     23  1.900                                                                 
     1     -2.7120682     23  1.900                                                                 
     1     13.6058260     23  1.900                                                                 
     2     -2.7211652      7  1.900                                                                 
  local pseudopotential read in
  partial core-charges read in
  partial kinetic energy density read in
  atomic valenz-charges read in
  non local Contribution for L=           0  read in
    real space projection operators read in
  non local Contribution for L=           0  read in
    real space projection operators read in
  non local Contribution for L=           1  read in
    real space projection operators read in
  non local Contribution for L=           1  read in
    real space projection operators read in
    PAW grid and wavefunctions read in
 
   number of l-projection  operators is LMAX  =           4
   number of lm-projection operators is LMMAX =           8
 
  PAW_PBE Al 04Jan2001                  :
 energy of atom  1       EATOM=  -53.5387
 kinetic energy error for atom=    0.0002 (will be added to EATOM!!)
 
 
 POSCAR: Al4
  positions in direct lattice
  velocities in cartesian coordinates


 exchange-correlation table for PE
   RHO(1)=    0.500       N(1)  =     2000
   RHO(2)=  100.500       N(2)  =     4000
 


--------------------------------------------------------------------------------------------------------


 ion  position               nearest neighbor table
   1  0.000  0.000  0.000-   4 2.77   4 2.77   4 2.77   2 2.77   3 2.77   2 2.77   2 2.77   2 2.77
                             3 2.77   3 2.77   3 2.77   4 2.77
   2  0.000  0.500  0.500-   3 2.77   3 2.77   4 2.77   1 2.77   4 2.77   1 2.77   1 2.77   1 2.77
                             3 2.77   4 2.77   4 2.77   3 2.77
   3  0.500  0.000  0.500-   2 2.77   2 2.77   4 2.77   1 2.77   4 2.77   1 2.77   4 2.77   4 2.77
                             1 2.77   2 2.77   1 2.77   2 2.77
   4  0.500  0.500  0.000-   1 2.77   1 2.77   3 2.77   2 2.77   3 2.77   1 2.77   3 2.77   3 2.77
                             2 2.77   2 2.77   2 2.77   1 2.77
 
  LATTYP: Found a simple cubic cell.
 ALAT       =     3.9148676412
  
  Lattice vectors:
  
 A1 = (   3.9148676412,   0.0000000000,   0.0000000000)
 A2 = (   0.0000000000,   3.9148676412,   0.0000000000)
 A3 = (   0.0000000000,   0.0000000000,   3.9148676412)


Analysis of symmetry for initial positions (statically):
=====================================================================
 Subroutine PRICEL returns following result:
 
  LATTYP: Found a face centered cubic cell.
 ALAT       =     3.9148676412
  
  Lattice vectors:
  
 A1 = (   1.9574338206,  -1.9574338206,   0.0000000000)
 A2 = (   1.9574338206,   0.0000000000,   1.9574338206)
 A3 = (  -0.0000000000,  -1.9574338206,   1.9574338206)
 
   4 primitive cells build up your supercell.
 

 Routine SETGRP: Setting up the symmetry group for a 
 simple cubic supercell.


 Subroutine GETGRP returns: Found 48 space group operations
 (whereof 48 operations were pure point group operations)
 out of a pool of 48 trial point group operations.


The static configuration has the point symmetry O_h .


Analysis of symmetry for dynamics (positions and initial velocities):
=====================================================================
 Subroutine PRICEL returns following result:
 
  LATTYP: Found a face centered cubic cell.
 ALAT       =     3.9148676412
  
  Lattice vectors:
  
 A1 = (   1.9574338206,  -1.9574338206,   0.0000000000)
 A2 = (   1.9574338206,   0.0000000000,   1.9574338206)
 A3 = (  -0.0000000000,  -1.9574338206,   1.9574338206)
 
   4 primitive cells build up your supercell.
 

 Routine SETGRP: Setting up the symmetry group for a 
 simple cubic supercell.


 Subroutine GETGRP returns: Found 48 space group operations
 (whereof 48 operations were pure point group operations)
 out of a pool of 48 trial point group operations.


The dynamic configuration has the point symmetry O_h .


 Subroutine INISYM returns: Found 48 space group operations
 (whereof 48 operations are pure point group operations),
 and found     4 'primitive' translations


----------------------------------------------------------------------------------------

                                     Primitive cell                                     

  volume of cell :      15.0000

  direct lattice vectors                    reciprocal lattice vectors
     1.957433821 -1.957433821  0.000000000     0.255436477 -0.255436477 -0.255436477
     1.957433821  0.000000000  1.957433821     0.255436477  0.255436477  0.255436477
    -0.000000000 -1.957433821  1.957433821    -0.255436477 -0.255436477  0.255436477

  length of vectors
     2.768229457  2.768229457  2.768229457     0.442428957  0.442428957  0.442428957

  position of ions in fractional coordinates (direct lattice)
     0.000000000  0.000000000  0.000000000

  ion indices of the primitive-cell ions
   primitive index   ion index
                 1           1

----------------------------------------------------------------------------------------

 
 
 KPOINTS: pymatgen with grid density = 4001 / numb

Automatic generation of k-mesh.
 Grid dimensions read from file:
 generate k-points for:   10   10   10

 Generating k-lattice:

  Cartesian coordinates                     Fractional coordinates (reciprocal lattice)
     0.025543648 -0.000000000  0.000000000     0.100000000 -0.000000000  0.000000000
     0.000000000  0.025543648  0.000000000     0.000000000  0.100000000  0.000000000
    -0.000000000 -0.000000000  0.025543648    -0.000000000 -0.000000000  0.100000000

  Length of vectors
     0.025543648  0.025543648  0.025543648

  Shift w.r.t. Gamma in fractional coordinates (k-lattice)
     0.000000000  0.000000000  0.000000000

 TETIRR: Found    492 inequivalent tetrahedra from     6000
 
 Subroutine IBZKPT returns following result:
 ===========================================
 
 Found     56 irreducible k-points:
 
 Following reciprocal coordinates:
            Coordinates               Weight
  0.000000  0.000000  0.000000      1.000000
  0.100000  0.000000  0.000000      6.000000
  0.200000  0.000000  0.000000      6.000000
  0.300000  0.000000  0.000000      6.000000
  0.400000  0.000000  0.000000      6.000000
  0.500000  0.000000  0.000000      3.000000
  0.100000  0.100000  0.000000     12.000000
  0.200000  0.100000  0.000000     24.000000
  0.300000  0.100000  0.000000     24.000000
  0.400000  0.100000  0.000000     24.000000
  0.500000  0.100000  0.000000     12.000000
  0.200000  0.200000  0.000000     12.000000
  0.300000  0.200000  0.000000     24.000000
  0.400000  0.200000  0.000000     24.000000
  0.500000  0.200000  0.000000     12.000000
  0.300000  0.300000  0.000000     12.000000
  0.400000  0.300000  0.000000     24.000000
  0.500000  0.300000  0.000000     12.000000
  0.400000  0.400000  0.000000     12.000000
  0.500000  0.400000  0.000000     12.000000
  0.500000  0.500000  0.000000      3.000000
  0.100000  0.100000  0.100000      8.000000
  0.200000  0.100000  0.100000     24.000000
  0.300000  0.100000  0.100000     24.000000
  0.400000  0.100000  0.100000     24.000000
  0.500000  0.100000  0.100000     12.000000
  0.200000  0.200000  0.100000     24.000000
  0.300000  0.200000  0.100000     48.000000
  0.400000  0.200000  0.100000     48.000000
  0.500000  0.200000  0.100000     24.000000
  0.300000  0.300000  0.100000     24.000000
  0.400000  0.300000  0.100000     48.000000
  0.500000  0.300000  0.100000     24.000000
  0.400000  0.400000  0.100000     24.000000
  0.500000  0.400000  0.100000     24.000000
  0.500000  0.500000  0.100000      6.000000
  0.200000  0.200000  0.200000      8.000000
  0.300000  0.200000  0.200000     24.000000
  0.400000  0.200000  0.200000     24.000000
  0.500000  0.200000  0.200000     12.000000
  0.300000  0.300000  0.200000     24.000000
  0.400000  0.300000  0.200000     48.000000
  0.500000  0.300000  0.200000     24.000000
  0.400000  0.400000  0.200000     24.000000
  0.500000  0.400000  0.200000     24.000000
  0.500000  0.500000  0.200000      6.000000
  0.300000  0.300000  0.300000      8.000000
  0.400000  0.300000  0.300000     24.000000
  0.500000  0.300000  0.300000     12.000000
  0.400000  0.400000  0.300000     24.000000
  0.500000  0.400000  0.300000     24.000000
  0.500000  0.500000  0.300000      6.000000
  0.400000  0.400000  0.400000      8.000000
  0.500000  0.400000  0.400000     12.000000
  0.500000  0.500000  0.400000      6.000000
  0.500000  0.500000  0.500000      1.000000
 
 Following cartesian coordinates:
            Coordinates               Weight
  0.000000  0.000000  0.000000      1.000000
  0.025544  0.000000  0.000000      6.000000
  0.051087  0.000000  0.000000      6.000000
  0.076631  0.000000  0.000000      6.000000
  0.102175  0.000000  0.000000      6.000000
  0.127718  0.000000  0.000000      3.000000
  0.025544  0.025544  0.000000     12.000000
  0.051087  0.025544  0.000000     24.000000
  0.076631  0.025544  0.000000     24.000000
  0.102175  0.025544  0.000000     24.000000
  0.127718  0.025544  0.000000     12.000000
  0.051087  0.051087  0.000000     12.000000
  0.076631  0.051087  0.000000     24.000000
  0.102175  0.051087  0.000000     24.000000
  0.127718  0.051087  0.000000     12.000000
  0.076631  0.076631  0.000000     12.000000
  0.102175  0.076631  0.000000     24.000000
  0.127718  0.076631  0.000000     12.000000
  0.102175  0.102175  0.000000     12.000000
  0.127718  0.102175  0.000000     12.000000
  0.127718  0.127718  0.000000      3.000000
  0.025544  0.025544  0.025544      8.000000
  0.051087  0.025544  0.025544     24.000000
  0.076631  0.025544  0.025544     24.000000
  0.102175  0.025544  0.025544     24.000000
  0.127718  0.025544  0.025544     12.000000
  0.051087  0.051087  0.025544     24.000000
  0.076631  0.051087  0.025544     48.000000
  0.102175  0.051087  0.025544     48.000000
  0.127718  0.051087  0.025544     24.000000
  0.076631  0.076631  0.025544     24.000000
  0.102175  0.076631  0.025544     48.000000
  0.127718  0.076631  0.025544     24.000000
  0.102175  0.102175  0.025544     24.000000
  0.127718  0.102175  0.025544     24.000000
  0.127718  0.127718  0.025544      6.000000
  0.051087  0.051087  0.051087      8.000000
  0.076631  0.051087  0.051087     24.000000
  0.102175  0.051087  0.051087     24.000000
  0.127718  0.051087  0.051087     12.000000
  0.076631  0.076631  0.051087     24.000000
  0.102175  0.076631  0.051087     48.000000
  0.127718  0.076631  0.051087     24.000000
  0.102175  0.102175  0.051087     24.000000
  0.127718  0.102175  0.051087     24.000000
  0.127718  0.127718  0.051087      6.000000
  0.076631  0.076631  0.076631      8.000000
  0.102175  0.076631  0.076631     24.000000
  0.127718  0.076631  0.076631     12.000000
  0.102175  0.102175  0.076631     24.000000
  0.127718  0.102175  0.076631     24.000000
  0.127718  0.127718  0.076631      6.000000
  0.102175  0.102175  0.102175      8.000000
  0.127718  0.102175  0.102175     12.000000
  0.127718  0.127718  0.102175      6.000000
  0.127718  0.127718  0.127718      1.000000
 


--------------------------------------------------------------------------------------------------------




 Dimension of arrays:
   k-points           NKPTS =     56   k-points in BZ     NKDIM =     56   number of bands    NBANDS=     64
   number of dos      NEDOS =    301   number of ions     NIONS =      4
   non local maximal  LDIM  =      4   non local SUM 2l+1 LMDIM =      8
   total plane-waves  NPLWV =  27000
   max r-space proj   IRMAX =      1   max aug-charges    IRDMAX=  17711
   dimension x,y,z NGX =    30 NGY =   30 NGZ =   30
   dimension x,y,z NGXF=    60 NGYF=   60 NGZF=   60
   support grid    NGXF=    60 NGYF=   60 NGZF=   60
   ions per type =               4
   NGX,Y,Z   is equivalent  to a cutoff of  12.74, 12.74, 12.74 a.u.
   NGXF,Y,Z  is equivalent  to a cutoff of  25.48, 25.48, 25.48 a.u.

 SYSTEM =  unknown system                          
 POSCAR =  Al4                                     

 Startparameter for this run:
   NWRITE =      2    write-flag & timer
   PREC   = accura    normal or accurate (medium, high low for compatibility)
   ISTART =      0    job   : 0-new  1-cont  2-samecut
   ICHARG =      2    charge: 1-file 2-atom 10-const
   ISPIN  =      1    spin polarized calculation?
   LNONCOLLINEAR =      F non collinear calculations
   LSORBIT =      F    spin-orbit coupling
   INIWAV =      1    electr: 0-lowe 1-rand  2-diag
   LASPH  =      F    aspherical Exc in radial PAW
 Electronic Relaxation 1
   ENCUT  =  520.0 eV  38.22 Ry    6.18 a.u.   7.28  7.28  7.28*2*pi/ulx,y,z
   ENINI  =  520.0     initial cutoff
   ENAUG  =  291.1 eV  augmentation charge cutoff
   NELM   =    200;   NELMIN=  2; NELMDL=  0     # of ELM steps 
   EDIFF  = 0.1E-05   stopping-criterion for ELM
   LREAL  =      F    real-space projection
   NLSPLINE    = F    spline interpolate recip. space projectors
   LCOMPAT=      F    compatible to vasp.4.4
   GGA_COMPAT  = T    GGA compatible to vasp.4.4-vasp.4.6
   LMAXPAW     = -100 max onsite density
   LMAXMIX     =    2 max onsite mixed and CHGCAR
   VOSKOWN=      0    Vosko Wilk Nusair interpolation
   ROPT   =    0.00000
 Ionic relaxation
   EDIFFG = -.1E-01   stopping-criterion for IOM
   NSW    =      0    number of steps for IOM
   NBLOCK =      1;   KBLOCK =      1    inner block; outer block 
   IBRION =     -1    ionic relax: 0-MD 1-quasi-New 2-CG
   NFREE  =      0    steps in history (QN), initial steepest desc. (CG)
   ISIF   =      4    stress and relaxation
   IWAVPR =     10    prediction:  0-non 1-charg 2-wave 3-comb
   ISYM   =      2    0-nonsym 1-usesym 2-fastsym
   LCORR  =      T    Harris-Foulkes like correction to forces

   POTIM  = 0.5000    time-step for ionic-motion
   TEIN   =    0.0    initial temperature
   TEBEG  =    0.0;   TEEND  =   0.0 temperature during run
   SMASS  =  -3.00    Nose mass-parameter (am)
   estimated Nose-frequenzy (Omega)   =  0.10E-29 period in steps = 0.13E+47 mass=  -0.350E-27a.u.
   SCALEE = 1.0000    scale energy and forces
   NPACO  =    256;   APACO  = 10.0  distance and # of slots for P.C.
   PSTRESS=    0.0 pullay stress

  Mass of Ions in am
   POMASS =  26.98
  Ionic Valenz
   ZVAL   =   3.00
  Atomic Wigner-Seitz radii
   RWIGS  =  -1.00
  virtual crystal weights 
   VCA    =   1.00
   NELECT =      12.0000    total number of electrons
   NUPDOWN=      -1.0000    fix difference up-down

 DOS related values:
   EMIN   =  10.00;   EMAX   =-10.00  energy-range for DOS
   EFERMI =   0.00;   METHOD = LEGACY      
   ISMEAR =    -5;   SIGMA  =   0.20  broadening in eV -4-tet -1-fermi 0-gaus

 Electronic relaxation 2 (details)
   IALGO  =     38    algorithm
   LDIAG  =      T    sub-space diagonalisation (order eigenvalues)
   LSUBROT=      F    optimize rotation matrix (better conditioning)
   TURBO    =      0    0=normal 1=particle mesh
   IRESTART =      0    0=no restart 2=restart with 2 vectors
   NREBOOT  =      0    no. of reboots
   NMIN     =      0    reboot dimension
   EREF     =   0.00    reference energy to select bands
   IMIX   =      4    mixing-type and parameters
     AMIX     =   0.40;   BMIX     =  1.00
     AMIX_MAG =   1.60;   BMIX_MAG =  1.00
     AMIN     =   0.10
     WC   =   100.;   INIMIX=   1;  MIXPRE=   1;  MAXMIX= -45

 Intra band minimization:
   WEIMIN = 0.0000     energy-eigenvalue tresh-hold
   EBREAK =  0.39E-08  absolut break condition
   DEPER  =   0.30     relativ break condition  

   TIME   =   0.40     timestep for ELM

  volume/ion in A,a.u.               =      15.00       101.22
  Fermi-wavevector in a.u.,A,eV,Ry     =   0.957381  1.809188 12.470807  0.916578
  Thomas-Fermi vector in A             =   2.086394
 
 Write flags
   LWAVE        =      F    write WAVECAR
   LDOWNSAMPLE  =      F    k-point downsampling of WAVECAR
   LCHARG       =      F    write CHGCAR
   LVTOT        =      F    write LOCPOT, total local potential
   LVHAR        =      F    write LOCPOT, Hartree potential only
   WRT_POTENTIAL= false  ! write potential to hdf5 file
   LELF         =      F    write electronic localiz. function (ELF)
   LORBIT       =      0    0 simple, 1 ext, 2 COOP (PROOUT), +10 PAW based schemes


 Dipole corrections
   LMONO      =      F    monopole corrections only (constant potential shift)
   LDIPOL     =      F    correct potential (dipole corrections)
   IDIPOL     =      0    1-x, 2-y, 3-z, 4-all directions 
   EPSILON    =  1.0000000 bulk dielectric constant
   LVACPOTAV  =      F  vacuum potentials using an averaging scheme for the charge density
   VACPOTFLAT =  0.1000000 required flatness to determine vacuum potential
 Exchange correlation treatment:
   GGA     = PE    functional components
   XC_C    = 1    coefficients multiplying the functional components
   LIBXC   =     F    Libxc                    
   VOSKOWN =     0    Vosko Wilk Nusair interpolation
   LHFCALC =     F    Hartree Fock is set to
   LHFONE  =     F    Hartree Fock one center treatment
   AEXX    =    0.0000 exact exchange contribution

 Parameters of functionals:
   PE:
     No parameter
 
 Van der Waals corrections
   IVDW    =     0    specifies the selected vdW correction

 Linear response parameters
   LEPSILON=     F    determine dielectric tensor
   LRPA    =     F    only Hartree local field effects (RPA)
   LNABLA  =     F    use nabla operator in PAW spheres
   LVEL    =     F    velocity operator in full k-point grid
   CSHIFT  =0.1000    complex shift for real part using Kramers Kronig
   OMEGAMAX=  -1.0    maximum frequency
   DEG_THRESHOLD= 0.2000000E-02 threshold for treating states as degnerate
   RTIME   =   -0.100 relaxation time in fs
  (WPLASMAI=    0.000 imaginary part of plasma frequency in eV, 0.658/RTIME)
   DFIELD  = 0.0000000 0.0000000 0.0000000 field for delta impulse in time
 
  Optional k-point grid parameters
   LKPOINTS_OPT  =     F    use optional k-point grid
   KPOINTS_OPT_MODE=     1    mode for optional k-point grid
 
 Orbital magnetization related:
   ORBITALMAG=     F  switch on orbital magnetization
   LCHIMAG   =     F  perturbation theory with respect to B field
   DQ        =  0.001000  dq finite difference perturbation B field
   LLRAUG    =     F  two centre corrections for induced B field
   LBONE     =     F  B-component reconstruction in AE one-centre
   LVGVCALC  =     T  calculate vGv susceptibility
   LVGVAPPL  =     F  apply vGv susceptibility instead of pGv for G=0

 Random number generation:
   RANDOM_GENERATOR = DEFAULT
   PCG_SEED         = not used


--------------------------------------------------------------------------------------------------------


 Static calculation
 charge density and potential will be updated during run
 non-spin polarized calculation
 Variant of blocked Davidson
 Davidson routine will perform the subspace rotation
 perform sub-space diagonalisation
    after iterative eigenvector-optimisation
 modified Broyden-mixing scheme, WC =      100.0
 initial mixing is a Kerker type mixing with AMIX =  0.4000 and BMIX =      1.0000
 Hartree-type preconditioning will be used
 using additional bands           58
 reciprocal scheme for non local part
 use partial core corrections
 calculate Harris-corrections to forces 
   (improved forces if not selfconsistent)
 use gradient corrections 
 use of overlap-Matrix (Vanderbilt PP)
 Fermi weights with tetrahedron method with Bloechl corrections


--------------------------------------------------------------------------------------------------------


  energy-cutoff  :      520.00
  volume of cell :       60.00
      direct lattice vectors                 reciprocal lattice vectors
     3.914867641  0.000000000  0.000000000     0.255436477 -0.000000000  0.000000000
     0.000000000  3.914867641  0.000000000     0.000000000  0.255436477  0.000000000
     0.000000000  0.000000000  3.914867641    -0.000000000 -0.000000000  0.255436477

  length of vectors
     3.914867641  3.914867641  3.914867641     0.255436477  0.255436477  0.255436477


 
 k-points in units of 2pi/SCALE and weight: pymatgen with grid density = 4001 / numb
   0.00000000  0.00000000  0.00000000       0.001
   0.02554365  0.00000000  0.00000000       0.006
   0.05108730  0.00000000  0.00000000       0.006
   0.07663094  0.00000000  0.00000000       0.006
   0.10217459  0.00000000  0.00000000       0.006
   0.12771824  0.00000000  0.00000000       0.003
   0.02554365  0.02554365  0.00000000       0.012
   0.05108730  0.02554365  0.00000000       0.024
   0.07663094  0.02554365  0.00000000       0.024
   0.10217459  0.02554365  0.00000000       0.024
   0.12771824  0.02554365  0.00000000       0.012
   0.05108730  0.05108730  0.00000000       0.012
   0.07663094  0.05108730  0.00000000       0.024
   0.10217459  0.05108730  0.00000000       0.024
   0.12771824  0.05108730  0.00000000       0.012
   0.07663094  0.07663094  0.00000000       0.012
   0.10217459  0.07663094  0.00000000       0.024
   0.12771824  0.07663094  0.00000000       0.012
   0.10217459  0.10217459  0.00000000       0.012
   0.12771824  0.10217459  0.00000000       0.012
   0.12771824  0.12771824  0.00000000       0.003
   0.02554365  0.02554365  0.02554365       0.008
   0.05108730  0.02554365  0.02554365       0.024
   0.07663094  0.02554365  0.02554365       0.024
   0.10217459  0.02554365  0.02554365       0.024
   0.12771824  0.02554365  0.02554365       0.012
   0.05108730  0.05108730  0.02554365       0.024
   0.07663094  0.05108730  0.02554365       0.048
   0.10217459  0.05108730  0.02554365       0.048
   0.12771824  0.05108730  0.02554365       0.024
   0.07663094  0.07663094  0.02554365       0.024
   0.10217459  0.07663094  0.02554365       0.048
   0.12771824  0.07663094  0.02554365       0.024
   0.10217459  0.10217459  0.02554365       0.024
   0.12771824  0.10217459  0.02554365       0.024
   0.12771824  0.12771824  0.02554365       0.006
   0.05108730  0.05108730  0.05108730       0.008
   0.07663094  0.05108730  0.05108730       0.024
   0.10217459  0.05108730  0.05108730       0.024
   0.12771824  0.05108730  0.05108730       0.012
   0.07663094  0.07663094  0.05108730       0.024
   0.10217459  0.07663094  0.05108730       0.048
   0.12771824  0.07663094  0.05108730       0.024
   0.10217459  0.10217459  0.05108730       0.024
   0.12771824  0.10217459  0.05108730       0.024
   0.12771824  0.12771824  0.05108730       0.006
   0.07663094  0.07663094  0.07663094       0.008
   0.10217459  0.07663094  0.07663094       0.024
   0.12771824  0.07663094  0.07663094       0.012
   0.10217459  0.10217459  0.07663094       0.024
   0.12771824  0.10217459  0.07663094       0.024
   0.12771824  0.12771824  0.07663094       0.006
   0.10217459  0.10217459  0.10217459       0.008
   0.12771824  0.10217459  0.10217459       0.012
   0.12771824  0.12771824  0.10217459       0.006
   0.12771824  0.12771824  0.12771824       0.001
 
 k-points in reciprocal lattice and weights: pymatgen with grid density = 4001 / numb
   0.00000000  0.00000000  0.00000000       0.001
   0.10000000  0.00000000  0.00000000       0.006
   0.20000000  0.00000000  0.00000000       0.006
   0.30000000  0.00000000  0.00000000       0.006
   0.40000000  0.00000000  0.00000000       0.006
   0.50000000  0.00000000  0.00000000       0.003
   0.10000000  0.10000000  0.00000000       0.012
   0.20000000  0.10000000  0.00000000       0.024
   0.30000000  0.10000000  0.00000000       0.024
   0.40000000  0.10000000  0.00000000       0.024
   0.50000000  0.10000000  0.00000000       0.012
   0.20000000  0.20000000  0.00000000       0.012
   0.30000000  0.20000000  0.00000000       0.024
   0.40000000  0.20000000  0.00000000       0.024
   0.50000000  0.20000000  0.00000000       0.012
   0.30000000  0.30000000  0.00000000       0.012
   0.40000000  0.30000000  0.00000000       0.024
   0.50000000  0.30000000  0.00000000       0.012
   0.40000000  0.40000000  0.00000000       0.012
   0.50000000  0.40000000  0.00000000       0.012
   0.50000000  0.50000000  0.00000000       0.003
   0.10000000  0.10000000  0.10000000       0.008
   0.20000000  0.10000000  0.10000000       0.024
   0.30000000  0.10000000  0.10000000       0.024
   0.40000000  0.10000000  0.10000000       0.024
   0.50000000  0.10000000  0.10000000       0.012
   0.20000000  0.20000000  0.10000000       0.024
   0.30000000  0.20000000  0.10000000       0.048
   0.40000000  0.20000000  0.10000000       0.048
   0.50000000  0.20000000  0.10000000       0.024
   0.30000000  0.30000000  0.10000000       0.024
   0.40000000  0.30000000  0.10000000       0.048
   0.50000000  0.30000000  0.10000000       0.024
   0.40000000  0.40000000  0.10000000       0.024
   0.50000000  0.40000000  0.10000000       0.024
   0.50000000  0.50000000  0.10000000       0.006
   0.20000000  0.20000000  0.20000000       0.008
   0.30000000  0.20000000  0.20000000       0.024
   0.40000000  0.20000000  0.20000000       0.024
   0.50000000  0.20000000  0.20000000       0.012
   0.30000000  0.30000000  0.20000000       0.024
   0.40000000  0.30000000  0.20000000       0.048
   0.50000000  0.30000000  0.20000000       0.024
   0.40000000  0.40000000  0.20000000       0.024
   0.50000000  0.40000000  0.20000000       0.024
   0.50000000  0.50000000  0.20000000       0.006
   0.30000000  0.30000000  0.30000000       0.008
   0.40000000  0.30000000  0.30000000       0.024
   0.50000000  0.30000000  0.30000000       0.012
   0.40000000  0.40000000  0.30000000       0.024
   0.50000000  0.40000000  0.30000000       0.024
   0.50000000  0.50000000  0.30000000       0.006
   0.40000000  0.40000000  0.40000000       0.008
   0.50000000  0.40000000  0.40000000       0.012
   0.50000000  0.50000000  0.40000000       0.006
   0.50000000  0.50000000  0.50000000       0.001
 
 position of ions in fractional coordinates (direct lattice) 
   0.00000000  0.00000000  0.00000000
   0.00000000  0.50000000  0.50000000
   0.50000000  0.00000000  0.50000000
   0.50000000  0.50000000  0.00000000
 
 position of ions in cartesian coordinates  (Angst):
   0.00000000  0.00000000  0.00000000
   0.00000000  1.95743382  1.95743382
   1.95743382  0.00000000  1.95743382
   1.95743382  1.95743382  0.00000000
 


--------------------------------------------------------------------------------------------------------


 k-point     1 :   0.0000 0.0000 0.0000  plane waves:    1575
 k-point     2 :   0.1000 0.0000 0.0000  plane waves:    1615
 k-point     3 :   0.2000 0.0000 0.0000  plane waves:    1615
 k-point     4 :   0.3000 0.0000 0.0000  plane waves:    1622
 k-point     5 :   0.4000 0.0000 0.0000  plane waves:    1618
 k-point     6 :   0.5000 0.0000 0.0000  plane waves:    1622
 k-point     7 :   0.1000 0.1000 0.0000  plane waves:    1627
 k-point     8 :   0.2000 0.1000 0.0000  plane waves:    1622
 k-point     9 :   0.3000 0.1000 0.0000  plane waves:    1611
 k-point    10 :   0.4000 0.1000 0.0000  plane waves:    1617
 k-point    11 :   0.5000 0.1000 0.0000  plane waves:    1614
 k-point    12 :   0.2000 0.2000 0.0000  plane waves:    1624
 k-point    13 :   0.3000 0.2000 0.0000  plane waves:    1608
 k-point    14 :   0.4000 0.2000 0.0000  plane waves:    1609
 k-point    15 :   0.5000 0.2000 0.0000  plane waves:    1614
 k-point    16 :   0.3000 0.3000 0.0000  plane waves:    1610
 k-point    17 :   0.4000 0.3000 0.0000  plane waves:    1619
 k-point    18 :   0.5000 0.3000 0.0000  plane waves:    1618
 k-point    19 :   0.4000 0.4000 0.0000  plane waves:    1620
 k-point    20 :   0.5000 0.4000 0.0000  plane waves:    1616
 k-point    21 :   0.5000 0.5000 0.0000  plane waves:    1628
 k-point    22 :   0.1000 0.1000 0.1000  plane waves:    1635
 k-point    23 :   0.2000 0.1000 0.1000  plane waves:    1618
 k-point    24 :   0.3000 0.1000 0.1000  plane waves:    1628
 k-point    25 :   0.4000 0.1000 0.1000  plane waves:    1617
 k-point    26 :   0.5000 0.1000 0.1000  plane waves:    1610
 k-point    27 :   0.2000 0.2000 0.1000  plane waves:    1618
 k-point    28 :   0.3000 0.2000 0.1000  plane waves:    1618
 k-point    29 :   0.4000 0.2000 0.1000  plane waves:    1608
 k-point    30 :   0.5000 0.2000 0.1000  plane waves:    1610
 k-point    31 :   0.3000 0.3000 0.1000  plane waves:    1602
 k-point    32 :   0.4000 0.3000 0.1000  plane waves:    1612
 k-point    33 :   0.5000 0.3000 0.1000  plane waves:    1612
 k-point    34 :   0.4000 0.4000 0.1000  plane waves:    1618
 k-point    35 :   0.5000 0.4000 0.1000  plane waves:    1620
 k-point    36 :   0.5000 0.5000 0.1000  plane waves:    1632
 k-point    37 :   0.2000 0.2000 0.2000  plane waves:    1623
 k-point    38 :   0.3000 0.2000 0.2000  plane waves:    1622
 k-point    39 :   0.4000 0.2000 0.2000  plane waves:    1607
 k-point    40 :   0.5000 0.2000 0.2000  plane waves:    1610
 k-point    41 :   0.3000 0.3000 0.2000  plane waves:    1616
 k-point    42 :   0.4000 0.3000 0.2000  plane waves:    1614
 k-point    43 :   0.5000 0.3000 0.2000  plane waves:    1620
 k-point    44 :   0.4000 0.4000 0.2000  plane waves:    1612
 k-point    45 :   0.5000 0.4000 0.2000  plane waves:    1618
 k-point    46 :   0.5000 0.5000 0.2000  plane waves:    1624
 k-point    47 :   0.3000 0.3000 0.3000  plane waves:    1610
 k-point    48 :   0.4000 0.3000 0.3000  plane waves:    1620
 k-point    49 :   0.5000 0.3000 0.3000  plane waves:    1622
 k-point    50 :   0.4000 0.4000 0.3000  plane waves:    1606
 k-point    51 :   0.5000 0.4000 0.3000  plane waves:    1612
 k-point    52 :   0.5000 0.5000 0.3000  plane waves:    1604
 k-point    53 :   0.4000 0.4000 0.4000  plane waves:    1628
 k-point    54 :   0.5000 0.4000 0.4000  plane waves:    1626
 k-point    55 :   0.5000 0.5000 0.4000  plane waves:    1604
 k-point    56 :   0.5000 0.5000 0.5000  plane waves:    1640

 maximum and minimum number of plane-waves per node :      1640     1575

 maximum number of plane-waves:      1640
 maximum index in each direction: 
   IXMAX=    7   IYMAX=    7   IZMAX=    7
   IXMIN=   -7   IYMIN=   -7   IZMIN=   -7


 serial   3D FFT for wavefunctions
 parallel 3D FFT for charge:
    minimum data exchange during FFTs selected (reduces bandwidth)


 total amount of memory used by VASP MPI-rank0    39156. kBytes
=======================================================================

   base      :      30000. kBytes
   nonl-proj :       6070. kBytes
   fftplans  :        255. kBytes
   grid      :       1271. kBytes
   one-center:         12. kBytes
   wavefun   :       1548. kBytes
 
     INWAV:  cpu time      0.0000: real time      0.0000
 Broyden mixing: mesh for mixing (old mesh)
   NGX = 15   NGY = 15   NGZ = 15
  (NGX  = 60   NGY  = 60   NGZ  = 60)
  gives a total of   3375 points

 initial charge density was supplied:
 charge density of overlapping atoms calculated
 number of electron      12.0000000 magnetization 
 keeping initial charge density in first step


--------------------------------------------------------------------------------------------------------


 Maximum index for augmentation-charges          793 (set IRDMAX)


--------------------------------------------------------------------------------------------------------


 First call to EWALD:  gamma=   0.453
 Maximum number of real-space cells 3x 3x 3
 Maximum number of reciprocal cells 3x 3x 3

    FEWALD:  cpu time      0.0029: real time      0.0029


--------------------------------------- Ionic step        1  -------------------------------------------




--------------------------------------- Iteration      1(   1)  ---------------------------------------


    POTLOK:  cpu time      0.0100: real time      0.0152
    SETDIJ:  cpu time      0.0040: real time      0.0043
     EDDAV:  cpu time      2.6835: real time      2.7004
 BZINTS: Fermi energy:    9.605090;   12.000000 electrons
         Band energy: 0.561522E+02;  BLOECHL correction:   -0.239600
       DOS:  cpu time      0.0133: real time      0.0140
    --------------------------------------------
      LOOP:  cpu time      2.7108: real time      2.7339

 eigenvalue-minimisations  :  7168
 total energy-change (2. order) :-0.1088623E+02  (-0.4668673E+03)
 number of electron      12.0000000 magnetization 
 augmentation part       12.0000000 magnetization 

 Free energy of the ion-electron system (eV)
  ---------------------------------------------------
  alpha Z        PSCENC =        -0.89568264
  Ewald energy   TEWEN  =      -303.55526842
  -Hartree energ DENC   =        -0.29862699
  -exchange      EXHF   =         0.00000000
  -V(xc)+E(xc)   XCENC  =      -104.26079551
  PAW double counting   =       264.80062850     -136.98248303
  entropy T*S    EENTRO =         0.00000000
  eigenvalues    EBANDS =        56.15216521
  atomic energy  EATOM  =       214.15382826
  Solvation  Ediel_sol  =         0.00000000
  ---------------------------------------------------
  free energy    TOTEN  =       -10.88623461 eV

  energy without entropy =      -10.88623461  energy(sigma->0) =      -10.88623461


--------------------------------------------------------------------------------------------------------




--------------------------------------- Iteration      1(   2)  ---------------------------------------


     EDDAV:  cpu time      5.6954: real time      5.7311
 BZINTS: Fermi energy:    9.028584;   12.000000 electrons
         Band energy: 0.521335E+02;  BLOECHL correction:   -0.243109
       DOS:  cpu time      0.0107: real time      0.0108
    --------------------------------------------
      LOOP:  cpu time      5.7061: real time      5.7418

 eigenvalue-minimisations  : 10816
 total energy-change (2. order) :-0.4018654E+01  (-0.4000285E+01)
 number of electron      12.0000000 magnetization 
 augmentation part       12.0000000 magnetization 

 Free energy of the ion-electron system (eV)
  ---------------------------------------------------
  alpha Z        PSCENC =        -0.89568264
  Ewald energy   TEWEN  =      -303.55526842
  -Hartree energ DENC   =        -0.29862699
  -exchange      EXHF   =         0.00000000
  -V(xc)+E(xc)   XCENC  =      -104.26079551
  PAW double counting   =       264.80062850     -136.98248303
  entropy T*S    EENTRO =         0.00000000
  eigenvalues    EBANDS =        52.13351109
  atomic energy  EATOM  =       214.15382826
  Solvation  Ediel_sol  =         0.00000000
  ---------------------------------------------------
  free energy    TOTEN  =       -14.90488873 eV

  energy without entropy =      -14.90488873  energy(sigma->0) =      -14.90488873


--------------------------------------------------------------------------------------------------------




--------------------------------------- Iteration      1(   3)  ---------------------------------------


     EDDAV:  cpu time      2.7012: real time      2.7181
 BZINTS: Fermi energy:    9.028287;   12.000000 electrons
         Band energy: 0.521318E+02;  BLOECHL correction:   -0.243117
       DOS:  cpu time      0.0105: real time      0.0106
    --------------------------------------------
      LOOP:  cpu time      2.7117: real time      2.7287

 eigenvalue-minimisations  :  7168
 total energy-change (2. order) :-0.1732389E-02  (-0.1721377E-02)
 number of electron      12.0000000 magnetization 
 augmentation part       12.0000000 magnetization 

 Free energy of the ion-electron system (eV)
  ---------------------------------------------------
  alpha Z        PSCENC =        -0.89568264
  Ewald energy   TEWEN  =      -303.55526842
  -Hartree energ DENC   =        -0.29862699
  -exchange      EXHF   =         0.00000000
  -V(xc)+E(xc)   XCENC  =      -104.26079551
  PAW double counting   =       264.80062850     -136.98248303
  entropy T*S    EENTRO =         0.00000000
  eigenvalues    EBANDS =        52.13177870
  atomic energy  EATOM  =       214.15382826
  Solvation  Ediel_sol  =         0.00000000
  ---------------------------------------------------
  free energy    TOTEN  =       -14.90662112 eV

  energy without entropy =      -14.90662112  energy(sigma->0) =      -14.90662112


--------------------------------------------------------------------------------------------------------




--------------------------------------- Iteration      1(   4)  ---------------------------------------


     EDDAV:  cpu time     10.6762: real time     10.7498
 BZINTS: Fermi energy:    9.028287;   12.000000 electrons
         Band energy: 0.521318E+02;  BLOECHL correction:   -0.243117
       DOS:  cpu time      0.0108: real time      0.0118
    --------------------------------------------
      LOOP:  cpu time     10.6869: real time     10.7616

 eigenvalue-minimisations  : 14272
 total energy-change (2. order) :-0.8420805E-06  (-0.8314096E-06)
 number of electron      12.0000000 magnetization 
 augmentation part       12.0000000 magnetization 

 Free energy of the ion-electron system (eV)
  ---------------------------------------------------
  alpha Z        PSCENC =        -0.89568264
  Ewald energy   TEWEN  =      -303.55526842
  -Hartree energ DENC   =        -0.29862699
  -exchange      EXHF   =         0.00000000
  -V(xc)+E(xc)   XCENC  =      -104.26079551
  PAW double counting   =       264.80062850     -136.98248303
  entropy T*S    EENTRO =         0.00000000
  eigenvalues    EBANDS =        52.13177786
  atomic energy  EATOM  =       214.15382826
  Solvation  Ediel_sol  =         0.00000000
  ---------------------------------------------------
  free energy    TOTEN  =       -14.90662196 eV

  energy without entropy =      -14.90662196  energy(sigma->0) =      -14.90662196


--------------------------------------------------------------------------------------------------------




--------------------------------------- Iteration      1(   5)  ---------------------------------------


     EDDAV:  cpu time      2.9088: real time      2.9267
 BZINTS: Fermi energy:    9.028287;   12.000000 electrons
         Band energy: 0.521318E+02;  BLOECHL correction:   -0.243117
       DOS:  cpu time      0.0110: real time      0.0111
    CHARGE:  cpu time      0.0286: real time      0.0294
    MIXING:  cpu time      0.0023: real time      0.0024
    --------------------------------------------
      LOOP:  cpu time      2.9507: real time      2.9696

 eigenvalue-minimisations  :  7168
 total energy-change (2. order) : 0.8378152E-09  (-0.1479995E-12)
 number of electron      12.0000000 magnetization 
 augmentation part       -0.1416520 magnetization 

 Broyden mixing:
  rms(total) = 0.29574E+00    rms(broyden)= 0.29574E+00
  rms(prec ) = 0.49945E+00
  weight for this iteration     100.00

 Free energy of the ion-electron system (eV)
  ---------------------------------------------------
  alpha Z        PSCENC =        -0.89568264
  Ewald energy   TEWEN  =      -303.55526842
  -Hartree energ DENC   =        -0.29862699
  -exchange      EXHF   =         0.00000000
  -V(xc)+E(xc)   XCENC  =      -104.26079551
  PAW double counting   =       264.80062850     -136.98248303
  entropy T*S    EENTRO =         0.00000000
  eigenvalues    EBANDS =        52.13177786
  atomic energy  EATOM  =       214.15382826
  Solvation  Ediel_sol  =         0.00000000
  ---------------------------------------------------
  free energy    TOTEN  =       -14.90662196 eV

  energy without entropy =      -14.90662196  energy(sigma->0) =      -14.90662196


--------------------------------------------------------------------------------------------------------




--------------------------------------- Iteration      1(   6)  ---------------------------------------


    POTLOK:  cpu time      0.0131: real time      0.0135
    SETDIJ:  cpu time      0.0012: real time      0.0012
     EDDAV:  cpu time      6.3210: real time      6.3565
 BZINTS: Fermi energy:    9.021413;   12.000000 electrons
         Band energy: 0.520608E+02;  BLOECHL correction:   -0.243176
       DOS:  cpu time      0.0119: real time      0.0119
    CHARGE:  cpu time      0.0246: real time      0.0250
    MIXING:  cpu time      0.0014: real time      0.0014
    --------------------------------------------
      LOOP:  cpu time      6.3732: real time      6.4096

 eigenvalue-minimisations  : 11008
 total energy-change (2. order) : 0.5705316E-01  (-0.4919274E-03)
 number of electron      12.0000000 magnetization 
 augmentation part       -0.1434929 magnetization 

 Broyden mixing:
  rms(total) = 0.17166E+00    rms(broyden)= 0.17166E+00
  rms(prec ) = 0.30512E+00
  weight for this iteration     100.00

 eigenvalues of (default mixing * dielectric matrix)
  average eigenvalue GAMMA=   2.3423
  2.3423

 Free energy of the ion-electron system (eV)
  ---------------------------------------------------
  alpha Z        PSCENC =        -0.89568264
  Ewald energy   TEWEN  =      -303.55526842
  -Hartree energ DENC   =        -0.30220251
  -exchange      EXHF   =         0.00000000
  -V(xc)+E(xc)   XCENC  =      -104.08889754
  PAW double counting   =       411.91104477     -284.13318730
  entropy T*S    EENTRO =         0.00000000
  eigenvalues    EBANDS =        52.06079658
  atomic energy  EATOM  =       214.15382826
  Solvation  Ediel_sol  =         0.00000000
  ---------------------------------------------------
  free energy    TOTEN  =       -14.84956881 eV

  energy without entropy =      -14.84956881  energy(sigma->0) =      -14.84956881


--------------------------------------------------------------------------------------------------------




--------------------------------------- Iteration      1(   7)  ---------------------------------------


    POTLOK:  cpu time      0.0133: real time      0.0137
    SETDIJ:  cpu time      0.0012: real time      0.0012
     EDDAV:  cpu time      6.6914: real time      6.7284
 BZINTS: Fermi energy:    9.016042;   12.000000 electrons
         Band energy: 0.520213E+02;  BLOECHL correction:   -0.243571
       DOS:  cpu time      0.0108: real time      0.0109
    CHARGE:  cpu time      0.0247: real time      0.0247
    MIXING:  cpu time      0.0010: real time      0.0010
    --------------------------------------------
      LOOP:  cpu time      6.7424: real time      6.7800

 eigenvalue-minimisations  : 11392
 total energy-change (2. order) : 0.4079115E-01  (-0.1427244E-02)
 number of electron      12.0000000 magnetization 
 augmentation part       -0.1472090 magnetization 

 Broyden mixing:
  rms(total) = 0.29705E-01    rms(broyden)= 0.29705E-01
  rms(prec ) = 0.32367E-01
  weight for this iteration     100.00

 eigenvalues of (default mixing * dielectric matrix)
  average eigenvalue GAMMA=   3.1026
  2.7559  3.4492

 Free energy of the ion-electron system (eV)
  ---------------------------------------------------
  alpha Z        PSCENC =        -0.89568264
  Ewald energy   TEWEN  =      -303.55526842
  -Hartree energ DENC   =        -0.47378328
  -exchange      EXHF   =         0.00000000
  -V(xc)+E(xc)   XCENC  =      -103.76553382
  PAW double counting   =       722.65878674     -594.95242976
  entropy T*S    EENTRO =         0.00000000
  eigenvalues    EBANDS =        52.02130526
  atomic energy  EATOM  =       214.15382826
  Solvation  Ediel_sol  =         0.00000000
  ---------------------------------------------------
  free energy    TOTEN  =       -14.80877766 eV

  energy without entropy =      -14.80877766  energy(sigma->0) =      -14.80877766


--------------------------------------------------------------------------------------------------------




--------------------------------------- Iteration      1(   8)  ---------------------------------------


    POTLOK:  cpu time      0.0128: real time      0.0131
    SETDIJ:  cpu time      0.0012: real time      0.0012
     EDDAV:  cpu time      5.9282: real time      5.9612
 BZINTS: Fermi energy:    9.016159;   12.000000 electrons
         Band energy: 0.520251E+02;  BLOECHL correction:   -0.243604
       DOS:  cpu time      0.0107: real time      0.0108
    CHARGE:  cpu time      0.0245: real time      0.0245
    MIXING:  cpu time      0.0003: real time      0.0003
    --------------------------------------------
      LOOP:  cpu time      5.9776: real time      6.0112

 eigenvalue-minimisations  : 10304
 total energy-change (2. order) : 0.1062135E-03  (-0.4825299E-05)
 number of electron      12.0000000 magnetization 
 augmentation part       -0.1475036 magnetization 

 Broyden mixing:
  rms(total) = 0.95980E-02    rms(broyden)= 0.95980E-02
  rms(prec ) = 0.10381E-01
  weight for this iteration     100.00

 eigenvalues of (default mixing * dielectric matrix)
  average eigenvalue GAMMA=   2.0918
  1.0549  2.5239  2.6966

 Free energy of the ion-electron system (eV)
  ---------------------------------------------------
  alpha Z        PSCENC =        -0.89568264
  Ewald energy   TEWEN  =      -303.55526842
  -Hartree energ DENC   =        -0.49197702
  -exchange      EXHF   =         0.00000000
  -V(xc)+E(xc)   XCENC  =      -103.74291868
  PAW double counting   =       647.45720343     -519.75894357
  entropy T*S    EENTRO =         0.00000000
  eigenvalues    EBANDS =        52.02508719
  atomic energy  EATOM  =       214.15382826
  Solvation  Ediel_sol  =         0.00000000
  ---------------------------------------------------
  free energy    TOTEN  =       -14.80867144 eV

  energy without entropy =      -14.80867144  energy(sigma->0) =      -14.80867144


--------------------------------------------------------------------------------------------------------




--------------------------------------- Iteration      1(   9)  ---------------------------------------


    POTLOK:  cpu time      0.0114: real time      0.0131
    SETDIJ:  cpu time      0.0011: real time      0.0011
     EDDAV:  cpu time      8.8479: real time      8.8955
 BZINTS: Fermi energy:    9.016085;   12.000000 electrons
         Band energy: 0.520244E+02;  BLOECHL correction:   -0.243610
       DOS:  cpu time      0.0108: real time      0.0108
    CHARGE:  cpu time      0.0247: real time      0.0248
    MIXING:  cpu time      0.0003: real time      0.0003
    --------------------------------------------
      LOOP:  cpu time      8.8962: real time      8.9457

 eigenvalue-minimisations  : 12736
 total energy-change (2. order) :-0.1913013E-05  (-0.3354147E-06)
 number of electron      12.0000000 magnetization 
 augmentation part       -0.1475414 magnetization 

 Broyden mixing:
  rms(total) = 0.16544E-03    rms(broyden)= 0.16544E-03
  rms(prec ) = 0.19558E-03
  weight for this iteration     100.00

 eigenvalues of (default mixing * dielectric matrix)
  average eigenvalue GAMMA=   2.1243
  0.9935  2.6168  2.6168  2.2702

 Free energy of the ion-electron system (eV)
  ---------------------------------------------------
  alpha Z        PSCENC =        -0.89568264
  Ewald energy   TEWEN  =      -303.55526842
  -Hartree energ DENC   =        -0.49492519
  -exchange      EXHF   =         0.00000000
  -V(xc)+E(xc)   XCENC  =      -103.73906262
  PAW double counting   =       666.97149096     -539.27345898
  entropy T*S    EENTRO =         0.00000000
  eigenvalues    EBANDS =        52.02440528
  atomic energy  EATOM  =       214.15382826
  Solvation  Ediel_sol  =         0.00000000
  ---------------------------------------------------
  free energy    TOTEN  =       -14.80867336 eV

  energy without entropy =      -14.80867336  energy(sigma->0) =      -14.80867336


--------------------------------------------------------------------------------------------------------




--------------------------------------- Iteration      1(  10)  ---------------------------------------


    POTLOK:  cpu time      0.0126: real time      0.0129
    SETDIJ:  cpu time      0.0012: real time      0.0012
     EDDAV:  cpu time      3.7129: real time      3.7347
 BZINTS: Fermi energy:    9.016081;   12.000000 electrons
         Band energy: 0.520243E+02;  BLOECHL correction:   -0.243610
       DOS:  cpu time      0.0107: real time      0.0108
    --------------------------------------------
      LOOP:  cpu time      3.7374: real time      3.7597

 eigenvalue-minimisations  :  7808
 total energy-change (2. order) : 0.4098829E-06  (-0.4751808E-09)
 number of electron      12.0000000 magnetization 
 augmentation part       -0.1475414 magnetization 

 Free energy of the ion-electron system (eV)
  ---------------------------------------------------
  alpha Z        PSCENC =        -0.89568264
  Ewald energy   TEWEN  =      -303.55526842
  -Hartree energ DENC   =        -0.49492694
  -exchange      EXHF   =         0.00000000
  -V(xc)+E(xc)   XCENC  =      -103.73904933
  PAW double counting   =       666.87029333     -539.17221574
  entropy T*S    EENTRO =         0.00000000
  eigenvalues    EBANDS =        52.02434854
  atomic energy  EATOM  =       214.15382826
  Solvation  Ediel_sol  =         0.00000000
  ---------------------------------------------------
  free energy    TOTEN  =       -14.80867295 eV

  energy without entropy =      -14.80867295  energy(sigma->0) =      -14.80867295


--------------------------------------------------------------------------------------------------------




 average (electrostatic) potential at core
  the test charge radii are     1.0406
  (the norm of the test charge is              1.0000)
       1 -71.4600       2 -71.4600       3 -71.4600       4 -71.4600
 
 
 
 E-fermi :   9.0161     XC(G=0): -10.5467     alpha+bet :-16.3640

 val. band max:        9.3484006222   @ k =   0.2000   0.2000   0.2000
 cond. band min:       8.7816928832   @ k =   0.1000   0.1000   0.0000
 fundamental gap:     -0.5667077390
 Fermi energy:         9.0160805031

 k-point     1 :       0.0000    0.0000    0.0000
  band No.  band energies     occupation 
      1      -2.7787      2.00000
      2       5.8766      2.00000
      3       5.8766      2.00000
      4       5.8766      2.00000
      5       7.3970      2.00000
      6       7.3970      2.00000
      7       7.3970      2.00000
      8      14.3082      0.00000
      9      14.3082      0.00000
     10      14.3082      0.00000
     11      15.0924      0.00000
     12      15.0924      0.00000
     13      15.0924      0.00000
     14      15.0924      0.00000
     15      15.0924      0.00000
     16      15.0924      0.00000
     17      19.0604      0.00000
     18      19.0604      0.00000
     19      19.0604      0.00000
     20      22.1924      0.00000
     21      22.1924      0.00000
     22      22.1924      0.00000
     23      24.4369      0.00000
     24      24.4369      0.00000
     25      24.4369      0.00000
     26      26.2046      0.00000
     27      29.4886      0.00000
     28      29.4886      0.00000
     29      32.7321      0.00000
     30      35.1544      0.00000
     31      35.1544      0.00000
     32      35.1544      0.00000
     33      35.9329      0.00000
     34      35.9329      0.00000
     35      35.9329      0.00000
     36      37.5450      0.00000
     37      37.5450      0.00000
     38      37.5450      0.00000
     39      37.5450      0.00000
     40      37.5450      0.00000
     41      37.5450      0.00000
     42      43.4268      0.00000
     43      43.4268      0.00000
     44      43.4268      0.00000
     45      44.7314      0.00000
     46      44.7314      0.00000
     47      44.7314      0.00000
     48      44.7314      0.00000
     49      44.7314      0.00000
     50      44.7314      0.00000
     51      45.0070      0.00000
     52      45.0070      0.00000
     53      45.0070      0.00000
     54      45.0880      0.00000
     55      45.8153      0.00000
     56      45.8153      0.00000
     57      45.8153      0.00000
     58      51.8227      0.00000
     59      51.8227      0.00000
     60      51.8227      0.00000
     61      51.8227      0.00000
     62      51.8227      0.00000
     63      51.8227      0.00000
     64      52.5475      0.00000

 k-point     2 :       0.1000    0.0000    0.0000
  band No.  band energies     occupation 
      1      -2.6822      2.00000
      2       4.7414      2.00000
      3       5.9639      2.00000
      4       5.9639      2.00000
      5       7.4870      2.00190
      6       7.4870      2.05889
      7       8.6958      1.45776
      8      12.9733      0.00000
      9      12.9733      0.00000
     10      14.4036      0.00000
     11      14.5018      0.00000
     12      14.5018      0.00000
     13      15.1726      0.00000
     14      15.1726      0.00000
     15      16.6062      0.00000
     16      16.6062      0.00000
     17      19.1504      0.00000
     18      19.7950      0.00000
     19      19.7950      0.00000
     20      21.4147      0.00000
     21      21.4147      0.00000
     22      21.4993      0.00000
     23      24.1990      0.00000
     24      25.3608      0.00000
     25      25.3608      0.00000
     26      27.0908      0.00000
     27      28.3058      0.00000
     28      29.5784      0.00000
     29      32.6768      0.00000
     30      35.2567      0.00000
     31      35.2567      0.00000
     32      35.4446      0.00000
     33      35.4446      0.00000
     34      35.5576      0.00000
     35      36.3501      0.00000
     36      36.3501      0.00000
     37      36.6287      0.00000
     38      37.2531      0.00000
     39      37.2531      0.00000
     40      37.5669      0.00000
     41      37.5669      0.00000
     42      43.7071      0.00000
     43      43.8623      0.00000
     44      43.8623      0.00000
     45      43.9611      0.00000
     46      43.9611      0.00000
     47      43.9918      0.00000
     48      44.7752      0.00000
     49      44.7752      0.00000
     50      44.8352      0.00000
     51      44.8352      0.00000
     52      45.3619      0.00000
     53      45.3619      0.00000
     54      45.4323      0.00000
     55      46.6943      0.00000
     56      46.8279      0.00000
     57      46.8279      0.00000
     58      49.4084      0.00000
     59      49.4084      0.00000
     60      49.4850      0.00000
     61      51.0064      0.00000
     62      51.0064      0.00000
     63      51.1291      0.00000
     64      51.1291      0.00000

 k-point     3 :       0.2000    0.0000    0.0000
  band No.  band energies     occupation 
      1      -2.3931      2.00000
      2       3.2396      2.00000
      3       6.2259      2.00000
      4       6.2259      2.00000
      5       7.7529      2.01045
      6       7.7529      2.52845
      7      10.6878     -0.15097
      8      11.4898      0.00000
      9      11.4898      0.00000
     10      13.3527      0.00000
     11      13.3527      0.00000
     12      14.6896      0.00000
     13      15.4130      0.00000
     14      15.4130      0.00000
     15      18.6250      0.00000
     16      18.6250      0.00000
     17      19.4181      0.00000
     18      20.1831      0.00000
     19      20.1831      0.00000
     20      20.2042      0.00000
     21      21.3756      0.00000
     22      21.3756      0.00000
     23      23.5750      0.00000
     24      25.8519      0.00000
     25      27.0206      0.00000
     26      27.0206      0.00000
     27      28.9649      0.00000
     28      29.8470      0.00000
     29      33.2649      0.00000
     30      33.9023      0.00000
     31      33.9023      0.00000
     32      34.0976      0.00000
     33      34.0976      0.00000
     34      34.6729      0.00000
     35      35.5726      0.00000
     36      35.5726      0.00000
     37      36.4900      0.00000
     38      36.4900      0.00000
     39      37.6253      0.00000
     40      37.6253      0.00000
     41      39.0408      0.00000
     42      41.9582      0.00000
     43      43.1370      0.00000
     44      43.1370      0.00000
     45      44.1833      0.00000
     46      44.1833      0.00000
     47      44.5453      0.00000
     48      44.5453      0.00000
     49      44.9061      0.00000
     50      44.9061      0.00000
     51      45.4456      0.00000
     52      45.9919      0.00000
     53      46.1030      0.00000
     54      46.1030      0.00000
     55      46.5277      0.00000
     56      47.1039      0.00000
     57      47.6617      0.00000
     58      47.6617      0.00000
     59      48.1316      0.00000
     60      48.1316      0.00000
     61      49.7163      0.00000
     62      49.7163      0.00000
     63      49.8673      0.00000
     64      49.8673      0.00000

 k-point     4 :       0.3000    0.0000    0.0000
  band No.  band energies     occupation 
      1      -1.9126      2.00000
      2       1.8626      2.00000
      3       6.6629      2.00000
      4       6.6629      2.00000
      5       8.1780      2.01104
      6       8.1780      2.50023
      7      10.1720      0.00000
      8      10.1720      0.00000
      9      12.1773      0.00000
     10      12.1773      0.00000
     11      12.8805      0.00000
     12      15.1652      0.00000
     13      15.8140      0.00000
     14      15.8140      0.00000
     15      18.8921      0.00000
     16      19.0134      0.00000
     17      19.0134      0.00000
     18      19.8552      0.00000
     19      20.8311      0.00000
     20      20.8311      0.00000
     21      22.6270      0.00000
     22      23.2696      0.00000
     23      23.2696      0.00000
     24      23.2703      0.00000
     25      28.8649      0.00000
     26      28.8649      0.00000
     27      30.2916      0.00000
     28      31.1586      0.00000
     29      31.1586      0.00000
     30      31.2416      0.00000
     31      32.2096      0.00000
     32      32.2096      0.00000
     33      33.6255      0.00000
     34      34.2918      0.00000
     35      35.4221      0.00000
     36      35.4221      0.00000
     37      36.1323      0.00000
     38      36.1323      0.00000
     39      37.7002      0.00000
     40      37.7002      0.00000
     41      40.2108      0.00000
     42      41.2455      0.00000
     43      42.1360      0.00000
     44      42.1360      0.00000
     45      42.6553      0.00000
     46      42.8597      0.00000
     47      42.8597      0.00000
     48      45.0564      0.00000
     49      45.0564      0.00000
     50      45.1213      0.00000
     51      45.1213      0.00000
     52      46.3322      0.00000
     53      46.3322      0.00000
     54      46.6989      0.00000
     55      47.4404      0.00000
     56      47.7724      0.00000
     57      47.7724      0.00000
     58      48.4615      0.00000
     59      48.4615      0.00000
     60      48.4806      0.00000
     61      48.9625      0.00000
     62      48.9625      0.00000
     63      48.9765      0.00000
     64      48.9765      0.00000

 k-point     5 :       0.4000    0.0000    0.0000
  band No.  band energies     occupation 
      1      -1.2431      2.00000
      2       0.6497      2.00000
      3       7.2754      2.00000
      4       7.2754      2.00000
      5       8.7003      1.99964
      6       8.7003      2.02544
      7       9.0296      0.00000
      8       9.0296      0.00000
      9      11.1784      0.00000
     10      11.1784      0.00000
     11      15.2315      0.00000
     12      15.8288      0.00000
     13      16.3759      0.00000
     14      16.3759      0.00000
     15      17.7030      0.00000
     16      17.9792      0.00000
     17      17.9792      0.00000
     18      20.3173      0.00000
     19      20.4475      0.00000
     20      22.0134      0.00000
     21      23.2072      0.00000
     22      23.2072      0.00000
     23      25.2729      0.00000
     24      25.2729      0.00000
     25      28.4043      0.00000
     26      28.4043      0.00000
     27      30.1326      0.00000
     28      30.1326      0.00000
     29      30.7481      0.00000
     30      30.7481      0.00000
     31      30.9070      0.00000
     32      32.6019      0.00000
     33      33.7798      0.00000
     34      34.1081      0.00000
     35      34.1081      0.00000
     36      35.5570      0.00000
     37      36.9978      0.00000
     38      36.9978      0.00000
     39      37.7630      0.00000
     40      37.7630      0.00000
     41      38.5422      0.00000
     42      39.5007      0.00000
     43      40.0033      0.00000
     44      40.0033      0.00000
     45      42.8182      0.00000
     46      42.8182      0.00000
     47      43.0394      0.00000
     48      45.4131      0.00000
     49      45.4131      0.00000
     50      45.6743      0.00000
     51      45.6743      0.00000
     52      45.7621      0.00000
     53      46.1151      0.00000
     54      46.1151      0.00000
     55      47.3697      0.00000
     56      47.3697      0.00000
     57      47.5975      0.00000
     58      47.5975      0.00000
     59      48.3900      0.00000
     60      48.3900      0.00000
     61      49.7893      0.00000
     62      50.5992      0.00000
     63      50.5992      0.00000
     64      51.2042      0.00000

 k-point     6 :       0.5000    0.0000    0.0000
  band No.  band energies     occupation 
      1      -0.3876      2.00000
      2      -0.3876      2.00000
      3       8.0641      2.00000
      4       8.0641      2.00000
      5       8.0641      2.00000
      6       8.0641      2.00693
      7       9.0257      0.00000
      8       9.0257      0.00000
      9      10.6909      0.00000
     10      10.6909      0.00000
     11      16.6770      0.00000
     12      16.6770      0.00000
     13      17.0982      0.00000
     14      17.0982      0.00000
     15      17.0982      0.00000
     16      17.0982      0.00000
     17      17.7211      0.00000
     18      17.7211      0.00000
     19      21.1741      0.00000
     20      21.1741      0.00000
     21      25.7392      0.00000
     22      25.7392      0.00000
     23      25.7392      0.00000
     24      25.7392      0.00000
     25      26.7029      0.00000
     26      26.7029      0.00000
     27      28.6659      0.00000
     28      28.6659      0.00000
     29      31.6833      0.00000
     30      31.6833      0.00000
     31      32.5365      0.00000
     32      32.5365      0.00000
     33      32.5365      0.00000
     34      32.5365      0.00000
     35      36.5385      0.00000
     36      36.5385      0.00000
     37      36.9841      0.00000
     38      36.9841      0.00000
     39      37.7877      0.00000
     40      37.7877      0.00000
     41      38.2639      0.00000
     42      38.2639      0.00000
     43      38.2639      0.00000
     44      38.2639      0.00000
     45      42.8283      0.00000
     46      42.8283      0.00000
     47      44.5199      0.00000
     48      44.5199      0.00000
     49      45.7620      0.00000
     50      45.7620      0.00000
     51      45.7620      0.00000
     52      45.7620      0.00000
     53      46.4418      0.00000
     54      46.4418      0.00000
     55      46.4418      0.00000
     56      46.4418      0.00000
     57      47.4993      0.00000
     58      47.4993      0.00000
     59      48.1943      0.00000
     60      48.1943      0.00000
     61      52.4082      0.00000
     62      52.4082      0.00000
     63      52.5064      0.00000
     64      52.5064      0.00000

 k-point     7 :       0.1000    0.1000    0.0000
  band No.  band energies     occupation 
      1      -2.5857      2.00000
      2       4.8313      2.00000
      3       4.8313      2.00000
      4       6.0512      2.00000
      5       7.5748      2.01185
      6       8.7817      2.06451
      7       8.7817      0.95529
      8      11.9359      0.00000
      9      13.0628      0.00000
     10      13.0628      0.00000
     11      14.5864      0.00000
     12      14.5864      0.00000
     13      15.2545      0.00000
     14      16.4038      0.00000
     15      16.6921      0.00000
     16      16.6921      0.00000
     17      19.8816      0.00000
     18      19.8816      0.00000
     19      20.0122      0.00000
     20      20.6057      0.00000
     21      20.7586      0.00000
     22      22.3805      0.00000
     23      24.5696      0.00000
     24      25.1631      0.00000
     25      25.5527      0.00000
     26      28.0178      0.00000
     27      28.1445      0.00000
     28      28.8949      0.00000
     29      32.3987      0.00000
     30      34.7463      0.00000
     31      34.7463      0.00000
     32      35.0610      0.00000
     33      35.3636      0.00000
     34      36.1897      0.00000
     35      36.5989      0.00000
     36      36.6133      0.00000
     37      36.6232      0.00000
     38      36.6232      0.00000
     39      36.9904      0.00000
     40      37.2644      0.00000
     41      37.2644      0.00000
     42      42.6788      0.00000
     43      42.9170      0.00000
     44      42.9170      0.00000
     45      44.2747      0.00000
     46      44.2747      0.00000
     47      44.6387      0.00000
     48      44.8223      0.00000
     49      44.8223      0.00000
     50      45.3362      0.00000
     51      45.3362      0.00000
     52      45.3678      0.00000
     53      45.7497      0.00000
     54      45.8876      0.00000
     55      46.8896      0.00000
     56      47.4537      0.00000
     57      47.4537      0.00000
     58      48.0771      0.00000
     59      48.0771      0.00000
     60      49.9303      0.00000
     61      49.9303      0.00000
     62      50.4603      0.00000
     63      50.9359      0.00000
     64      51.0753      0.00000

 k-point     8 :       0.2000    0.1000    0.0000
  band No.  band energies     occupation 
      1      -2.2968      2.00000
      2       3.3314      2.00000
      3       5.1008      2.00000
      4       6.3132      2.00000
      5       7.8292      2.05188
      6       9.0343      0.81097
      7      10.5323     -0.07746
      8      10.7665      0.00000
      9      11.5785      0.00000
     10      13.3310      0.00000
     11      13.4468      0.00000
     12      14.4416      0.00000
     13      14.8412      0.00000
     14      16.9497      0.00000
     15      17.9444      0.00000
     16      18.5946      0.00000
     17      18.7112      0.00000
     18      19.5947      0.00000
     19      20.1391      0.00000
     20      21.4571      0.00000
     21      21.8254      0.00000
     22      22.2554      0.00000
     23      24.1891      0.00000
     24      25.8756      0.00000
     25      26.2532      0.00000
     26      26.9096      0.00000
     27      28.9304      0.00000
     28      30.0168      0.00000
     29      32.6957      0.00000
     30      32.7361      0.00000
     31      33.6239      0.00000
     32      33.9115      0.00000
     33      33.9416      0.00000
     34      35.1638      0.00000
     35      35.6971      0.00000
     36      36.4664      0.00000
     37      36.4803      0.00000
     38      36.5741      0.00000
     39      37.2191      0.00000
     40      37.2878      0.00000
     41      39.3274      0.00000
     42      41.1913      0.00000
     43      41.6621      0.00000
     44      42.0965      0.00000
     45      43.6254      0.00000
     46      44.5734      0.00000
     47      44.6548      0.00000
     48      44.7515      0.00000
     49      44.9978      0.00000
     50      45.5037      0.00000
     51      45.8168      0.00000
     52      45.8473      0.00000
     53      46.2508      0.00000
     54      46.3721      0.00000
     55      46.7712      0.00000
     56      47.0781      0.00000
     57      47.3450      0.00000
     58      47.4136      0.00000
     59      48.6256      0.00000
     60      48.7257      0.00000
     61      49.0672      0.00000
     62      50.2802      0.00000
     63      50.3194      0.00000
     64      51.4961      0.00000

 k-point     9 :       0.3000    0.1000    0.0000
  band No.  band energies     occupation 
      1      -1.8168      2.00000
      2       1.9556      2.00000
      3       5.5483      2.00000
      4       6.7503      2.00000
      5       8.1757      2.02164
      6       9.3248      0.23118
      7       9.4277      0.00000
      8      10.2603      0.00000
      9      12.2950      0.00000
     10      12.9399      0.00000
     11      13.2701      0.00000
     12      13.7773      0.00000
     13      15.2742      0.00000
     14      17.3039      0.00000
     15      17.3790      0.00000
     16      18.4380      0.00000
     17      20.0666      0.00000
     18      20.5599      0.00000
     19      20.7356      0.00000
     20      20.9166      0.00000
     21      23.1387      0.00000
     22      23.3452      0.00000
     23      23.4924      0.00000
     24      24.1877      0.00000
     25      28.0979      0.00000
     26      28.5750      0.00000
     27      29.5164      0.00000
     28      30.1588      0.00000
     29      31.2233      0.00000
     30      32.1434      0.00000
     31      32.1627      0.00000
     32      32.4918      0.00000
     33      33.2140      0.00000
     34      33.4912      0.00000
     35      35.3255      0.00000
     36      35.7198      0.00000
     37      36.3055      0.00000
     38      36.7494      0.00000
     39      37.2954      0.00000
     40      38.0142      0.00000
     41      39.1590      0.00000
     42      41.1423      0.00000
     43      41.2406      0.00000
     44      41.5696      0.00000
     45      41.7124      0.00000
     46      43.8870      0.00000
     47      43.9714      0.00000
     48      44.5679      0.00000
     49      44.5931      0.00000
     50      44.7398      0.00000
     51      45.8800      0.00000
     52      46.0299      0.00000
     53      46.2638      0.00000
     54      46.2952      0.00000
     55      46.5458      0.00000
     56      46.9347      0.00000
     57      47.7694      0.00000
     58      48.6365      0.00000
     59      49.0516      0.00000
     60      49.3965      0.00000
     61      49.4438      0.00000
     62      50.2309      0.00000
     63      50.3302      0.00000
     64      52.0444      0.00000

 k-point    10 :       0.4000    0.1000    0.0000
  band No.  band energies     occupation 
      1      -1.1478      2.00000
      2       0.7437      2.00000
      3       6.1704      2.00000
      4       7.3630      2.00000
      5       7.8515      2.00021
      6       9.0964      1.30480
      7       9.1176      0.00000
      8       9.8241      0.00000
      9      11.4137      0.00000
     10      12.2120      0.00000
     11      14.4004      0.00000
     12      15.1660      0.00000
     13      15.9772      0.00000
     14      16.1681      0.00000
     15      17.3897      0.00000
     16      17.9790      0.00000
     17      19.6748      0.00000
     18      20.4918      0.00000
     19      21.1305      0.00000
     20      22.3850      0.00000
     21      22.6223      0.00000
     22      23.2911      0.00000
     23      25.3220      0.00000
     24      26.2100      0.00000
     25      27.5671      0.00000
     26      28.4799      0.00000
     27      29.6757      0.00000
     28      30.1198      0.00000
     29      30.1701      0.00000
     30      30.9889      0.00000
     31      31.0602      0.00000
     32      31.4436      0.00000
     33      33.8750      0.00000
     34      34.3781      0.00000
     35      34.4622      0.00000
     36      34.4932      0.00000
     37      36.9529      0.00000
     38      37.2326      0.00000
     39      37.2512      0.00000
     40      37.3090      0.00000
     41      38.7510      0.00000
     42      39.0974      0.00000
     43      41.2116      0.00000
     44      41.2468      0.00000
     45      41.5248      0.00000
     46      42.0740      0.00000
     47      43.3617      0.00000
     48      44.3557      0.00000
     49      44.4478      0.00000
     50      44.6237      0.00000
     51      45.3382      0.00000
     52      45.9925      0.00000
     53      46.4078      0.00000
     54      46.4419      0.00000
     55      46.8004      0.00000
     56      47.9093      0.00000
     57      47.9481      0.00000
     58      48.8407      0.00000
     59      49.3181      0.00000
     60      50.3206      0.00000
     61      50.6414      0.00000
     62      51.1819      0.00000
     63      51.3013      0.00000
     64      52.1324      0.00000

 k-point    11 :       0.5000    0.1000    0.0000
  band No.  band energies     occupation 
      1      -0.2928      2.00000
      2      -0.2928      2.00000
      3       6.9571      2.00000
      4       6.9571      2.00000
      5       8.1520      2.00000
      6       8.1520      2.05445
      7       9.6553      0.00000
      8       9.6553      0.00000
      9      11.4224      0.00000
     10      11.4224      0.00000
     11      15.1984      0.00000
     12      15.1984      0.00000
     13      16.4542      0.00000
     14      16.4542      0.00000
     15      17.9203      0.00000
     16      17.9203      0.00000
     17      18.7471      0.00000
     18      18.7471      0.00000
     19      21.8290      0.00000
     20      21.8290      0.00000
     21      24.8237      0.00000
     22      24.8237      0.00000
     23      25.8202      0.00000
     24      25.8202      0.00000
     25      27.2557      0.00000
     26      27.2557      0.00000
     27      29.1887      0.00000
     28      29.1887      0.00000
     29      30.5119      0.00000
     30      30.5119      0.00000
     31      32.1067      0.00000
[...]
     64      52.7810      0.00000

 k-point    52 :       0.5000    0.5000    0.3000
  band No.  band energies     occupation 
      1       2.7907      2.00000
      2       2.7907      2.00000
      3       2.7907      2.00000
      4       2.7907      2.00000
      5       6.4838      2.00000
      6       6.4838      2.00000
      7       6.4838      2.00000
      8       6.4838      2.06878
      9      17.2392      0.00000
     10      17.2392      0.00000
     11      17.2392      0.00000
     12      17.2392      0.00000
     13      19.8912      0.00000
     14      19.8912      0.00000
     15      19.8912      0.00000
     16      19.8912      0.00000
     17      21.8024      0.00000
     18      21.8024      0.00000
     19      21.8024      0.00000
     20      21.8024      0.00000
     21      23.2054      0.00000
     22      23.2054      0.00000
     23      23.2054      0.00000
     24      23.2054      0.00000
     25      26.3266      0.00000
     26      26.3266      0.00000
     27      26.3266      0.00000
     28      26.3266      0.00000
     29      28.5855      0.00000
     30      28.5855      0.00000
     31      28.5855      0.00000
     32      28.5855      0.00000
     33      32.7997      0.00000
     34      32.7997      0.00000
     35      32.7997      0.00000
     36      32.7997      0.00000
     37      34.4058      0.00000
     38      34.4058      0.00000
     39      34.4058      0.00000
     40      34.4058      0.00000
     41      40.8447      0.00000
     42      40.8447      0.00000
     43      40.8447      0.00000
     44      40.8447      0.00000
     45      43.2615      0.00000
     46      43.2615      0.00000
     47      43.2615      0.00000
     48      43.2615      0.00000
     49      44.8349      0.00000
     50      44.8349      0.00000
     51      44.8349      0.00000
     52      44.8349      0.00000
     53      50.0680      0.00000
     54      50.0680      0.00000
     55      50.0680      0.00000
     56      50.0680      0.00000
     57      51.0391      0.00000
     58      51.0391      0.00000
     59      51.0391      0.00000
     60      51.0391      0.00000
     61      52.7162      0.00000
     62      52.7162      0.00000
     63      52.7162      0.00000
     64      52.7162      0.00000

 k-point    53 :       0.4000    0.4000    0.4000
  band No.  band energies     occupation 
      1       1.7731      2.00000
      2       3.6074      2.00000
      3       3.6074      2.00000
      4       3.6074      2.00000
      5       5.5022      2.00000
      6       5.5022      2.00000
      7       5.5022      2.00000
      8       7.2971      2.06479
      9      17.9765      0.00000
     10      17.9765      0.00000
     11      17.9765      0.00000
     12      18.9892      0.00000
     13      18.9892      0.00000
     14      18.9892      0.00000
     15      20.5974      0.00000
     16      20.5974      0.00000
     17      20.8556      0.00000
     18      20.8556      0.00000
     19      20.8556      0.00000
     20      22.3223      0.00000
     21      22.3223      0.00000
     22      23.9490      0.00000
     23      23.9490      0.00000
     24      23.9490      0.00000
     25      24.4006      0.00000
     26      26.4840      0.00000
     27      27.1714      0.00000
     28      27.1714      0.00000
     29      27.1714      0.00000
     30      27.6366      0.00000
     31      27.6366      0.00000
     32      27.6366      0.00000
     33      32.9584      0.00000
     34      32.9584      0.00000
     35      32.9584      0.00000
     36      33.4308      0.00000
     37      33.4308      0.00000
     38      35.3479      0.00000
     39      35.3479      0.00000
     40      35.3479      0.00000
     41      40.7587      0.00000
     42      42.1534      0.00000
     43      42.1534      0.00000
     44      42.1534      0.00000
     45      42.2092      0.00000
     46      42.2092      0.00000
     47      42.2092      0.00000
     48      43.7888      0.00000
     49      43.7888      0.00000
     50      43.7888      0.00000
     51      43.9674      0.00000
     52      43.9674      0.00000
     53      49.9404      0.00000
     54      50.3784      0.00000
     55      50.3784      0.00000
     56      50.3784      0.00000
     57      51.4706      0.00000
     58      51.4706      0.00000
     59      51.5878      0.00000
     60      53.0012      0.00000
     61      53.0012      0.00000
     62      53.0012      0.00000
     63      53.2665      0.00000
     64      53.2665      0.00000

 k-point    54 :       0.5000    0.4000    0.4000
  band No.  band energies     occupation 
      1       2.6063      2.00000
      2       2.6063      2.00000
      3       4.2286      2.00000
      4       4.2286      2.00000
      5       4.7043      2.00000
      6       4.7043      2.00000
      7       6.3067      2.00000
      8       6.3067      2.02133
      9      18.4706      0.00000
     10      18.4706      0.00000
     11      18.9276      0.00000
     12      18.9276      0.00000
     13      19.7160      0.00000
     14      19.7160      0.00000
     15      20.1991      0.00000
     16      20.1991      0.00000
     17      21.2672      0.00000
     18      21.2672      0.00000
     19      22.3578      0.00000
     20      22.3578      0.00000
     21      22.3992      0.00000
     22      22.3992      0.00000
     23      23.0494      0.00000
     24      23.0494      0.00000
     25      25.4274      0.00000
     26      25.4274      0.00000
     27      26.5488      0.00000
     28      26.5488      0.00000
     29      26.9317      0.00000
     30      26.9317      0.00000
     31      27.0551      0.00000
     32      27.0551      0.00000
     33      33.3054      0.00000
     34      33.3054      0.00000
     35      34.1603      0.00000
     36      34.1603      0.00000
     37      34.8170      0.00000
     38      34.8170      0.00000
     39      34.9966      0.00000
     40      34.9966      0.00000
     41      41.6729      0.00000
     42      41.6729      0.00000
     43      42.0744      0.00000
     44      42.0744      0.00000
     45      42.2141      0.00000
     46      42.2141      0.00000
     47      42.3284      0.00000
     48      42.3284      0.00000
     49      43.4366      0.00000
     50      43.4366      0.00000
     51      43.9003      0.00000
     52      43.9003      0.00000
     53      49.8313      0.00000
     54      49.8313      0.00000
     55      50.0304      0.00000
     56      50.0304      0.00000
     57      52.1421      0.00000
     58      52.1421      0.00000
     59      52.4194      0.00000
     60      52.4194      0.00000
     61      53.6491      0.00000
     62      53.6491      0.00000
     63      53.7469      0.00000
     64      53.7469      0.00000

 k-point    55 :       0.5000    0.5000    0.4000
  band No.  band energies     occupation 
      1       3.4254      2.00000
      2       3.4254      2.00000
      3       3.4254      2.00000
      4       3.4254      2.00000
      5       5.3206      2.00000
      6       5.3206      2.00000
      7       5.3206      2.00000
      8       5.3206      2.00000
      9      19.3602      0.00000
     10      19.3602      0.00000
     11      19.3602      0.00000
     12      19.3602      0.00000
     13      20.4399      0.00000
     14      20.4399      0.00000
     15      20.4399      0.00000
     16      20.4399      0.00000
     17      21.9589      0.00000
     18      21.9589      0.00000
     19      21.9589      0.00000
     20      21.9589      0.00000
     21      22.1665      0.00000
     22      22.1665      0.00000
     23      22.1665      0.00000
     24      22.1665      0.00000
     25      25.3891      0.00000
     26      25.3891      0.00000
     27      25.3891      0.00000
     28      25.3891      0.00000
     29      26.4140      0.00000
     30      26.4140      0.00000
     31      26.4140      0.00000
     32      26.4140      0.00000
     33      34.4629      0.00000
     34      34.4629      0.00000
     35      34.4629      0.00000
     36      34.4629      0.00000
     37      35.0310      0.00000
     38      35.0310      0.00000
     39      35.0310      0.00000
     40      35.0310      0.00000
     41      41.5432      0.00000
     42      41.5432      0.00000
     43      41.5432      0.00000
     44      41.5432      0.00000
     45      42.7417      0.00000
     46      42.7417      0.00000
     47      42.7417      0.00000
     48      42.7417      0.00000
     49      42.9061      0.00000
     50      42.9061      0.00000
     51      42.9061      0.00000
     52      42.9061      0.00000
     53      49.4784      0.00000
     54      49.4784      0.00000
     55      49.4784      0.00000
     56      49.4784      0.00000
     57      53.1484      0.00000
     58      53.1484      0.00000
     59      53.1484      0.00000
     60      53.1484      0.00000
     61      53.8877      0.00000
     62      53.8877      0.00000
     63      53.8877      0.00000
     64      53.8877      0.00000

 k-point    56 :       0.5000    0.5000    0.5000
  band No.  band energies     occupation 
      1       4.0514      2.00000
      2       4.0514      2.00000
      3       4.0514      2.00000
      4       4.0514      2.00000
      5       4.5177      2.00000
      6       4.5177      2.00000
      7       4.5177      2.00000
      8       4.5177      2.00000
      9      20.9423      0.00000
     10      20.9423      0.00000
     11      20.9423      0.00000
     12      20.9423      0.00000
     13      20.9423      0.00000
     14      20.9423      0.00000
     15      20.9423      0.00000
     16      20.9423      0.00000
     17      21.5002      0.00000
     18      21.5002      0.00000
     19      21.5002      0.00000
     20      21.5002      0.00000
     21      21.5002      0.00000
     22      21.5002      0.00000
     23      21.5002      0.00000
     24      21.5002      0.00000
     25      24.7921      0.00000
     26      24.7921      0.00000
     27      24.7921      0.00000
     28      24.7921      0.00000
     29      25.6008      0.00000
     30      25.6008      0.00000
     31      25.6008      0.00000
     32      25.6008      0.00000
     33      35.2573      0.00000
     34      35.2573      0.00000
     35      35.2573      0.00000
     36      35.2573      0.00000
     37      35.2573      0.00000
     38      35.2573      0.00000
     39      35.2573      0.00000
     40      35.2573      0.00000
     41      41.8004      0.00000
     42      41.8004      0.00000
     43      41.8004      0.00000
     44      41.8004      0.00000
     45      41.8004      0.00000
     46      41.8004      0.00000
     47      41.8004      0.00000
     48      41.8004      0.00000
     49      42.8399      0.00000
     50      42.8399      0.00000
     51      42.8399      0.00000
     52      42.8399      0.00000
     53      48.9377      0.00000
     54      48.9377      0.00000
     55      48.9377      0.00000
     56      48.9377      0.00000
     57      54.0179      0.00000
     58      54.0179      0.00000
     59      54.0179      0.00000
     60      54.0179      0.00000
     61      55.4237      0.00000
     62      55.4237      0.00000
     63      55.4237      0.00000
     64      55.4237      0.00000


--------------------------------------------------------------------------------------------------------


 soft charge-density along one line, spin component           1
         0         1         2         3         4         5         6         7         8         9
 total charge-density along one line
 
 pseudopotential strength for first ion, spin component:           1
  8.412  14.335   0.000  -0.000  -0.000   0.000  -0.000  -0.000
 14.335  24.427   0.000  -0.000  -0.000   0.000  -0.000  -0.000
  0.000   0.000   1.993   0.000   0.000   5.737   0.000   0.000
 -0.000  -0.000   0.000   1.993   0.000   0.000   5.737   0.000
 -0.000  -0.000   0.000   0.000   1.993   0.000   0.000   5.737
  0.000   0.000   5.737   0.000   0.000  16.433   0.000   0.000
 -0.000  -0.000   0.000   5.737   0.000   0.000  16.433   0.000
 -0.000  -0.000   0.000   0.000   5.737   0.000   0.000  16.433
 total augmentation occupancy for first ion, spin component:           1
  3.812  -1.025   0.000   0.000  -0.000   0.000   0.000  -0.000
 -1.025   0.339   0.000   0.000   0.000  -0.000   0.000  -0.000
  0.000   0.000   1.243   0.000   0.000  -0.083  -0.000  -0.000
  0.000   0.000   0.000   1.243   0.000  -0.000  -0.083  -0.000
 -0.000   0.000   0.000   0.000   1.243  -0.000  -0.000  -0.083
  0.000  -0.000  -0.083  -0.000  -0.000   0.006   0.000   0.000
  0.000   0.000  -0.000  -0.083  -0.000   0.000   0.006   0.000
 -0.000  -0.000  -0.000  -0.000  -0.083   0.000   0.000   0.006


------------------------ aborting loop because EDIFF is reached ----------------------------------------


    CHARGE:  cpu time      0.0252: real time      0.0253
    FORLOC:  cpu time      0.0005: real time      0.0006
    FORNL :  cpu time      0.0256: real time      0.0264
    STRESS:  cpu time      0.3683: real time      0.3725
    FORCOR:  cpu time      0.0036: real time      0.0036
    FORHAR:  cpu time      0.0007: real time      0.0007
    MIXING:  cpu time      0.0009: real time      0.0009
    OFIELD:  cpu time      0.0004: real time      0.0004

  FORCE on cell =-STRESS in cart. coord.  units (eV):
  Direction    XX          YY          ZZ          XY          YZ          ZX
  --------------------------------------------------------------------------------------
  Alpha Z    -0.89568    -0.89568    -0.89568
  Ewald    -101.18513  -101.18513  -101.18513    -0.00000     0.00000     0.00000
  Hartree     0.16498     0.16498     0.16498    -0.00000    -0.00000    -0.00000
  E(xc)     -35.34455   -35.34455   -35.34455    -0.00000    -0.00000    -0.00000
  Local       2.95352     2.95352     2.95352     0.00000    -0.00000     0.00000
  n-local    76.22619    77.32069    79.57773     0.48928     1.36929     0.55650
  augment    -3.92701    -3.92701    -3.92701     0.00000     0.00000     0.00000
  Kinetic    61.19492    63.35532    67.27273     1.73302    -8.26976    -1.42005
  Fock        0.00000     0.00000     0.00000     0.00000     0.00000     0.00000
  -------------------------------------------------------------------------------------
  Total       3.41532     3.41532     3.41532     0.00000    -0.00000    -0.00000
  in kB      91.19906    91.19906    91.19906     0.00000    -0.00000    -0.00000
  external pressure =       91.20 kB  Pullay stress =        0.00 kB


 VOLUME and BASIS-vectors are now :
 -----------------------------------------------------------------------------
  energy-cutoff  :      520.00
  volume of cell :       60.00
      direct lattice vectors                 reciprocal lattice vectors
     3.914867641  0.000000000  0.000000000     0.255436477 -0.000000000  0.000000000
     0.000000000  3.914867641  0.000000000     0.000000000  0.255436477  0.000000000
     0.000000000  0.000000000  3.914867641    -0.000000000 -0.000000000  0.255436477

  length of vectors
     3.914867641  3.914867641  3.914867641     0.255436477  0.255436477  0.255436477


 FORCES acting on ions
    electron-ion (+dipol)            ewald-force                    non-local-force                 convergence-correction
 -----------------------------------------------------------------------------------------------
   -.267E-14 0.371E-15 -.393E-15   -.123E-14 -.990E-15 -.326E-15   -.845E-20 -.733E-20 0.333E-19   -.187E-15 0.108E-16 0.517E-16
   -.251E-14 -.382E-14 -.137E-14   -.112E-14 0.523E-15 0.398E-15   0.558E-20 0.867E-20 0.450E-19   -.187E-15 -.723E-17 -.555E-16
   -.216E-14 -.845E-15 0.276E-13   0.120E-14 -.408E-15 0.407E-15   -.101E-19 -.201E-20 0.110E-19   0.142E-15 0.100E-16 -.399E-16
   -.172E-14 -.150E-13 -.147E-13   0.123E-14 0.978E-15 -.297E-15   -.291E-19 0.142E-19 0.314E-19   0.129E-15 -.100E-16 0.426E-16
 -----------------------------------------------------------------------------------------------
   -.905E-14 -.193E-13 0.112E-13   0.829E-16 0.104E-15 0.182E-15   -.421E-19 0.135E-19 0.121E-18   -.104E-15 0.355E-17 -.109E-17
 
 
 POSITION                                       TOTAL-FORCE (eV/Angst)
 -----------------------------------------------------------------------------------
      0.00000      0.00000      0.00000         0.000000     -0.000000     -0.000000
      0.00000      1.95743      1.95743        -0.000000      0.000000     -0.000000
      1.95743      0.00000      1.95743         0.000000      0.000000      0.000000
      1.95743      1.95743      0.00000        -0.000000      0.000000     -0.000000
 -----------------------------------------------------------------------------------
    total drift:                               -0.000000     -0.000000      0.000000


--------------------------------------------------------------------------------------------------------



  FREE ENERGIE OF THE ION-ELECTRON SYSTEM (eV)
  ---------------------------------------------------
  free  energy   TOTEN  =       -14.80867295 eV

  energy  without entropy=      -14.80867295  energy(sigma->0) =      -14.80867295
 


--------------------------------------------------------------------------------------------------------


    POTLOK:  cpu time      0.0063: real time      0.0064


--------------------------------------------------------------------------------------------------------


     LOOP+:  cpu time     56.9415: real time     57.3216
 -----------------------------------------------------------------------------
|                                                                             |
|           W    W    AA    RRRRR   N    N  II  N    N   GGGG   !!!           |
|           W    W   A  A   R    R  NN   N  II  NN   N  G    G  !!!           |
|           W    W  A    A  R    R  N N  N  II  N N  N  G       !!!           |
|           W WW W  AAAAAA  RRRRR   N  N N  II  N  N N  G  GGG   !            |
|           WW  WW  A    A  R   R   N   NN  II  N   NN  G    G                |
|           W    W  A    A  R    R  N    N  II  N    N   GGGG   !!!           |
|                                                                             |
|     Tetrahedron method does not include variations of the Fermi             |
|     occupations, so forces and stress will be inaccurate. We suggest        |
|     using a different smearing scheme ISMEAR = 1 or 2 for metals in         |
|     relaxations.                                                            |
|                                                                             |
 -----------------------------------------------------------------------------

    4ORBIT:  cpu time      0.0000: real time      0.0000
 BZINTS: Fermi energy:    9.016081;   12.000000 electrons
         Band energy: 0.520243E+02;  BLOECHL correction:   -0.243610

 total amount of memory used by VASP MPI-rank0    39156. kBytes
=======================================================================

   base      :      30000. kBytes
   nonl-proj :       6070. kBytes
   fftplans  :        255. kBytes
   grid      :       1271. kBytes
   one-center:         12. kBytes
   wavefun   :       1548. kBytes
 
  
  
 General timing and accounting informations for this job:
 ========================================================
  
                  Total CPU time used (sec):       59.926
                            User time (sec):       57.758
                          System time (sec):        2.167
                         Elapsed time (sec):       62.713
  
                   Maximum memory used (kb):      708816.
                   Average memory used (kb):          N/A
  
                          Minor page faults:       137743
                          Major page faults:          121
                 Voluntary context switches:         4708
