 running   20 mpi-ranks, on    5 nodes
 distrk:  each k-point on   20 cores,    1 groups
 distr:  one band on    1 cores,   20 groups
 vasp.6.4.1 05Apr23 (build Jun 01 2023 13:46:15) complex                        
  
 POSCAR found type information on POSCAR FeSe
 POSCAR found :  2 types and      16 ions
 Reading from existing POTCAR
 scaLAPACK will be used
 -----------------------------------------------------------------------------
|                                                                             |
|           W    W    AA    RRRRR   N    N  II  N    N   GGGG   !!!           |
|           W    W   A  A   R    R  NN   N  II  NN   N  G    G  !!!           |
|           W    W  A    A  R    R  N N  N  II  N N  N  G       !!!           |
|           W WW W  AAAAAA  RRRRR   N  N N  II  N  N N  G  GGG   !            |
|           WW  WW  A    A  R   R   N   NN  II  N   NN  G    G                |
|           W    W  A    A  R    R  N    N  II  N    N   GGGG   !!!           |
|                                                                             |
|     For optimal performance we recommend to set                             |
|       NCORE = 2 up to number-of-cores-per-socket                            |
|     NCORE specifies how many cores store one orbital (NPAR=cpu/NCORE).      |
|     This setting can greatly improve the performance of VASP for DFT.       |
|     The default, NCORE=1 might be grossly inefficient on modern             |
|     multi-core architectures or massively parallel machines. Do your        |
|     own testing! More info at https://www.vasp.at/wiki/index.php/NCORE      |
|     Unfortunately you need to use the default for GW and RPA                |
|     calculations (for HF NCORE is supported but not extensively tested      |
|     yet).                                                                   |
|                                                                             |
 -----------------------------------------------------------------------------

 Reading from existing POTCAR
 LDA part: xc-table for Pade appr. of Perdew
 POSCAR, INCAR and KPOINTS ok, starting setup
 FFT: planning ... GRIDC
 FFT: planning ... GRID_SOFT
 FFT: planning ... GRID
 WAVECAR not read
 WARNING: random wavefunctions but no delay for mixing, default for NELMDL
 entering main loop
       N       E                     dE             d eps       ncg     rms          rms(c)
DAV:   1     0.204169114556E+04    0.20417E+04   -0.88892E+04 34200   0.200E+03
DAV:   2     0.121158758127E+03   -0.19205E+04   -0.18650E+04 32000   0.586E+02
DAV:   3    -0.841827458562E+02   -0.20534E+03   -0.18242E+03 45320   0.191E+02
DAV:   4    -0.982104942357E+02   -0.14028E+02   -0.13690E+02 46480   0.511E+01
DAV:   5    -0.985327182498E+02   -0.32222E+00   -0.32103E+00 45540   0.816E+00    0.269E+01
RMM:   6    -0.112119534893E+03   -0.13587E+02   -0.15895E+02 32037   0.823E+01    0.488E+01
RMM:   7    -0.905994922265E+02    0.21520E+02   -0.40196E+01 32008   0.489E+01    0.955E+00
RMM:   8    -0.910946299253E+02   -0.49514E+00   -0.28965E+00 41210   0.500E+00    0.426E+00
RMM:   9    -0.911441576477E+02   -0.49528E-01   -0.76259E-01 45940   0.261E+00    0.224E+00
RMM:  10    -0.911505874085E+02   -0.64298E-02   -0.21384E-01 45741   0.140E+00    0.936E-01
RMM:  11    -0.911572336433E+02   -0.66462E-02   -0.42242E-02 43916   0.756E-01    0.338E-01
RMM:  12    -0.911607559900E+02   -0.35223E-02   -0.95546E-03 42206   0.307E-01    0.163E-01
RMM:  13    -0.911607018547E+02    0.54135E-04   -0.19598E-03 28994   0.157E-01
   1 F= -.98390905E+02 E0= -.98379693E+02  d E =-.983909E+02  mag=     0.0000
 curvature:   0.00 expect dE= 0.000E+00 dE for cont linesearch  0.000E+00
 trial: gam= 0.00000 g(F)=  0.201E-03 g(S)=  0.521E-04 ort = 0.000E+00 (trialstep = 0.100E+01)
 search vector abs. value=  0.253E-03
 bond charge predicted
       N       E                     dE             d eps       ncg     rms          rms(c)
DAV:   1    -0.911611119168E+02   -0.35593E-03   -0.14572E-02 36600   0.454E-01    0.137E-01
RMM:   2    -0.911610089627E+02    0.10295E-03   -0.12278E-03 28784   0.186E-01
   2 F= -.98391104E+02 E0= -.98379848E+02  d E =-.199162E-03  mag=    -0.0000
 trial-energy change:   -0.000199  1 .order   -0.000139   -0.000253   -0.000025
 step:   1.1084(harm=  1.1084)  dis= 0.00122  next Energy=   -98.391045 (dE=-0.140E-03)
 bond charge predicted
       N       E                     dE             d eps       ncg     rms          rms(c)
DAV:   1    -0.911609689341E+02    0.14298E-03   -0.85846E-04 34560   0.280E-01    0.753E-02
RMM:   2    -0.911609826240E+02   -0.13690E-04   -0.51274E-04 22081   0.160E-01
   3 F= -.98391066E+02 E0= -.98379794E+02  d E =-.161122E-03  mag=     0.0000
 curvature:  -0.55 expect dE=-0.120E-03 dE for cont linesearch -0.364E-04
 trial: gam= 0.00000 g(F)=  0.283E-05 g(S)=  0.214E-03 ort =-0.129E-03 (trialstep = 0.102E+01)
 search vector abs. value=  0.217E-03
 reached required accuracy - stopping structural energy minimisation
