       N       E                     dE             d eps       ncg     rms          rms(c)
DAV:   1     0.197181177425E+04    0.19718E+04   -0.90654E+04 91344   0.207E+03
DAV:   2     0.939121181210E+02   -0.18779E+04   -0.18447E+04 84912   0.589E+02
DAV:   3    -0.942306958168E+02   -0.18814E+03   -0.18205E+03123912   0.186E+02
DAV:   4    -0.104705164723E+03   -0.10474E+02   -0.10417E+02119904   0.456E+01
DAV:   5    -0.104996568531E+03   -0.29140E+00   -0.29093E+00113832   0.716E+00    0.254E+01
RMM:   6    -0.110869768323E+03   -0.58732E+01   -0.12590E+02 84872   0.791E+01    0.361E+01
RMM:   7    -0.964727404420E+02    0.14397E+02   -0.33689E+01 85025   0.458E+01    0.114E+01
RMM:   8    -0.993537035876E+02   -0.28810E+01   -0.76458E+00 95427   0.141E+01    0.261E+01
RMM:   9    -0.958932545240E+02    0.34604E+01   -0.54633E+00 91385   0.131E+01    0.183E+00
RMM:  10    -0.961321195663E+02   -0.23887E+00   -0.19398E+00126449   0.407E+00    0.462E+00
RMM:  11    -0.960982263051E+02    0.33893E-01   -0.26890E-01120562   0.161E+00    0.240E+00
RMM:  12    -0.961068660560E+02   -0.86398E-02   -0.56398E-02114080   0.803E-01    0.260E+00
RMM:  13    -0.960516720669E+02    0.55194E-01   -0.68704E-02101341   0.140E+00    0.132E+00
RMM:  14    -0.960561975346E+02   -0.45255E-02   -0.15320E-01119458   0.150E+00    0.635E-01
RMM:  15    -0.960528350614E+02    0.33625E-02   -0.75458E-02103329   0.156E+00    0.655E-01
RMM:  16    -0.960526995531E+02    0.13551E-03   -0.87199E-03102355   0.323E-01    0.634E-01
RMM:  17    -0.960497741303E+02    0.29254E-02   -0.27896E-03 74876   0.311E-01    0.363E-01
RMM:  18    -0.960494053949E+02    0.36874E-03   -0.28514E-03 79498   0.296E-01    0.932E-02
RMM:  19    -0.960495290164E+02   -0.12362E-03   -0.17597E-03 80761   0.150E-01
   1 F= -.10155087E+03 E0= -.10153665E+03  d E =-.101551E+03  mag=     0.0000
       N       E                     dE             d eps       ncg     rms          rms(c)
DAV:   1    -0.960610272960E+02   -0.11622E-01   -0.23081E+00103176   0.911E+00    0.585E-01
RMM:   2    -0.960808226123E+02   -0.19795E-01   -0.23162E-01108119   0.296E+00    0.816E-01
RMM:   3    -0.960855753784E+02   -0.47528E-02   -0.65540E-02110796   0.151E+00    0.122E+00
RMM:   4    -0.960817799968E+02    0.37954E-02   -0.15631E-02106638   0.685E-01    0.615E-01
RMM:   5    -0.960830425710E+02   -0.12626E-02   -0.56004E-03 94161   0.396E-01    0.802E-01
RMM:   6    -0.960803367028E+02    0.27059E-02   -0.17854E-03 71672   0.279E-01    0.900E-02
RMM:   7    -0.960803812641E+02   -0.44561E-04   -0.20008E-03 82302   0.141E-01    0.133E-01
RMM:   8    -0.960803339192E+02    0.47345E-04   -0.29387E-04 49998   0.893E-02
   2 F= -.10158144E+03 E0= -.10156716E+03  d E =-.305701E-01  mag=    -0.0000
       N       E                     dE             d eps       ncg     rms          rms(c)
DAV:   1    -0.960762843051E+02    0.40970E-02   -0.62127E-01 88920   0.473E+00    0.290E-01
RMM:   2    -0.960815636576E+02   -0.52794E-02   -0.61876E-02110104   0.154E+00    0.369E-01
RMM:   3    -0.960827900030E+02   -0.12263E-02   -0.17715E-02111656   0.762E-01    0.497E-01
RMM:   4    -0.960823198055E+02    0.47020E-03   -0.43801E-03 96609   0.344E-01    0.290E-01
RMM:   5    -0.960827885461E+02   -0.46874E-03   -0.13573E-03 70826   0.197E-01    0.470E-01
RMM:   6    -0.960820752333E+02    0.71331E-03   -0.45938E-04 55623   0.152E-01    0.163E-01
RMM:   7    -0.960820847168E+02   -0.94835E-05   -0.16235E-04 48628   0.570E-02
   3 F= -.10158309E+03 E0= -.10156878E+03  d E =-.322198E-01  mag=    -0.0000
       N       E                     dE             d eps       ncg     rms          rms(c)
DAV:   1    -0.963071965942E+02   -0.22512E+00   -0.57881E+00102168   0.115E+01    0.351E+00
RMM:   2    -0.961934209991E+02    0.11378E+00   -0.64439E-01 98886   0.502E+00    0.307E+00
RMM:   3    -0.963908388856E+02   -0.19742E+00   -0.44939E-01 90646   0.452E+00    0.951E+00
RMM:   4    -0.961549956959E+02    0.23584E+00   -0.19262E-01 86637   0.299E+00    0.353E+00
RMM:   5    -0.962482068138E+02   -0.93211E-01   -0.22738E-01 98019   0.260E+00    0.571E+00
RMM:   6    -0.960999636206E+02    0.14824E+00   -0.10420E-01 91923   0.209E+00    0.752E-01
RMM:   7    -0.961038515429E+02   -0.38879E-02   -0.22148E-02 99663   0.445E-01    0.930E-01
RMM:   8    -0.961017588047E+02    0.20927E-02   -0.15809E-02109036   0.469E-01    0.441E-01
RMM:   9    -0.960996678334E+02    0.20910E-02   -0.24020E-03 84172   0.218E-01    0.227E-01
RMM:  10    -0.960995279419E+02    0.13989E-03   -0.21073E-03 81800   0.173E-01    0.325E-01
RMM:  11    -0.960986699419E+02    0.85800E-03   -0.26825E-03 89922   0.175E-01    0.200E-01
RMM:  12    -0.960983715281E+02    0.29841E-03   -0.81743E-04 64049   0.140E-01    0.469E-02
RMM:  13    -0.960984151623E+02   -0.43634E-04   -0.21726E-04 47458   0.958E-02
   4 F= -.10159590E+03 E0= -.10158141E+03  d E =-.128018E-01  mag=    -0.0000
       N       E                     dE             d eps       ncg     rms          rms(c)
DAV:   1    -0.961265402011E+02   -0.28169E-01   -0.72308E-01103128   0.408E+00    0.125E+00
RMM:   2    -0.961125434945E+02    0.13997E-01   -0.81729E-02 98836   0.181E+00    0.102E+00
RMM:   3    -0.961171501947E+02   -0.46067E-02   -0.55274E-02 88070   0.168E+00    0.184E+00
RMM:   4    -0.961081227956E+02    0.90274E-02   -0.24243E-02 86201   0.107E+00    0.113E+00
RMM:   5    -0.961031361209E+02    0.49867E-02   -0.90571E-03 87002   0.626E-01    0.819E-01
RMM:   6    -0.961017579578E+02    0.13782E-02   -0.30652E-03 83467   0.250E-01    0.386E-01
RMM:   7    -0.961015977268E+02    0.16023E-03   -0.84271E-04 64303   0.108E-01
   5 F= -.10159790E+03 E0= -.10158357E+03  d E =-.148030E-01  mag=     0.0000
       N       E                     dE             d eps       ncg     rms          rms(c)
DAV:   1    -0.960876773496E+02    0.14081E-01   -0.91060E-01113616   0.154E+01    0.117E+00
RMM:   2    -0.961326486346E+02   -0.44971E-01   -0.37865E-01122552   0.348E+00    0.266E+00
RMM:   3    -0.961163696470E+02    0.16279E-01   -0.99911E-02 95779   0.216E+00    0.160E+00
RMM:   4    -0.961145731808E+02    0.17965E-02   -0.36793E-02 95712   0.123E+00    0.155E+00
RMM:   5    -0.961125488507E+02    0.20243E-02   -0.13585E-02 94818   0.717E-01    0.131E+00
RMM:   6    -0.961097174588E+02    0.28314E-02   -0.60107E-03 85931   0.491E-01    0.863E-01
RMM:   7    -0.961053394416E+02    0.43780E-02   -0.29433E-03 83567   0.272E-01    0.277E-01
RMM:   8    -0.961052950554E+02    0.44386E-04   -0.12531E-03 72687   0.191E-01
   6 F= -.10160039E+03 E0= -.10158590E+03  d E =-.248758E-02  mag=     0.0000
       N       E                     dE             d eps       ncg     rms          rms(c)
DAV:   1    -0.961037466787E+02    0.15928E-02   -0.74612E-02117120   0.440E+00    0.392E-01
RMM:   2    -0.961117178269E+02   -0.79711E-02   -0.33066E-02118048   0.106E+00    0.119E+00
RMM:   3    -0.961078020731E+02    0.39158E-02   -0.82427E-03 91795   0.631E-01    0.619E-01
RMM:   4    -0.961090618740E+02   -0.12598E-02   -0.26184E-03 95185   0.242E-01    0.721E-01
RMM:   5    -0.961090336038E+02    0.28270E-04   -0.42094E-04 54987   0.115E-01
   7 F= -.10160447E+03 E0= -.10158999E+03  d E =-.656971E-02  mag=     0.0000
       N       E                     dE             d eps       ncg     rms          rms(c)
DAV:   1    -0.960985520598E+02    0.10510E-01   -0.30903E-01131952   0.908E+00    0.639E-01
RMM:   2    -0.961309253283E+02   -0.32373E-01   -0.12222E-01115690   0.202E+00    0.246E+00
RMM:   3    -0.961084726623E+02    0.22453E-01   -0.32217E-02 92447   0.129E+00    0.689E-01
RMM:   4    -0.961136705930E+02   -0.51979E-02   -0.86847E-03103342   0.525E-01    0.120E+00
RMM:   5    -0.961128087845E+02    0.86181E-03   -0.22746E-03 82636   0.250E-01    0.980E-01
RMM:   6    -0.961082360201E+02    0.45728E-02   -0.21226E-03 82177   0.270E-01    0.659E-01
RMM:   7    -0.961041572437E+02    0.40788E-02   -0.47056E-03102634   0.343E-01    0.144E-01
RMM:   8    -0.961050017761E+02   -0.84453E-03   -0.63755E-04 57623   0.144E-01    0.243E-01
RMM:   9    -0.961048071696E+02    0.19461E-03   -0.19118E-04 46912   0.110E-01
   8 F= -.10160029E+03 E0= -.10158597E+03  d E =0.417810E-02  mag=    -0.0000
       N       E                     dE             d eps       ncg     rms          rms(c)
DAV:   1    -0.961046806886E+02    0.32109E-03   -0.75487E-03129600   0.129E+00    0.932E-02
RMM:   2    -0.961063388200E+02   -0.16581E-02   -0.31368E-03 91456   0.360E-01    0.619E-01
RMM:   3    -0.961049369917E+02    0.14018E-02   -0.10889E-03 65933   0.259E-01    0.161E-01
RMM:   4    -0.961049119840E+02    0.25008E-04   -0.20953E-04 43995   0.934E-02
   9 F= -.10160039E+03 E0= -.10158609E+03  d E =0.407971E-02  mag=    -0.0000
