       N       E                     dE             d eps       ncg     rms          rms(c)
DAV:   1     0.177410600418E+04    0.17741E+04   -0.85363E+04 75296   0.175E+03
DAV:   2     0.636772060444E+01   -0.17677E+04   -0.16770E+04 75296   0.476E+02
DAV:   3    -0.102477300037E+03   -0.10885E+03   -0.10721E+03 88576   0.127E+02
DAV:   4    -0.104158990727E+03   -0.16817E+01   -0.16813E+01 79296   0.157E+01
DAV:   5    -0.104194782360E+03   -0.35792E-01   -0.35791E-01 92672   0.221E+00    0.354E+01
DAV:   6    -0.116487313742E+03   -0.12293E+02   -0.19007E+02 88704   0.644E+01    0.672E+01
DAV:   7    -0.104461069514E+03    0.12026E+02   -0.14984E+02 89344   0.512E+01    0.578E+01
DAV:   8    -0.983152111414E+02    0.61459E+01   -0.21307E+02 90080   0.385E+01    0.370E+01
DAV:   9    -0.984514224603E+02   -0.13621E+00   -0.44738E+01 85440   0.311E+01    0.418E+01
DAV:  10    -0.941449128892E+02    0.43065E+01   -0.72241E+01 84992   0.219E+01    0.237E+01
DAV:  11    -0.936082832988E+02    0.53663E+00   -0.14102E+01 88896   0.176E+01    0.221E+01
DAV:  12    -0.923031634005E+02    0.13051E+01   -0.82798E+00 87392   0.118E+01    0.108E+01
DAV:  13    -0.922581107221E+02    0.45053E-01   -0.14824E+00 90208   0.633E+00    0.916E+00
DAV:  14    -0.922385476024E+02    0.19563E-01   -0.98435E-01 88672   0.480E+00    0.741E+00
DAV:  15    -0.923860641652E+02   -0.14752E+00   -0.54514E-01 89120   0.358E+00    0.631E+00
DAV:  16    -0.924458058014E+02   -0.59742E-01   -0.72483E-01 91456   0.519E+00    0.554E+00
DAV:  17    -0.924232405234E+02    0.22565E-01   -0.61599E-01 91104   0.422E+00    0.362E+00
DAV:  18    -0.924500018090E+02   -0.26761E-01   -0.11760E-01 86784   0.166E+00    0.251E+00
DAV:  19    -0.924927845685E+02   -0.42783E-01   -0.31228E-01 91392   0.278E+00    0.314E+00
DAV:  20    -0.924613508280E+02    0.31434E-01   -0.31134E-01 90752   0.256E+00    0.136E+00
DAV:  21    -0.924714507408E+02   -0.10100E-01   -0.67124E-02 88032   0.134E+00    0.187E+00
DAV:  22    -0.924672588736E+02    0.41919E-02   -0.31385E-02 88928   0.116E+00    0.138E+00
DAV:  23    -0.924646354955E+02    0.26234E-02   -0.16915E-02 88704   0.781E-01    0.702E-01
DAV:  24    -0.924673683774E+02   -0.27329E-02   -0.13877E-02 89600   0.729E-01    0.626E-01
DAV:  25    -0.924675201445E+02   -0.15177E-03   -0.14160E-02 88960   0.858E-01    0.506E-01
DAV:  26    -0.924675053688E+02    0.14776E-04   -0.38825E-03 91232   0.443E-01    0.200E-01
DAV:  27    -0.924676817670E+02   -0.17640E-03   -0.63549E-04 86528   0.113E-01    0.847E-02
DAV:  28    -0.924677154440E+02   -0.33677E-04   -0.10490E-04 89984   0.579E-02    0.427E-02
DAV:  29    -0.924677191542E+02   -0.37102E-05   -0.35501E-05 89504   0.289E-02    0.253E-02
DAV:  30    -0.924677186196E+02    0.53458E-06   -0.11554E-05 89536   0.188E-02    0.140E-02
DAV:  31    -0.924677164494E+02    0.21702E-05   -0.30577E-06 77312   0.103E-02    0.970E-03
DAV:  32    -0.924677158539E+02    0.59550E-06   -0.11536E-06 44608   0.677E-03
   1 F= -.92467716E+02 E0= -.92467716E+02  d E =0.000000E+00  mag=    20.2591
