 vasp.6.4.3 19Mar24 (build Mar 26 2024 14:05:37) complex                        
  
 executed on             LinuxIFC date 2024.12.17  06:36:54
 running  128 mpi-ranks, on    1 nodes
 distrk:  each k-point on   32 cores,    4 groups
 distr:  one band on NCORE=   1 cores,   32 groups


--------------------------------------------------------------------------------------------------------


 INCAR:
   ALGO = Normal
   EDIFF = 1e-06
   EDIFFG = -0.01
   ENCUT = 520
   GGA = Pe
   IBRION = -1
   ISIF = 4
   ISMEAR = -5
   ISPIN = 2
   KPAR = 4
   LCHARG = True
   LORBIT = 11
   LREAL = False
   LWAVE = False
   MAGMOM = 1*-2.79 2*2.967 2*2.786 1*2.921 1*2.591 2*2.837 2*0.121 1*0.3
   NELM = 200
   NSW = 0
   PREC = Accurate
   SIGMA = 0.2

 POTCAR:    PAW_PBE Fe_pv 02Aug2007               
 POTCAR:    PAW_PBE Pt 04Feb2005                  
 -----------------------------------------------------------------------------
|                                                                             |
|           W    W    AA    RRRRR   N    N  II  N    N   GGGG   !!!           |
|           W    W   A  A   R    R  NN   N  II  NN   N  G    G  !!!           |
|           W    W  A    A  R    R  N N  N  II  N N  N  G       !!!           |
|           W WW W  AAAAAA  RRRRR   N  N N  II  N  N N  G  GGG   !            |
|           WW  WW  A    A  R   R   N   NN  II  N   NN  G    G                |
|           W    W  A    A  R    R  N    N  II  N    N   GGGG   !!!           |
|                                                                             |
|     For optimal performance we recommend to set                             |
|       NCORE = 2 up to number-of-cores-per-socket                            |
|     NCORE specifies how many cores store one orbital (NPAR=cpu/NCORE).      |
|     This setting can greatly improve the performance of VASP for DFT.       |
|     The default, NCORE=1 might be grossly inefficient on modern             |
|     multi-core architectures or massively parallel machines. Do your        |
|     own testing! More info at https://www.vasp.at/wiki/index.php/NCORE      |
|     Unfortunately you need to use the default for GW and RPA                |
|     calculations (for HF NCORE is supported but not extensively tested      |
|     yet).                                                                   |
|                                                                             |
 -----------------------------------------------------------------------------

 POTCAR:    PAW_PBE Fe_pv 02Aug2007               
   SHA256 =  5d22e414b1f82158bf2c7ecb8b97b28fd0923e48cadc1c3bf74d524558f5dd32 Fe_pv/POTCAR          
   COPYR  = (c) Copyright 02Aug2007 Georg Kresse                                                    
   COPYR  = This file is part of the software VASP. Any use, copying, and all other rights are regul
   COPYR  = If you do not have a valid VASP license, you may not use, copy or distribute this file. 
   VRHFIN =Fe:  3pd7s1                                                                              
   LEXCH  = PE                                                                                      
   EATOM  =  2457.4239 eV,  180.6156 Ry                                                             
                                                                                                    
   TITEL  = PAW_PBE Fe_pv 02Aug2007                                                                 
   LULTRA =        F    use ultrasoft PP ?                                                          
   IUNSCR =        1    unscreen: 0-lin 1-nonlin 2-no                                               
   RPACOR =    1.750    partial core radius                                                         
   POMASS =   55.847; ZVAL   =   14.000    mass and valenz                                          
   RCORE  =    2.200    outmost cutoff radius                                                       
   RWIGS  =    2.200; RWIGS  =    1.164    wigner-seitz radius (au A)                               
   ENMAX  =  293.238; ENMIN  =  219.928 eV                                                          
   ICORE  =        3    local potential                                                             
   LCOR   =        T    correct aug charges                                                         
   LPAW   =        T    paw PP                                                                      
   EAUG   =  578.342                                                                                
   DEXC   =    0.000                                                                                
   RMAX   =    2.249    core radius for proj-oper                                                   
   RAUG   =    1.300    factor for augmentation sphere                                              
   RDEP   =    2.296    radius for radial grids                                                     
   RDEPT  =    1.766    core radius for aug-charge                                                  
                                                                                                    
   Atomic configuration                                                                             
    8 entries                                                                                       
     n  l   j            E        occ.                                                              
     1  0  0.50     -6993.8440   2.0000                                                             
     2  0  0.50      -814.6047   2.0000                                                             
     2  1  1.50      -693.3689   6.0000                                                             
     3  0  0.50       -89.4732   2.0000                                                             
     3  1  1.50       -55.6373   6.0000                                                             
     3  2  2.50        -3.8151   7.0000                                                             
     4  0  0.50        -4.2551   1.0000                                                             
     4  3  2.50        -1.3606   0.0000                                                             
   Description                                                                                      
     l       E           TYP  RCUT    TYP  RCUT                                                     
     1    -55.6372668     23  2.000                                                                 
     1     -5.4423304     23  2.000                                                                 
     2     -3.8151096     23  2.200                                                                 
     2     -5.1756922     23  2.200                                                                 
     0     -4.2550951     23  2.200                                                                 
     0     27.2116520     23  2.200                                                                 
     3     -1.3605826     23  2.200                                                                 
  local pseudopotential read in
  partial core-charges read in
  partial kinetic energy density read in
  atomic valenz-charges read in
  non local Contribution for L=           1  read in
    real space projection operators read in
  non local Contribution for L=           1  read in
    real space projection operators read in
  non local Contribution for L=           2  read in
    real space projection operators read in
  non local Contribution for L=           2  read in
    real space projection operators read in
  non local Contribution for L=           0  read in
    real space projection operators read in
  non local Contribution for L=           0  read in
    real space projection operators read in
    PAW grid and wavefunctions read in
 
   number of l-projection  operators is LMAX  =           6
   number of lm-projection operators is LMMAX =          18
 
 POTCAR:    PAW_PBE Pt 04Feb2005                  
   SHA256 =  3ed90460adef76debcff1cfb73ee1349b515b1a3db03439735b44de3a8db7dc8 Pt/POTCAR             
   COPYR  = (c) Copyright 04Feb2005 Georg Kresse                                                    
   COPYR  = This file is part of the software VASP. Any use, copying, and all other rights are regul
   COPYR  = If you do not have a valid VASP license, you may not use, copy or distribute this file. 
   VRHFIN =Pt: s1d9                                                                                 
   LEXCH  = PE                                                                                      
   EATOM  =   729.1176 eV,   53.5886 Ry                                                             
                                                                                                    
   TITEL  = PAW_PBE Pt 04Feb2005                                                                    
   LULTRA =        F    use ultrasoft PP ?                                                          
   IUNSCR =        1    unscreen: 0-lin 1-nonlin 2-no                                               
   RPACOR =    2.330    partial core radius                                                         
   POMASS =  195.080; ZVAL   =   10.000    mass and valenz                                          
   RCORE  =    2.600    outmost cutoff radius                                                       
   RWIGS  =    2.750; RWIGS  =    1.455    wigner-seitz radius (au A)                               
   ENMAX  =  230.283; ENMIN  =  172.712 eV                                                          
   ICORE  =        3    local potential                                                             
   LCOR   =        T    correct aug charges                                                         
   LPAW   =        T    paw PP                                                                      
   EAUG   =  358.966                                                                                
   DEXC   =    0.000                                                                                
   RMAX   =    2.658    core radius for proj-oper                                                   
   RAUG   =    1.300    factor for augmentation sphere                                              
   RDEP   =    2.761    radius for radial grids                                                     
   RDEPT  =    2.203    core radius for aug-charge                                                  
                                                                                                    
   Atomic configuration                                                                             
   16 entries                                                                                       
     n  l   j            E        occ.                                                              
     1  0  0.50    -78401.1885   2.0000                                                             
     2  0  0.50    -13770.7750   2.0000                                                             
     2  1  1.50    -11931.0468   6.0000                                                             
     3  0  0.50     -3234.7234   2.0000                                                             
     3  1  1.50     -2699.2216   6.0000                                                             
     3  2  2.50     -2119.5714  10.0000                                                             
     4  0  0.50      -695.1528   2.0000                                                             
     4  1  1.50      -519.6034   6.0000                                                             
     4  2  2.50      -306.6786  10.0000                                                             
     4  3  3.50       -70.1041  14.0000                                                             
     5  0  0.50      -101.7747   2.0000                                                             
     5  1  1.50       -55.9873   6.0000                                                             
     5  2  2.50        -6.1423   9.0000                                                             
     6  0  0.50        -5.6573   1.0000                                                             
     6  1  1.50        -6.8029   0.0000                                                             
     5  3  2.50        -1.3606   0.0000                                                             
   Description                                                                                      
     l       E           TYP  RCUT    TYP  RCUT                                                     
     2     -6.1423404     23  2.500                                                                 
     2     -7.5029230     23  2.500                                                                 
     0     -5.6573207     23  2.500                                                                 
     0      0.7416693     23  2.500                                                                 
     1     -2.7211652     23  2.600                                                                 
     1     20.4087390     23  2.600                                                                 
     3     -1.3605826     23  2.500                                                                 
  local pseudopotential read in
  partial core-charges read in
  partial kinetic energy density read in
  atomic valenz-charges read in
  non local Contribution for L=           2  read in
    real space projection operators read in
  non local Contribution for L=           2  read in
    real space projection operators read in
  non local Contribution for L=           0  read in
    real space projection operators read in
  non local Contribution for L=           0  read in
    real space projection operators read in
  non local Contribution for L=           1  read in
    real space projection operators read in
  non local Contribution for L=           1  read in
    real space projection operators read in
    PAW grid and wavefunctions read in
 
   number of l-projection  operators is LMAX  =           6
   number of lm-projection operators is LMMAX =          18
 
  PAW_PBE Fe_pv 02Aug2007               :
 energy of atom  1       EATOM=-2457.4239
 kinetic energy error for atom=    0.0062 (will be added to EATOM!!)
  PAW_PBE Pt 04Feb2005                  :
 energy of atom  2       EATOM= -729.1176
 kinetic energy error for atom=    0.0032 (will be added to EATOM!!)
 
 
 POSCAR: Fe9 Pt3
  positions in direct lattice
  velocities in cartesian coordinates


 exchange-correlation table for PE
   RHO(1)=    0.500       N(1)  =     2000
   RHO(2)=  100.500       N(2)  =     4000
 


--------------------------------------------------------------------------------------------------------


 ion  position               nearest neighbor table
   1  0.000  0.500  0.167-  11 2.64  11 2.64  10 2.64  10 2.64   7 2.71   7 2.71   7 2.71   7 2.71
                             5 2.76   5 2.76   4 2.76   4 2.76
   2  0.000  0.500  0.499-  12 2.69  12 2.69   8 2.71   8 2.71   8 2.71   8 2.71  11 2.73  11 2.73
                             6 2.79   6 2.79
   3  0.000  0.500  0.834-  12 2.69  12 2.69   9 2.71   9 2.71   9 2.71   9 2.71  10 2.73  10 2.73
                             6 2.79   6 2.79
   4  0.500  0.500  0.003-   7 2.66   7 2.66   9 2.70   9 2.70  10 2.71  10 2.71  10 2.71  10 2.71
                             1 2.76   1 2.76
   5  0.500  0.500  0.330-   7 2.66   7 2.66   8 2.70   8 2.70  11 2.71  11 2.71  11 2.71  11 2.71
                             1 2.76   1 2.76
   6  0.500  0.500  0.667-   9 2.71   9 2.71   8 2.71   8 2.71  12 2.71  12 2.71  12 2.71  12 2.71
                             3 2.79   3 2.79   2 2.79   2 2.79
   7  0.500  0.000  0.167-   5 2.66   5 2.66   4 2.66   4 2.66   1 2.71   1 2.71   1 2.71   1 2.71
                            10 2.74  10 2.74  11 2.74  11 2.74
   8  0.500  0.000  0.498-   5 2.70   5 2.70   6 2.71   6 2.71   2 2.71   2 2.71   2 2.71   2 2.71
                            12 2.80  12 2.80  11 2.82  11 2.82
   9  0.500  0.000  0.835-   4 2.70   4 2.70   6 2.71   6 2.71   3 2.71   3 2.71   3 2.71   3 2.71
                            12 2.80  12 2.80  10 2.82  10 2.82
  10  0.000  0.000  0.006-   1 2.64   1 2.64   4 2.71   4 2.71   4 2.71   4 2.71   3 2.73   3 2.73
                             7 2.74   7 2.74   9 2.82   9 2.82
  11  0.000  0.000  0.327-   1 2.64   1 2.64   5 2.71   5 2.71   5 2.71   5 2.71   2 2.73   2 2.73
                             7 2.74   7 2.74   8 2.82   8 2.82
  12  0.000  0.000  0.667-   3 2.69   3 2.69   2 2.69   2 2.69   6 2.71   6 2.71   6 2.71   6 2.71
                             9 2.80   9 2.80   8 2.80   8 2.80
 
  LATTYP: Found a simple orthorhombic cell.
 ALAT       =     3.6963054236
 B/A-ratio  =     1.0745185228
 C/A-ratio  =     3.1696476853
  
  Lattice vectors:
  
 A1 = (   0.0000000000,  -3.6963054236,   0.0000000000)
 A2 = (   3.9717486437,   0.0000000000,   0.0000000000)
 A3 = (   0.0000000000,   0.0000000000,  11.7159859302)


Analysis of symmetry for initial positions (statically):
=====================================================================
 Subroutine PRICEL returns:
 Original cell was already a primitive cell.
 

 Routine SETGRP: Setting up the symmetry group for a 
 simple orthorhombic supercell.


 Subroutine GETGRP returns: Found  4 space group operations
 (whereof  4 operations were pure point group operations)
 out of a pool of  8 trial point group operations.


The static configuration has the point symmetry C_2v.


Analysis of symmetry for dynamics (positions and initial velocities):
=====================================================================
 Subroutine PRICEL returns:
 Original cell was already a primitive cell.
 

 Routine SETGRP: Setting up the symmetry group for a 
 simple orthorhombic supercell.


 Subroutine GETGRP returns: Found  4 space group operations
 (whereof  4 operations were pure point group operations)
 out of a pool of  8 trial point group operations.


The dynamic configuration has the point symmetry C_2v.


Analysis of structural, dynamic, and magnetic symmetry:
=====================================================================
 Subroutine PRICEL returns:
 Original cell was already a primitive cell.
 

 Routine SETGRP: Setting up the symmetry group for a 
 simple orthorhombic supercell.


 Subroutine GETGRP returns: Found  4 space group operations
 (whereof  4 operations were pure point group operations)
 out of a pool of  8 trial point group operations.


The overall configuration has the point symmetry C_2v.


 Subroutine INISYM returns: Found  4 space group operations
 (whereof  4 operations are pure point group operations),
 and found     1 'primitive' translations


----------------------------------------------------------------------------------------

                                     Primitive cell                                     

  volume of cell :     172.0000

  direct lattice vectors                    reciprocal lattice vectors
     3.971748644  0.000000000  0.000000000     0.251778269  0.000000000  0.000000000
     0.000000000  3.696305424  0.000000000     0.000000000  0.270540414  0.000000000
     0.000000000  0.000000000 11.715985930     0.000000000  0.000000000  0.085353465

  length of vectors
     3.971748644  3.696305424 11.715985930     0.251778269  0.270540414  0.085353465

  position of ions in fractional coordinates (direct lattice)
     0.000000000  0.500000000  0.166660196
     0.000000000  0.500000000  0.499341332
     0.000000000  0.500000000  0.834004952
     0.500000000  0.500000000  0.003175876
     0.500000000  0.500000000  0.330110487
     0.500000000  0.500000000  0.666708004
     0.500000000  0.000000000  0.166655884
     0.500000000  0.000000000  0.497855876
     0.500000000  0.000000000  0.835486258
     0.000000000  0.000000000  0.005939769
     0.000000000  0.000000000  0.327375546
     0.000000000  0.000000000  0.666685820

  ion indices of the primitive-cell ions
   primitive index   ion index
                 1           1
                 2           2
                 3           3
                 4           4
                 5           5
                 6           6
                 7           7
                 8           8
                 9           9
                10          10
                11          11
                12          12

----------------------------------------------------------------------------------------

 
 
 KPOINTS: pymatgen with grid density = 8800 / numb

Automatic generation of k-mesh.
 Grid dimensions read from file:
 generate k-points for:   13   13    4

 Generating k-lattice:

  Cartesian coordinates                     Fractional coordinates (reciprocal lattice)
     0.019367559  0.000000000  0.000000000     0.076923077  0.000000000  0.000000000
     0.000000000  0.020810801  0.000000000     0.000000000  0.076923077  0.000000000
     0.000000000  0.000000000  0.021338366     0.000000000  0.000000000  0.250000000

  Length of vectors
     0.019367559  0.020810801  0.021338366

  Shift w.r.t. Gamma in fractional coordinates (k-lattice)
     0.000000000  0.000000000  0.000000000

 TETIRR: Found   2022 inequivalent tetrahedra from     4056
 
 Subroutine IBZKPT returns following result:
 ===========================================
 
 Found    147 irreducible k-points:
 
 Following reciprocal coordinates:
            Coordinates               Weight
  0.000000  0.000000  0.000000      1.000000
  0.076923  0.000000  0.000000      2.000000
  0.153846  0.000000  0.000000      2.000000
  0.230769  0.000000  0.000000      2.000000
  0.307692  0.000000  0.000000      2.000000
  0.384615  0.000000  0.000000      2.000000
  0.461538  0.000000  0.000000      2.000000
  0.000000  0.076923  0.000000      2.000000
  0.076923  0.076923  0.000000      4.000000
  0.153846  0.076923  0.000000      4.000000
  0.230769  0.076923  0.000000      4.000000
  0.307692  0.076923  0.000000      4.000000
  0.384615  0.076923  0.000000      4.000000
  0.461538  0.076923  0.000000      4.000000
  0.000000  0.153846  0.000000      2.000000
  0.076923  0.153846  0.000000      4.000000
  0.153846  0.153846  0.000000      4.000000
  0.230769  0.153846  0.000000      4.000000
  0.307692  0.153846  0.000000      4.000000
  0.384615  0.153846  0.000000      4.000000
  0.461538  0.153846  0.000000      4.000000
  0.000000  0.230769  0.000000      2.000000
  0.076923  0.230769  0.000000      4.000000
  0.153846  0.230769  0.000000      4.000000
  0.230769  0.230769  0.000000      4.000000
  0.307692  0.230769  0.000000      4.000000
  0.384615  0.230769  0.000000      4.000000
  0.461538  0.230769  0.000000      4.000000
  0.000000  0.307692  0.000000      2.000000
  0.076923  0.307692  0.000000      4.000000
  0.153846  0.307692  0.000000      4.000000
  0.230769  0.307692  0.000000      4.000000
  0.307692  0.307692  0.000000      4.000000
  0.384615  0.307692  0.000000      4.000000
  0.461538  0.307692  0.000000      4.000000
  0.000000  0.384615  0.000000      2.000000
  0.076923  0.384615  0.000000      4.000000
  0.153846  0.384615  0.000000      4.000000
  0.230769  0.384615  0.000000      4.000000
  0.307692  0.384615  0.000000      4.000000
  0.384615  0.384615  0.000000      4.000000
  0.461538  0.384615  0.000000      4.000000
  0.000000  0.461538  0.000000      2.000000
  0.076923  0.461538  0.000000      4.000000
  0.153846  0.461538  0.000000      4.000000
  0.230769  0.461538  0.000000      4.000000
  0.307692  0.461538  0.000000      4.000000
  0.384615  0.461538  0.000000      4.000000
  0.461538  0.461538  0.000000      4.000000
  0.000000  0.000000  0.250000      2.000000
  0.076923  0.000000  0.250000      4.000000
  0.153846  0.000000  0.250000      4.000000
  0.230769  0.000000  0.250000      4.000000
  0.307692  0.000000  0.250000      4.000000
  0.384615  0.000000  0.250000      4.000000
  0.461538  0.000000  0.250000      4.000000
  0.000000  0.076923  0.250000      4.000000
  0.076923  0.076923  0.250000      8.000000
  0.153846  0.076923  0.250000      8.000000
  0.230769  0.076923  0.250000      8.000000
  0.307692  0.076923  0.250000      8.000000
  0.384615  0.076923  0.250000      8.000000
  0.461538  0.076923  0.250000      8.000000
  0.000000  0.153846  0.250000      4.000000
  0.076923  0.153846  0.250000      8.000000
  0.153846  0.153846  0.250000      8.000000
  0.230769  0.153846  0.250000      8.000000
  0.307692  0.153846  0.250000      8.000000
  0.384615  0.153846  0.250000      8.000000
  0.461538  0.153846  0.250000      8.000000
  0.000000  0.230769  0.250000      4.000000
  0.076923  0.230769  0.250000      8.000000
  0.153846  0.230769  0.250000      8.000000
  0.230769  0.230769  0.250000      8.000000
  0.307692  0.230769  0.250000      8.000000
  0.384615  0.230769  0.250000      8.000000
  0.461538  0.230769  0.250000      8.000000
  0.000000  0.307692  0.250000      4.000000
  0.076923  0.307692  0.250000      8.000000
  0.153846  0.307692  0.250000      8.000000
  0.230769  0.307692  0.250000      8.000000
  0.307692  0.307692  0.250000      8.000000
  0.384615  0.307692  0.250000      8.000000
  0.461538  0.307692  0.250000      8.000000
  0.000000  0.384615  0.250000      4.000000
  0.076923  0.384615  0.250000      8.000000
  0.153846  0.384615  0.250000      8.000000
  0.230769  0.384615  0.250000      8.000000
  0.307692  0.384615  0.250000      8.000000
  0.384615  0.384615  0.250000      8.000000
  0.461538  0.384615  0.250000      8.000000
  0.000000  0.461538  0.250000      4.000000
  0.076923  0.461538  0.250000      8.000000
  0.153846  0.461538  0.250000      8.000000
  0.230769  0.461538  0.250000      8.000000
  0.307692  0.461538  0.250000      8.000000
  0.384615  0.461538  0.250000      8.000000
  0.461538  0.461538  0.250000      8.000000
  0.000000  0.000000  0.500000      1.000000
  0.076923  0.000000  0.500000      2.000000
  0.153846  0.000000  0.500000      2.000000
  0.230769  0.000000  0.500000      2.000000
  0.307692  0.000000  0.500000      2.000000
  0.384615  0.000000  0.500000      2.000000
  0.461538  0.000000  0.500000      2.000000
  0.000000  0.076923  0.500000      2.000000
  0.076923  0.076923  0.500000      4.000000
  0.153846  0.076923  0.500000      4.000000
  0.230769  0.076923  0.500000      4.000000
  0.307692  0.076923  0.500000      4.000000
  0.384615  0.076923  0.500000      4.000000
  0.461538  0.076923  0.500000      4.000000
  0.000000  0.153846  0.500000      2.000000
  0.076923  0.153846  0.500000      4.000000
  0.153846  0.153846  0.500000      4.000000
  0.230769  0.153846  0.500000      4.000000
  0.307692  0.153846  0.500000      4.000000
  0.384615  0.153846  0.500000      4.000000
  0.461538  0.153846  0.500000      4.000000
  0.000000  0.230769  0.500000      2.000000
  0.076923  0.230769  0.500000      4.000000
  0.153846  0.230769  0.500000      4.000000
  0.230769  0.230769  0.500000      4.000000
  0.307692  0.230769  0.500000      4.000000
  0.384615  0.230769  0.500000      4.000000
  0.461538  0.230769  0.500000      4.000000
  0.000000  0.307692  0.500000      2.000000
  0.076923  0.307692  0.500000      4.000000
  0.153846  0.307692  0.500000      4.000000
  0.230769  0.307692  0.500000      4.000000
  0.307692  0.307692  0.500000      4.000000
  0.384615  0.307692  0.500000      4.000000
  0.461538  0.307692  0.500000      4.000000
  0.000000  0.384615  0.500000      2.000000
  0.076923  0.384615  0.500000      4.000000
  0.153846  0.384615  0.500000      4.000000
  0.230769  0.384615  0.500000      4.000000
  0.307692  0.384615  0.500000      4.000000
  0.384615  0.384615  0.500000      4.000000
  0.461538  0.384615  0.500000      4.000000
  0.000000  0.461538  0.500000      2.000000
  0.076923  0.461538  0.500000      4.000000
  0.153846  0.461538  0.500000      4.000000
  0.230769  0.461538  0.500000      4.000000
  0.307692  0.461538  0.500000      4.000000
  0.384615  0.461538  0.500000      4.000000
  0.461538  0.461538  0.500000      4.000000
 
 Following cartesian coordinates:
            Coordinates               Weight
  0.000000  0.000000  0.000000      1.000000
  0.019368  0.000000  0.000000      2.000000
  0.038735  0.000000  0.000000      2.000000
  0.058103  0.000000  0.000000      2.000000
  0.077470  0.000000  0.000000      2.000000
  0.096838  0.000000  0.000000      2.000000
  0.116205  0.000000  0.000000      2.000000
  0.000000  0.020811  0.000000      2.000000
  0.019368  0.020811  0.000000      4.000000
  0.038735  0.020811  0.000000      4.000000
  0.058103  0.020811  0.000000      4.000000
  0.077470  0.020811  0.000000      4.000000
  0.096838  0.020811  0.000000      4.000000
  0.116205  0.020811  0.000000      4.000000
  0.000000  0.041622  0.000000      2.000000
  0.019368  0.041622  0.000000      4.000000
  0.038735  0.041622  0.000000      4.000000
  0.058103  0.041622  0.000000      4.000000
  0.077470  0.041622  0.000000      4.000000
  0.096838  0.041622  0.000000      4.000000
  0.116205  0.041622  0.000000      4.000000
  0.000000  0.062432  0.000000      2.000000
  0.019368  0.062432  0.000000      4.000000
  0.038735  0.062432  0.000000      4.000000
  0.058103  0.062432  0.000000      4.000000
  0.077470  0.062432  0.000000      4.000000
  0.096838  0.062432  0.000000      4.000000
  0.116205  0.062432  0.000000      4.000000
  0.000000  0.083243  0.000000      2.000000
  0.019368  0.083243  0.000000      4.000000
  0.038735  0.083243  0.000000      4.000000
  0.058103  0.083243  0.000000      4.000000
  0.077470  0.083243  0.000000      4.000000
  0.096838  0.083243  0.000000      4.000000
  0.116205  0.083243  0.000000      4.000000
  0.000000  0.104054  0.000000      2.000000
  0.019368  0.104054  0.000000      4.000000
  0.038735  0.104054  0.000000      4.000000
  0.058103  0.104054  0.000000      4.000000
  0.077470  0.104054  0.000000      4.000000
  0.096838  0.104054  0.000000      4.000000
  0.116205  0.104054  0.000000      4.000000
  0.000000  0.124865  0.000000      2.000000
  0.019368  0.124865  0.000000      4.000000
  0.038735  0.124865  0.000000      4.000000
  0.058103  0.124865  0.000000      4.000000
  0.077470  0.124865  0.000000      4.000000
  0.096838  0.124865  0.000000      4.000000
  0.116205  0.124865  0.000000      4.000000
  0.000000  0.000000  0.021338      2.000000
  0.019368  0.000000  0.021338      4.000000
  0.038735  0.000000  0.021338      4.000000
  0.058103  0.000000  0.021338      4.000000
  0.077470  0.000000  0.021338      4.000000
  0.096838  0.000000  0.021338      4.000000
  0.116205  0.000000  0.021338      4.000000
  0.000000  0.020811  0.021338      4.000000
  0.019368  0.020811  0.021338      8.000000
  0.038735  0.020811  0.021338      8.000000
  0.058103  0.020811  0.021338      8.000000
  0.077470  0.020811  0.021338      8.000000
  0.096838  0.020811  0.021338      8.000000
  0.116205  0.020811  0.021338      8.000000
  0.000000  0.041622  0.021338      4.000000
  0.019368  0.041622  0.021338      8.000000
  0.038735  0.041622  0.021338      8.000000
  0.058103  0.041622  0.021338      8.000000
  0.077470  0.041622  0.021338      8.000000
  0.096838  0.041622  0.021338      8.000000
  0.116205  0.041622  0.021338      8.000000
  0.000000  0.062432  0.021338      4.000000
  0.019368  0.062432  0.021338      8.000000
  0.038735  0.062432  0.021338      8.000000
  0.058103  0.062432  0.021338      8.000000
  0.077470  0.062432  0.021338      8.000000
  0.096838  0.062432  0.021338      8.000000
  0.116205  0.062432  0.021338      8.000000
  0.000000  0.083243  0.021338      4.000000
  0.019368  0.083243  0.021338      8.000000
  0.038735  0.083243  0.021338      8.000000
  0.058103  0.083243  0.021338      8.000000
  0.077470  0.083243  0.021338      8.000000
  0.096838  0.083243  0.021338      8.000000
  0.116205  0.083243  0.021338      8.000000
  0.000000  0.104054  0.021338      4.000000
  0.019368  0.104054  0.021338      8.000000
  0.038735  0.104054  0.021338      8.000000
  0.058103  0.104054  0.021338      8.000000
  0.077470  0.104054  0.021338      8.000000
  0.096838  0.104054  0.021338      8.000000
  0.116205  0.104054  0.021338      8.000000
  0.000000  0.124865  0.021338      4.000000
  0.019368  0.124865  0.021338      8.000000
  0.038735  0.124865  0.021338      8.000000
  0.058103  0.124865  0.021338      8.000000
  0.077470  0.124865  0.021338      8.000000
  0.096838  0.124865  0.021338      8.000000
  0.116205  0.124865  0.021338      8.000000
  0.000000  0.000000  0.042677      1.000000
  0.019368  0.000000  0.042677      2.000000
  0.038735  0.000000  0.042677      2.000000
  0.058103  0.000000  0.042677      2.000000
  0.077470  0.000000  0.042677      2.000000
  0.096838  0.000000  0.042677      2.000000
  0.116205  0.000000  0.042677      2.000000
  0.000000  0.020811  0.042677      2.000000
  0.019368  0.020811  0.042677      4.000000
  0.038735  0.020811  0.042677      4.000000
  0.058103  0.020811  0.042677      4.000000
  0.077470  0.020811  0.042677      4.000000
  0.096838  0.020811  0.042677      4.000000
  0.116205  0.020811  0.042677      4.000000
  0.000000  0.041622  0.042677      2.000000
  0.019368  0.041622  0.042677      4.000000
  0.038735  0.041622  0.042677      4.000000
  0.058103  0.041622  0.042677      4.000000
  0.077470  0.041622  0.042677      4.000000
  0.096838  0.041622  0.042677      4.000000
  0.116205  0.041622  0.042677      4.000000
  0.000000  0.062432  0.042677      2.000000
  0.019368  0.062432  0.042677      4.000000
  0.038735  0.062432  0.042677      4.000000
  0.058103  0.062432  0.042677      4.000000
  0.077470  0.062432  0.042677      4.000000
  0.096838  0.062432  0.042677      4.000000
  0.116205  0.062432  0.042677      4.000000
  0.000000  0.083243  0.042677      2.000000
  0.019368  0.083243  0.042677      4.000000
  0.038735  0.083243  0.042677      4.000000
  0.058103  0.083243  0.042677      4.000000
  0.077470  0.083243  0.042677      4.000000
  0.096838  0.083243  0.042677      4.000000
  0.116205  0.083243  0.042677      4.000000
  0.000000  0.104054  0.042677      2.000000
  0.019368  0.104054  0.042677      4.000000
  0.038735  0.104054  0.042677      4.000000
  0.058103  0.104054  0.042677      4.000000
  0.077470  0.104054  0.042677      4.000000
  0.096838  0.104054  0.042677      4.000000
  0.116205  0.104054  0.042677      4.000000
  0.000000  0.124865  0.042677      2.000000
  0.019368  0.124865  0.042677      4.000000
  0.038735  0.124865  0.042677      4.000000
  0.058103  0.124865  0.042677      4.000000
  0.077470  0.124865  0.042677      4.000000
  0.096838  0.124865  0.042677      4.000000
  0.116205  0.124865  0.042677      4.000000
 


--------------------------------------------------------------------------------------------------------




 Dimension of arrays:
   k-points           NKPTS =    147   k-points in BZ     NKDIM =    147   number of bands    NBANDS=    128
   number of dos      NEDOS =    301   number of ions     NIONS =     12
   non local maximal  LDIM  =      6   non local SUM 2l+1 LMDIM =     18
   total plane-waves  NPLWV =  75600
   max r-space proj   IRMAX =      1   max aug-charges    IRDMAX=  26818
   dimension x,y,z NGX =    30 NGY =   28 NGZ =   90
   dimension x,y,z NGXF=    60 NGYF=   56 NGZF=  180
   support grid    NGXF=    60 NGYF=   56 NGZF=  180
   ions per type =               9   3
   NGX,Y,Z   is equivalent  to a cutoff of  12.56, 12.59, 12.77 a.u.
   NGXF,Y,Z  is equivalent  to a cutoff of  25.11, 25.19, 25.54 a.u.

 SYSTEM =  unknown system                          
 POSCAR =  Fe9 Pt3                                 

 Startparameter for this run:
   NWRITE =      2    write-flag & timer
   PREC   = accura    normal or accurate (medium, high low for compatibility)
   ISTART =      0    job   : 0-new  1-cont  2-samecut
   ICHARG =      2    charge: 1-file 2-atom 10-const
   ISPIN  =      2    spin polarized calculation?
   LNONCOLLINEAR =      F non collinear calculations
   LSORBIT =      F    spin-orbit coupling
   INIWAV =      1    electr: 0-lowe 1-rand  2-diag
   LASPH  =      F    aspherical Exc in radial PAW
 Electronic Relaxation 1
   ENCUT  =  520.0 eV  38.22 Ry    6.18 a.u.   7.38  6.87 21.78*2*pi/ulx,y,z
   ENINI  =  520.0     initial cutoff
   ENAUG  =  578.3 eV  augmentation charge cutoff
   NELM   =    200;   NELMIN=  2; NELMDL=  0     # of ELM steps 
   EDIFF  = 0.1E-05   stopping-criterion for ELM
   LREAL  =      F    real-space projection
   NLSPLINE    = F    spline interpolate recip. space projectors
   LCOMPAT=      F    compatible to vasp.4.4
   GGA_COMPAT  = T    GGA compatible to vasp.4.4-vasp.4.6
   LMAXPAW     = -100 max onsite density
   LMAXMIX     =    2 max onsite mixed and CHGCAR
   VOSKOWN=      0    Vosko Wilk Nusair interpolation
   ROPT   =    0.00000   0.00000
 Ionic relaxation
   EDIFFG = -.1E-01   stopping-criterion for IOM
   NSW    =      0    number of steps for IOM
   NBLOCK =      1;   KBLOCK =      1    inner block; outer block 
   IBRION =     -1    ionic relax: 0-MD 1-quasi-New 2-CG
   NFREE  =      0    steps in history (QN), initial steepest desc. (CG)
   ISIF   =      4    stress and relaxation
   IWAVPR =     10    prediction:  0-non 1-charg 2-wave 3-comb
   ISYM   =      2    0-nonsym 1-usesym 2-fastsym
   LCORR  =      T    Harris-Foulkes like correction to forces

   POTIM  = 0.5000    time-step for ionic-motion
   TEIN   =    0.0    initial temperature
   TEBEG  =    0.0;   TEEND  =   0.0 temperature during run
   SMASS  =  -3.00    Nose mass-parameter (am)
   estimated Nose-frequenzy (Omega)   =  0.10E-29 period in steps = 0.13E+47 mass=  -0.360E-27a.u.
   SCALEE = 1.0000    scale energy and forces
   NPACO  =    256;   APACO  = 10.0  distance and # of slots for P.C.
   PSTRESS=    0.0 pullay stress

  Mass of Ions in am
   POMASS =  55.85195.08
  Ionic Valenz
   ZVAL   =  14.00 10.00
  Atomic Wigner-Seitz radii
   RWIGS  =  -1.00 -1.00
  virtual crystal weights 
   VCA    =   1.00  1.00
   NELECT =     156.0000    total number of electrons
   NUPDOWN=      -1.0000    fix difference up-down

 DOS related values:
   EMIN   =  10.00;   EMAX   =-10.00  energy-range for DOS
   EFERMI =   0.00;   METHOD = LEGACY      
   ISMEAR =    -5;   SIGMA  =   0.20  broadening in eV -4-tet -1-fermi 0-gaus

 Electronic relaxation 2 (details)
   IALGO  =     38    algorithm
   LDIAG  =      T    sub-space diagonalisation (order eigenvalues)
   LSUBROT=      F    optimize rotation matrix (better conditioning)
   TURBO    =      0    0=normal 1=particle mesh
   IRESTART =      0    0=no restart 2=restart with 2 vectors
   NREBOOT  =      0    no. of reboots
   NMIN     =      0    reboot dimension
   EREF     =   0.00    reference energy to select bands
   IMIX   =      4    mixing-type and parameters
     AMIX     =   0.40;   BMIX     =  1.00
     AMIX_MAG =   1.60;   BMIX_MAG =  1.00
     AMIN     =   0.10
     WC   =   100.;   INIMIX=   1;  MIXPRE=   1;  MAXMIX= -45

 Intra band minimization:
   WEIMIN = 0.0000     energy-eigenvalue tresh-hold
   EBREAK =  0.20E-08  absolut break condition
   DEPER  =   0.30     relativ break condition  

   TIME   =   0.40     timestep for ELM

  volume/ion in A,a.u.               =      14.33        96.73
  Fermi-wavevector in a.u.,A,eV,Ry     =   1.584675  2.994602 34.166882  2.511195
  Thomas-Fermi vector in A             =   2.684256
 
 Write flags
   LWAVE        =      F    write WAVECAR
   LDOWNSAMPLE  =      F    k-point downsampling of WAVECAR
   LCHARG       =      T    write CHGCAR
   LVTOT        =      F    write LOCPOT, total local potential
   LVHAR        =      F    write LOCPOT, Hartree potential only
   WRT_POTENTIAL= false  ! write potential to hdf5 file
   LELF         =      F    write electronic localiz. function (ELF)
   LORBIT       =     11    0 simple, 1 ext, 2 COOP (PROOUT), +10 PAW based schemes


 Dipole corrections
   LMONO      =      F    monopole corrections only (constant potential shift)
   LDIPOL     =      F    correct potential (dipole corrections)
   IDIPOL     =      0    1-x, 2-y, 3-z, 4-all directions 
   EPSILON    =  1.0000000 bulk dielectric constant
   LVACPOTAV  =      F  vacuum potentials using an averaging scheme for the charge density
   VACPOTFLAT =  0.1000000 required flatness to determine vacuum potential
 Exchange correlation treatment:
   GGA     = PE    functional components
   XC_C    = 1    coefficients multiplying the functional components
   LIBXC   =     F    Libxc                    
   VOSKOWN =     0    Vosko Wilk Nusair interpolation
   LHFCALC =     F    Hartree Fock is set to
   LHFONE  =     F    Hartree Fock one center treatment
   AEXX    =    0.0000 exact exchange contribution

 Parameters of functionals:
   PE:
     No parameter
 
 Van der Waals corrections
   IVDW    =     0    specifies the selected vdW correction

 Linear response parameters
   LEPSILON=     F    determine dielectric tensor
   LRPA    =     F    only Hartree local field effects (RPA)
   LNABLA  =     F    use nabla operator in PAW spheres
   LVEL    =     F    velocity operator in full k-point grid
   CSHIFT  =0.1000    complex shift for real part using Kramers Kronig
   OMEGAMAX=  -1.0    maximum frequency
   DEG_THRESHOLD= 0.2000000E-02 threshold for treating states as degnerate
   RTIME   =   -0.100 relaxation time in fs
  (WPLASMAI=    0.000 imaginary part of plasma frequency in eV, 0.658/RTIME)
   DFIELD  = 0.0000000 0.0000000 0.0000000 field for delta impulse in time
 
  Optional k-point grid parameters
   LKPOINTS_OPT  =     F    use optional k-point grid
   KPOINTS_OPT_MODE=     1    mode for optional k-point grid
 
 Orbital magnetization related:
   ORBITALMAG=     F  switch on orbital magnetization
   LCHIMAG   =     F  perturbation theory with respect to B field
   DQ        =  0.001000  dq finite difference perturbation B field
   LLRAUG    =     F  two centre corrections for induced B field
   LBONE     =     F  B-component reconstruction in AE one-centre
   LVGVCALC  =     T  calculate vGv susceptibility
   LVGVAPPL  =     F  apply vGv susceptibility instead of pGv for G=0

 Random number generation:
   RANDOM_GENERATOR = DEFAULT
   PCG_SEED         = not used


--------------------------------------------------------------------------------------------------------


 Static calculation
 charge density and potential will be updated during run
 spin polarized calculation
 Variant of blocked Davidson
 Davidson routine will perform the subspace rotation
 perform sub-space diagonalisation
    after iterative eigenvector-optimisation
 modified Broyden-mixing scheme, WC =      100.0
 initial mixing is a Kerker type mixing with AMIX =  0.4000 and BMIX =      1.0000
 Hartree-type preconditioning will be used
 using additional bands           50
 reciprocal scheme for non local part
 use partial core corrections
 calculate Harris-corrections to forces 
   (improved forces if not selfconsistent)
 use gradient corrections 
 use of overlap-Matrix (Vanderbilt PP)
 Fermi weights with tetrahedron method with Bloechl corrections


--------------------------------------------------------------------------------------------------------


  energy-cutoff  :      520.00
  volume of cell :      172.00
      direct lattice vectors                 reciprocal lattice vectors
     3.971748644  0.000000000  0.000000000     0.251778269  0.000000000  0.000000000
     0.000000000  3.696305424  0.000000000     0.000000000  0.270540414  0.000000000
     0.000000000  0.000000000 11.715985930     0.000000000  0.000000000  0.085353465

  length of vectors
     3.971748644  3.696305424 11.715985930     0.251778269  0.270540414  0.085353465


 
 k-points in units of 2pi/SCALE and weight: pymatgen with grid density = 8800 / numb
   0.00000000  0.00000000  0.00000000       0.001
   0.01936756  0.00000000  0.00000000       0.003
   0.03873512  0.00000000  0.00000000       0.003
   0.05810268  0.00000000  0.00000000       0.003
   0.07747024  0.00000000  0.00000000       0.003
   0.09683780  0.00000000  0.00000000       0.003
   0.11620536  0.00000000  0.00000000       0.003
   0.00000000  0.02081080  0.00000000       0.003
   0.01936756  0.02081080  0.00000000       0.006
   0.03873512  0.02081080  0.00000000       0.006
   0.05810268  0.02081080  0.00000000       0.006
   0.07747024  0.02081080  0.00000000       0.006
   0.09683780  0.02081080  0.00000000       0.006
   0.11620536  0.02081080  0.00000000       0.006
   0.00000000  0.04162160  0.00000000       0.003
   0.01936756  0.04162160  0.00000000       0.006
   0.03873512  0.04162160  0.00000000       0.006
   0.05810268  0.04162160  0.00000000       0.006
   0.07747024  0.04162160  0.00000000       0.006
   0.09683780  0.04162160  0.00000000       0.006
   0.11620536  0.04162160  0.00000000       0.006
   0.00000000  0.06243240  0.00000000       0.003
   0.01936756  0.06243240  0.00000000       0.006
   0.03873512  0.06243240  0.00000000       0.006
   0.05810268  0.06243240  0.00000000       0.006
   0.07747024  0.06243240  0.00000000       0.006
   0.09683780  0.06243240  0.00000000       0.006
   0.11620536  0.06243240  0.00000000       0.006
   0.00000000  0.08324320  0.00000000       0.003
   0.01936756  0.08324320  0.00000000       0.006
   0.03873512  0.08324320  0.00000000       0.006
   0.05810268  0.08324320  0.00000000       0.006
   0.07747024  0.08324320  0.00000000       0.006
   0.09683780  0.08324320  0.00000000       0.006
   0.11620536  0.08324320  0.00000000       0.006
   0.00000000  0.10405401  0.00000000       0.003
   0.01936756  0.10405401  0.00000000       0.006
   0.03873512  0.10405401  0.00000000       0.006
   0.05810268  0.10405401  0.00000000       0.006
   0.07747024  0.10405401  0.00000000       0.006
   0.09683780  0.10405401  0.00000000       0.006
   0.11620536  0.10405401  0.00000000       0.006
   0.00000000  0.12486481  0.00000000       0.003
   0.01936756  0.12486481  0.00000000       0.006
   0.03873512  0.12486481  0.00000000       0.006
   0.05810268  0.12486481  0.00000000       0.006
   0.07747024  0.12486481  0.00000000       0.006
   0.09683780  0.12486481  0.00000000       0.006
   0.11620536  0.12486481  0.00000000       0.006
   0.00000000  0.00000000  0.02133837       0.003
   0.01936756  0.00000000  0.02133837       0.006
   0.03873512  0.00000000  0.02133837       0.006
   0.05810268  0.00000000  0.02133837       0.006
   0.07747024  0.00000000  0.02133837       0.006
   0.09683780  0.00000000  0.02133837       0.006
   0.11620536  0.00000000  0.02133837       0.006
   0.00000000  0.02081080  0.02133837       0.006
   0.01936756  0.02081080  0.02133837       0.012
   0.03873512  0.02081080  0.02133837       0.012
   0.05810268  0.02081080  0.02133837       0.012
   0.07747024  0.02081080  0.02133837       0.012
   0.09683780  0.02081080  0.02133837       0.012
   0.11620536  0.02081080  0.02133837       0.012
   0.00000000  0.04162160  0.02133837       0.006
   0.01936756  0.04162160  0.02133837       0.012
   0.03873512  0.04162160  0.02133837       0.012
   0.05810268  0.04162160  0.02133837       0.012
   0.07747024  0.04162160  0.02133837       0.012
   0.09683780  0.04162160  0.02133837       0.012
   0.11620536  0.04162160  0.02133837       0.012
   0.00000000  0.06243240  0.02133837       0.006
   0.01936756  0.06243240  0.02133837       0.012
   0.03873512  0.06243240  0.02133837       0.012
   0.05810268  0.06243240  0.02133837       0.012
   0.07747024  0.06243240  0.02133837       0.012
   0.09683780  0.06243240  0.02133837       0.012
   0.11620536  0.06243240  0.02133837       0.012
   0.00000000  0.08324320  0.02133837       0.006
   0.01936756  0.08324320  0.02133837       0.012
   0.03873512  0.08324320  0.02133837       0.012
   0.05810268  0.08324320  0.02133837       0.012
   0.07747024  0.08324320  0.02133837       0.012
   0.09683780  0.08324320  0.02133837       0.012
   0.11620536  0.08324320  0.02133837       0.012
   0.00000000  0.10405401  0.02133837       0.006
   0.01936756  0.10405401  0.02133837       0.012
   0.03873512  0.10405401  0.02133837       0.012
   0.05810268  0.10405401  0.02133837       0.012
   0.07747024  0.10405401  0.02133837       0.012
   0.09683780  0.10405401  0.02133837       0.012
   0.11620536  0.10405401  0.02133837       0.012
   0.00000000  0.12486481  0.02133837       0.006
   0.01936756  0.12486481  0.02133837       0.012
   0.03873512  0.12486481  0.02133837       0.012
   0.05810268  0.12486481  0.02133837       0.012
   0.07747024  0.12486481  0.02133837       0.012
   0.09683780  0.12486481  0.02133837       0.012
   0.11620536  0.12486481  0.02133837       0.012
   0.00000000  0.00000000  0.04267673       0.001
   0.01936756  0.00000000  0.04267673       0.003
   0.03873512  0.00000000  0.04267673       0.003
   0.05810268  0.00000000  0.04267673       0.003
   0.07747024  0.00000000  0.04267673       0.003
   0.09683780  0.00000000  0.04267673       0.003
   0.11620536  0.00000000  0.04267673       0.003
   0.00000000  0.02081080  0.04267673       0.003
   0.01936756  0.02081080  0.04267673       0.006
   0.03873512  0.02081080  0.04267673       0.006
   0.05810268  0.02081080  0.04267673       0.006
   0.07747024  0.02081080  0.04267673       0.006
   0.09683780  0.02081080  0.04267673       0.006
   0.11620536  0.02081080  0.04267673       0.006
   0.00000000  0.04162160  0.04267673       0.003
   0.01936756  0.04162160  0.04267673       0.006
   0.03873512  0.04162160  0.04267673       0.006
   0.05810268  0.04162160  0.04267673       0.006
   0.07747024  0.04162160  0.04267673       0.006
   0.09683780  0.04162160  0.04267673       0.006
   0.11620536  0.04162160  0.04267673       0.006
   0.00000000  0.06243240  0.04267673       0.003
   0.01936756  0.06243240  0.04267673       0.006
   0.03873512  0.06243240  0.04267673       0.006
   0.05810268  0.06243240  0.04267673       0.006
   0.07747024  0.06243240  0.04267673       0.006
   0.09683780  0.06243240  0.04267673       0.006
   0.11620536  0.06243240  0.04267673       0.006
   0.00000000  0.08324320  0.04267673       0.003
   0.01936756  0.08324320  0.04267673       0.006
   0.03873512  0.08324320  0.04267673       0.006
   0.05810268  0.08324320  0.04267673       0.006
   0.07747024  0.08324320  0.04267673       0.006
   0.09683780  0.08324320  0.04267673       0.006
   0.11620536  0.08324320  0.04267673       0.006
   0.00000000  0.10405401  0.04267673       0.003
   0.01936756  0.10405401  0.04267673       0.006
   0.03873512  0.10405401  0.04267673       0.006
   0.05810268  0.10405401  0.04267673       0.006
   0.07747024  0.10405401  0.04267673       0.006
   0.09683780  0.10405401  0.04267673       0.006
   0.11620536  0.10405401  0.04267673       0.006
   0.00000000  0.12486481  0.04267673       0.003
   0.01936756  0.12486481  0.04267673       0.006
   0.03873512  0.12486481  0.04267673       0.006
   0.05810268  0.12486481  0.04267673       0.006
   0.07747024  0.12486481  0.04267673       0.006
   0.09683780  0.12486481  0.04267673       0.006
   0.11620536  0.12486481  0.04267673       0.006
 
 k-points in reciprocal lattice and weights: pymatgen with grid density = 8800 / numb
   0.00000000  0.00000000  0.00000000       0.001
   0.07692308  0.00000000  0.00000000       0.003
   0.15384615  0.00000000  0.00000000       0.003
   0.23076923  0.00000000  0.00000000       0.003
   0.30769231  0.00000000  0.00000000       0.003
   0.38461538  0.00000000  0.00000000       0.003
   0.46153846  0.00000000  0.00000000       0.003
   0.00000000  0.07692308  0.00000000       0.003
   0.07692308  0.07692308  0.00000000       0.006
   0.15384615  0.07692308  0.00000000       0.006
   0.23076923  0.07692308  0.00000000       0.006
   0.30769231  0.07692308  0.00000000       0.006
   0.38461538  0.07692308  0.00000000       0.006
   0.46153846  0.07692308  0.00000000       0.006
   0.00000000  0.15384615  0.00000000       0.003
   0.07692308  0.15384615  0.00000000       0.006
   0.15384615  0.15384615  0.00000000       0.006
   0.23076923  0.15384615  0.00000000       0.006
   0.30769231  0.15384615  0.00000000       0.006
   0.38461538  0.15384615  0.00000000       0.006
   0.46153846  0.15384615  0.00000000       0.006
   0.00000000  0.23076923  0.00000000       0.003
   0.07692308  0.23076923  0.00000000       0.006
   0.15384615  0.23076923  0.00000000       0.006
   0.23076923  0.23076923  0.00000000       0.006
   0.30769231  0.23076923  0.00000000       0.006
   0.38461538  0.23076923  0.00000000       0.006
   0.46153846  0.23076923  0.00000000       0.006
   0.00000000  0.30769231  0.00000000       0.003
   0.07692308  0.30769231  0.00000000       0.006
   0.15384615  0.30769231  0.00000000       0.006
   0.23076923  0.30769231  0.00000000       0.006
   0.30769231  0.30769231  0.00000000       0.006
   0.38461538  0.30769231  0.00000000       0.006
   0.46153846  0.30769231  0.00000000       0.006
   0.00000000  0.38461538  0.00000000       0.003
   0.07692308  0.38461538  0.00000000       0.006
   0.15384615  0.38461538  0.00000000       0.006
   0.23076923  0.38461538  0.00000000       0.006
   0.30769231  0.38461538  0.00000000       0.006
   0.38461538  0.38461538  0.00000000       0.006
   0.46153846  0.38461538  0.00000000       0.006
   0.00000000  0.46153846  0.00000000       0.003
   0.07692308  0.46153846  0.00000000       0.006
   0.15384615  0.46153846  0.00000000       0.006
   0.23076923  0.46153846  0.00000000       0.006
   0.30769231  0.46153846  0.00000000       0.006
   0.38461538  0.46153846  0.00000000       0.006
   0.46153846  0.46153846  0.00000000       0.006
   0.00000000  0.00000000  0.25000000       0.003
   0.07692308  0.00000000  0.25000000       0.006
   0.15384615  0.00000000  0.25000000       0.006
   0.23076923  0.00000000  0.25000000       0.006
   0.30769231  0.00000000  0.25000000       0.006
   0.38461538  0.00000000  0.25000000       0.006
   0.46153846  0.00000000  0.25000000       0.006
   0.00000000  0.07692308  0.25000000       0.006
   0.07692308  0.07692308  0.25000000       0.012
   0.15384615  0.07692308  0.25000000       0.012
   0.23076923  0.07692308  0.25000000       0.012
   0.30769231  0.07692308  0.25000000       0.012
   0.38461538  0.07692308  0.25000000       0.012
   0.46153846  0.07692308  0.25000000       0.012
   0.00000000  0.15384615  0.25000000       0.006
   0.07692308  0.15384615  0.25000000       0.012
   0.15384615  0.15384615  0.25000000       0.012
   0.23076923  0.15384615  0.25000000       0.012
   0.30769231  0.15384615  0.25000000       0.012
   0.38461538  0.15384615  0.25000000       0.012
   0.46153846  0.15384615  0.25000000       0.012
   0.00000000  0.23076923  0.25000000       0.006
   0.07692308  0.23076923  0.25000000       0.012
   0.15384615  0.23076923  0.25000000       0.012
   0.23076923  0.23076923  0.25000000       0.012
   0.30769231  0.23076923  0.25000000       0.012
   0.38461538  0.23076923  0.25000000       0.012
   0.46153846  0.23076923  0.25000000       0.012
   0.00000000  0.30769231  0.25000000       0.006
   0.07692308  0.30769231  0.25000000       0.012
   0.15384615  0.30769231  0.25000000       0.012
   0.23076923  0.30769231  0.25000000       0.012
   0.30769231  0.30769231  0.25000000       0.012
   0.38461538  0.30769231  0.25000000       0.012
   0.46153846  0.30769231  0.25000000       0.012
   0.00000000  0.38461538  0.25000000       0.006
   0.07692308  0.38461538  0.25000000       0.012
   0.15384615  0.38461538  0.25000000       0.012
   0.23076923  0.38461538  0.25000000       0.012
   0.30769231  0.38461538  0.25000000       0.012
   0.38461538  0.38461538  0.25000000       0.012
   0.46153846  0.38461538  0.25000000       0.012
   0.00000000  0.46153846  0.25000000       0.006
   0.07692308  0.46153846  0.25000000       0.012
   0.15384615  0.46153846  0.25000000       0.012
   0.23076923  0.46153846  0.25000000       0.012
   0.30769231  0.46153846  0.25000000       0.012
   0.38461538  0.46153846  0.25000000       0.012
   0.46153846  0.46153846  0.25000000       0.012
   0.00000000  0.00000000  0.50000000       0.001
   0.07692308  0.00000000  0.50000000       0.003
   0.15384615  0.00000000  0.50000000       0.003
   0.23076923  0.00000000  0.50000000       0.003
   0.30769231  0.00000000  0.50000000       0.003
   0.38461538  0.00000000  0.50000000       0.003
   0.46153846  0.00000000  0.50000000       0.003
   0.00000000  0.07692308  0.50000000       0.003
   0.07692308  0.07692308  0.50000000       0.006
   0.15384615  0.07692308  0.50000000       0.006
   0.23076923  0.07692308  0.50000000       0.006
   0.30769231  0.07692308  0.50000000       0.006
   0.38461538  0.07692308  0.50000000       0.006
   0.46153846  0.07692308  0.50000000       0.006
   0.00000000  0.15384615  0.50000000       0.003
   0.07692308  0.15384615  0.50000000       0.006
   0.15384615  0.15384615  0.50000000       0.006
   0.23076923  0.15384615  0.50000000       0.006
   0.30769231  0.15384615  0.50000000       0.006
   0.38461538  0.15384615  0.50000000       0.006
   0.46153846  0.15384615  0.50000000       0.006
   0.00000000  0.23076923  0.50000000       0.003
   0.07692308  0.23076923  0.50000000       0.006
   0.15384615  0.23076923  0.50000000       0.006
   0.23076923  0.23076923  0.50000000       0.006
   0.30769231  0.23076923  0.50000000       0.006
   0.38461538  0.23076923  0.50000000       0.006
   0.46153846  0.23076923  0.50000000       0.006
   0.00000000  0.30769231  0.50000000       0.003
   0.07692308  0.30769231  0.50000000       0.006
   0.15384615  0.30769231  0.50000000       0.006
   0.23076923  0.30769231  0.50000000       0.006
   0.30769231  0.30769231  0.50000000       0.006
   0.38461538  0.30769231  0.50000000       0.006
   0.46153846  0.30769231  0.50000000       0.006
   0.00000000  0.38461538  0.50000000       0.003
   0.07692308  0.38461538  0.50000000       0.006
   0.15384615  0.38461538  0.50000000       0.006
   0.23076923  0.38461538  0.50000000       0.006
   0.30769231  0.38461538  0.50000000       0.006
   0.38461538  0.38461538  0.50000000       0.006
   0.46153846  0.38461538  0.50000000       0.006
   0.00000000  0.46153846  0.50000000       0.003
   0.07692308  0.46153846  0.50000000       0.006
   0.15384615  0.46153846  0.50000000       0.006
   0.23076923  0.46153846  0.50000000       0.006
   0.30769231  0.46153846  0.50000000       0.006
   0.38461538  0.46153846  0.50000000       0.006
   0.46153846  0.46153846  0.50000000       0.006
 
 position of ions in fractional coordinates (direct lattice) 
   0.00000000  0.50000000  0.16666020
   0.00000000  0.50000000  0.49934133
   0.00000000  0.50000000  0.83400495
   0.50000000  0.50000000  0.00317588
   0.50000000  0.50000000  0.33011049
   0.50000000  0.50000000  0.66670800
   0.50000000  0.00000000  0.16665588
   0.50000000  0.00000000  0.49785588
   0.50000000  0.00000000  0.83548626
   0.00000000  0.00000000  0.00593977
   0.00000000  0.00000000  0.32737555
   0.00000000  0.00000000  0.66668582
 
 position of ions in cartesian coordinates  (Angst):
   0.00000000  1.84815271  1.95258851
   0.00000000  1.84815271  5.85027603
   0.00000000  1.84815271  9.77119028
   1.98587432  1.84815271  0.03720851
   1.98587432  1.84815271  3.86756982
   1.98587432  1.84815271  7.81114160
   1.98587432  0.00000000  1.95253799
   1.98587432  0.00000000  5.83287244
   1.98587432  0.00000000  9.78854525
   0.00000000  0.00000000  0.06959025
   0.00000000  0.00000000  3.83552729
   0.00000000  0.00000000  7.81088168
 


--------------------------------------------------------------------------------------------------------


 k-point     1 :   0.0000 0.0000 0.0000  plane waves:    4609
 k-point     2 :   0.0769 0.0000 0.0000  plane waves:    4601
 k-point     3 :   0.1538 0.0000 0.0000  plane waves:    4629
 k-point     4 :   0.2308 0.0000 0.0000  plane waves:    4619
 k-point     5 :   0.3077 0.0000 0.0000  plane waves:    4605
 k-point     6 :   0.3846 0.0000 0.0000  plane waves:    4625
 k-point     7 :   0.4615 0.0000 0.0000  plane waves:    4634
 k-point     8 :   0.0000 0.0769 0.0000  plane waves:    4617
 k-point     9 :   0.0769 0.0769 0.0000  plane waves:    4613
 k-point    10 :   0.1538 0.0769 0.0000  plane waves:    4627
 k-point    11 :   0.2308 0.0769 0.0000  plane waves:    4621
 k-point    12 :   0.3077 0.0769 0.0000  plane waves:    4615
 k-point    13 :   0.3846 0.0769 0.0000  plane waves:    4612
 k-point    14 :   0.4615 0.0769 0.0000  plane waves:    4638
 k-point    15 :   0.0000 0.1538 0.0000  plane waves:    4616
 k-point    16 :   0.0769 0.1538 0.0000  plane waves:    4627
 k-point    17 :   0.1538 0.1538 0.0000  plane waves:    4622
 k-point    18 :   0.2308 0.1538 0.0000  plane waves:    4638
 k-point    19 :   0.3077 0.1538 0.0000  plane waves:    4614
 k-point    20 :   0.3846 0.1538 0.0000  plane waves:    4617
 k-point    21 :   0.4615 0.1538 0.0000  plane waves:    4620
 k-point    22 :   0.0000 0.2308 0.0000  plane waves:    4632
 k-point    23 :   0.0769 0.2308 0.0000  plane waves:    4640
 k-point    24 :   0.1538 0.2308 0.0000  plane waves:    4624
 k-point    25 :   0.2308 0.2308 0.0000  plane waves:    4635
 k-point    26 :   0.3077 0.2308 0.0000  plane waves:    4634
 k-point    27 :   0.3846 0.2308 0.0000  plane waves:    4621
 k-point    28 :   0.4615 0.2308 0.0000  plane waves:    4629
 k-point    29 :   0.0000 0.3077 0.0000  plane waves:    4642
 k-point    30 :   0.0769 0.3077 0.0000  plane waves:    4636
 k-point    31 :   0.1538 0.3077 0.0000  plane waves:    4635
 k-point    32 :   0.2308 0.3077 0.0000  plane waves:    4624
 k-point    33 :   0.3077 0.3077 0.0000  plane waves:    4634
 k-point    34 :   0.3846 0.3077 0.0000  plane waves:    4622
 k-point    35 :   0.4615 0.3077 0.0000  plane waves:    4635
 k-point    36 :   0.0000 0.3846 0.0000  plane waves:    4650
 k-point    37 :   0.0769 0.3846 0.0000  plane waves:    4656
 k-point    38 :   0.1538 0.3846 0.0000  plane waves:    4646
 k-point    39 :   0.2308 0.3846 0.0000  plane waves:    4646
 k-point    40 :   0.3077 0.3846 0.0000  plane waves:    4632
 k-point    41 :   0.3846 0.3846 0.0000  plane waves:    4621
 k-point    42 :   0.4615 0.3846 0.0000  plane waves:    4629
 k-point    43 :   0.0000 0.4615 0.0000  plane waves:    4662
 k-point    44 :   0.0769 0.4615 0.0000  plane waves:    4662
 k-point    45 :   0.1538 0.4615 0.0000  plane waves:    4672
 k-point    46 :   0.2308 0.4615 0.0000  plane waves:    4658
 k-point    47 :   0.3077 0.4615 0.0000  plane waves:    4637
 k-point    48 :   0.3846 0.4615 0.0000  plane waves:    4607
 k-point    49 :   0.4615 0.4615 0.0000  plane waves:    4616
 k-point    50 :   0.0000 0.0000 0.2500  plane waves:    4614
 k-point    51 :   0.0769 0.0000 0.2500  plane waves:    4621
 k-point    52 :   0.1538 0.0000 0.2500  plane waves:    4626
 k-point    53 :   0.2308 0.0000 0.2500  plane waves:    4626
 k-point    54 :   0.3077 0.0000 0.2500  plane waves:    4619
 k-point    55 :   0.3846 0.0000 0.2500  plane waves:    4620
 k-point    56 :   0.4615 0.0000 0.2500  plane waves:    4622
 k-point    57 :   0.0000 0.0769 0.2500  plane waves:    4622
 k-point    58 :   0.0769 0.0769 0.2500  plane waves:    4622
 k-point    59 :   0.1538 0.0769 0.2500  plane waves:    4619
 k-point    60 :   0.2308 0.0769 0.2500  plane waves:    4624
 k-point    61 :   0.3077 0.0769 0.2500  plane waves:    4619
 k-point    62 :   0.3846 0.0769 0.2500  plane waves:    4618
 k-point    63 :   0.4615 0.0769 0.2500  plane waves:    4618
 k-point    64 :   0.0000 0.1538 0.2500  plane waves:    4627
 k-point    65 :   0.0769 0.1538 0.2500  plane waves:    4625
 k-point    66 :   0.1538 0.1538 0.2500  plane waves:    4626
 k-point    67 :   0.2308 0.1538 0.2500  plane waves:    4626
 k-point    68 :   0.3077 0.1538 0.2500  plane waves:    4620
 k-point    69 :   0.3846 0.1538 0.2500  plane waves:    4620
 k-point    70 :   0.4615 0.1538 0.2500  plane waves:    4629
 k-point    71 :   0.0000 0.2308 0.2500  plane waves:    4640
 k-point    72 :   0.0769 0.2308 0.2500  plane waves:    4634
 k-point    73 :   0.1538 0.2308 0.2500  plane waves:    4634
 k-point    74 :   0.2308 0.2308 0.2500  plane waves:    4632
 k-point    75 :   0.3077 0.2308 0.2500  plane waves:    4628
 k-point    76 :   0.3846 0.2308 0.2500  plane waves:    4623
 k-point    77 :   0.4615 0.2308 0.2500  plane waves:    4620
 k-point    78 :   0.0000 0.3077 0.2500  plane waves:    4643
 k-point    79 :   0.0769 0.3077 0.2500  plane waves:    4651
 k-point    80 :   0.1538 0.3077 0.2500  plane waves:    4637
 k-point    81 :   0.2308 0.3077 0.2500  plane waves:    4631
 k-point    82 :   0.3077 0.3077 0.2500  plane waves:    4636
 k-point    83 :   0.3846 0.3077 0.2500  plane waves:    4629
 k-point    84 :   0.4615 0.3077 0.2500  plane waves:    4626
 k-point    85 :   0.0000 0.3846 0.2500  plane waves:    4649
 k-point    86 :   0.0769 0.3846 0.2500  plane waves:    4649
 k-point    87 :   0.1538 0.3846 0.2500  plane waves:    4654
 k-point    88 :   0.2308 0.3846 0.2500  plane waves:    4638
 k-point    89 :   0.3077 0.3846 0.2500  plane waves:    4632
 k-point    90 :   0.3846 0.3846 0.2500  plane waves:    4627
 k-point    91 :   0.4615 0.3846 0.2500  plane waves:    4623
 k-point    92 :   0.0000 0.4615 0.2500  plane waves:    4669
 k-point    93 :   0.0769 0.4615 0.2500  plane waves:    4659
 k-point    94 :   0.1538 0.4615 0.2500  plane waves:    4659
 k-point    95 :   0.2308 0.4615 0.2500  plane waves:    4639
 k-point    96 :   0.3077 0.4615 0.2500  plane waves:    4629
 k-point    97 :   0.3846 0.4615 0.2500  plane waves:    4615
 k-point    98 :   0.4615 0.4615 0.2500  plane waves:    4617
 k-point    99 :   0.0000 0.0000 0.5000  plane waves:    4636
 k-point   100 :   0.0769 0.0000 0.5000  plane waves:    4630
 k-point   101 :   0.1538 0.0000 0.5000  plane waves:    4638
 k-point   102 :   0.2308 0.0000 0.5000  plane waves:    4638
 k-point   103 :   0.3077 0.0000 0.5000  plane waves:    4612
 k-point   104 :   0.3846 0.0000 0.5000  plane waves:    4600
 k-point   105 :   0.4615 0.0000 0.5000  plane waves:    4634
 k-point   106 :   0.0000 0.0769 0.5000  plane waves:    4636
 k-point   107 :   0.0769 0.0769 0.5000  plane waves:    4632
 k-point   108 :   0.1538 0.0769 0.5000  plane waves:    4630
 k-point   109 :   0.2308 0.0769 0.5000  plane waves:    4630
 k-point   110 :   0.3077 0.0769 0.5000  plane waves:    4620
 k-point   111 :   0.3846 0.0769 0.5000  plane waves:    4618
 k-point   112 :   0.4615 0.0769 0.5000  plane waves:    4612
 k-point   113 :   0.0000 0.1538 0.5000  plane waves:    4630
 k-point   114 :   0.0769 0.1538 0.5000  plane waves:    4630
 k-point   115 :   0.1538 0.1538 0.5000  plane waves:    4626
 k-point   116 :   0.2308 0.1538 0.5000  plane waves:    4606
 k-point   117 :   0.3077 0.1538 0.5000  plane waves:    4624
 k-point   118 :   0.3846 0.1538 0.5000  plane waves:    4624
 k-point   119 :   0.4615 0.1538 0.5000  plane waves:    4616
 k-point   120 :   0.0000 0.2308 0.5000  plane waves:    4632
 k-point   121 :   0.0769 0.2308 0.5000  plane waves:    4644
 k-point   122 :   0.1538 0.2308 0.5000  plane waves:    4636
 k-point   123 :   0.2308 0.2308 0.5000  plane waves:    4636
 k-point   124 :   0.3077 0.2308 0.5000  plane waves:    4630
 k-point   125 :   0.3846 0.2308 0.5000  plane waves:    4638
 k-point   126 :   0.4615 0.2308 0.5000  plane waves:    4632
 k-point   127 :   0.0000 0.3077 0.5000  plane waves:    4650
 k-point   128 :   0.0769 0.3077 0.5000  plane waves:    4652
 k-point   129 :   0.1538 0.3077 0.5000  plane waves:    4650
 k-point   130 :   0.2308 0.3077 0.5000  plane waves:    4632
 k-point   131 :   0.3077 0.3077 0.5000  plane waves:    4634
 k-point   132 :   0.3846 0.3077 0.5000  plane waves:    4620
 k-point   133 :   0.4615 0.3077 0.5000  plane waves:    4630
 k-point   134 :   0.0000 0.3846 0.5000  plane waves:    4656
 k-point   135 :   0.0769 0.3846 0.5000  plane waves:    4650
 k-point   136 :   0.1538 0.3846 0.5000  plane waves:    4644
 k-point   137 :   0.2308 0.3846 0.5000  plane waves:    4650
 k-point   138 :   0.3077 0.3846 0.5000  plane waves:    4640
 k-point   139 :   0.3846 0.3846 0.5000  plane waves:    4624
 k-point   140 :   0.4615 0.3846 0.5000  plane waves:    4620
 k-point   141 :   0.0000 0.4615 0.5000  plane waves:    4662
 k-point   142 :   0.0769 0.4615 0.5000  plane waves:    4658
 k-point   143 :   0.1538 0.4615 0.5000  plane waves:    4662
 k-point   144 :   0.2308 0.4615 0.5000  plane waves:    4654
 k-point   145 :   0.3077 0.4615 0.5000  plane waves:    4630
 k-point   146 :   0.3846 0.4615 0.5000  plane waves:    4614
 k-point   147 :   0.4615 0.4615 0.5000  plane waves:    4610

 maximum and minimum number of plane-waves per node :      4672     4600

 maximum number of plane-waves:      4672
 maximum index in each direction: 
   IXMAX=    7   IYMAX=    6   IZMAX=   21
   IXMIN=   -7   IYMIN=   -7   IZMIN=  -22


 serial   3D FFT for wavefunctions
 parallel 3D FFT for charge:
    minimum data exchange during FFTs selected (reduces bandwidth)


 total amount of memory used by VASP MPI-rank0   329874. kBytes
=======================================================================

   base      :      30000. kBytes
   nonl-proj :     198690. kBytes
   fftplans  :        986. kBytes
   grid      :       7702. kBytes
   one-center:        373. kBytes
   wavefun   :      92123. kBytes
 
     INWAV:  cpu time      0.0000: real time      0.0000
 Broyden mixing: mesh for mixing (old mesh)
   NGX = 15   NGY = 13   NGZ = 43
  (NGX  = 60   NGY  = 56   NGZ  =180)
  gives a total of   8385 points

 initial charge density was supplied:
 charge density of overlapping atoms calculated
 number of electron     156.0000000 magnetization      20.4440000
 keeping initial charge density in first step


--------------------------------------------------------------------------------------------------------


 Maximum index for augmentation-charges         1067 (set IRDMAX)


--------------------------------------------------------------------------------------------------------


 First call to EWALD:  gamma=   0.319
 Maximum number of real-space cells 4x 4x 2
 Maximum number of reciprocal cells 2x 2x 5

    FEWALD:  cpu time      0.0013: real time      0.0013


--------------------------------------- Ionic step        1  -------------------------------------------




--------------------------------------- Iteration      1(   1)  ---------------------------------------


    POTLOK:  cpu time      0.0283: real time      0.0635
    SETDIJ:  cpu time      0.0094: real time      0.0096
     EDDAV:  cpu time     11.4445: real time     11.5389
 BZINTS: Fermi energy:   21.865195;  156.000000 electrons
         Band energy: 0.355406E+03;  BLOECHL correction:   -0.048769
       DOS:  cpu time      0.2305: real time      0.2329
    --------------------------------------------
      LOOP:  cpu time     11.7128: real time     11.8449

 eigenvalue-minimisations  : 75296
 total energy-change (2. order) : 0.1774106E+04  (-0.8536281E+04)
 number of electron     156.0000000 magnetization      20.4440000
 augmentation part      156.0000000 magnetization      20.4440000

 Free energy of the ion-electron system (eV)
  ---------------------------------------------------
  alpha Z        PSCENC =       989.47749747
  Ewald energy   TEWEN  =    -17501.31895334
  -Hartree energ DENC   =     -6303.40858984
  -exchange      EXHF   =         0.00000000
  -V(xc)+E(xc)   XCENC  =       653.71253639
  PAW double counting   =     20093.33518603   -20817.20046045
  entropy T*S    EENTRO =         0.00000000
  eigenvalues    EBANDS =       355.40584360
  atomic energy  EATOM  =     24304.10294433
  Solvation  Ediel_sol  =         0.00000000
  ---------------------------------------------------
  free energy    TOTEN  =      1774.10600418 eV

  energy without entropy =     1774.10600418  energy(sigma->0) =     1774.10600418


--------------------------------------------------------------------------------------------------------




--------------------------------------- Iteration      1(   2)  ---------------------------------------


     EDDAV:  cpu time     11.3812: real time     11.4721
 BZINTS: Fermi energy:   10.938968;  156.000000 electrons
         Band energy:-0.141233E+04;  BLOECHL correction:   -0.020637
       DOS:  cpu time      0.2299: real time      0.2319
    --------------------------------------------
      LOOP:  cpu time     11.6111: real time     11.7040

 eigenvalue-minimisations  : 75296
 total energy-change (2. order) :-0.1767738E+04  (-0.1677034E+04)
 number of electron     156.0000000 magnetization      20.4440000
 augmentation part      156.0000000 magnetization      20.4440000

 Free energy of the ion-electron system (eV)
  ---------------------------------------------------
  alpha Z        PSCENC =       989.47749747
  Ewald energy   TEWEN  =    -17501.31895334
  -Hartree energ DENC   =     -6303.40858984
  -exchange      EXHF   =         0.00000000
  -V(xc)+E(xc)   XCENC  =       653.71253639
  PAW double counting   =     20093.33518603   -20817.20046045
  entropy T*S    EENTRO =         0.00000000
  eigenvalues    EBANDS =     -1412.33243997
  atomic energy  EATOM  =     24304.10294433
  Solvation  Ediel_sol  =         0.00000000
  ---------------------------------------------------
  free energy    TOTEN  =         6.36772060 eV

  energy without entropy =        6.36772060  energy(sigma->0) =        6.36772060


--------------------------------------------------------------------------------------------------------




--------------------------------------- Iteration      1(   3)  ---------------------------------------


     EDDAV:  cpu time     13.4830: real time     13.5890
 BZINTS: Fermi energy:   10.368595;  156.000000 electrons
         Band energy:-0.152118E+04;  BLOECHL correction:   -0.023163
       DOS:  cpu time      0.2285: real time      0.2305
    --------------------------------------------
      LOOP:  cpu time     13.7115: real time     13.8195

 eigenvalue-minimisations  : 88576
 total energy-change (2. order) :-0.1088450E+03  (-0.1072055E+03)
 number of electron     156.0000000 magnetization      20.4440000
 augmentation part      156.0000000 magnetization      20.4440000

 Free energy of the ion-electron system (eV)
  ---------------------------------------------------
  alpha Z        PSCENC =       989.47749747
  Ewald energy   TEWEN  =    -17501.31895334
  -Hartree energ DENC   =     -6303.40858984
  -exchange      EXHF   =         0.00000000
  -V(xc)+E(xc)   XCENC  =       653.71253639
  PAW double counting   =     20093.33518603   -20817.20046045
  entropy T*S    EENTRO =         0.00000000
  eigenvalues    EBANDS =     -1521.17746061
  atomic energy  EATOM  =     24304.10294433
  Solvation  Ediel_sol  =         0.00000000
  ---------------------------------------------------
  free energy    TOTEN  =      -102.47730004 eV

  energy without entropy =     -102.47730004  energy(sigma->0) =     -102.47730004


--------------------------------------------------------------------------------------------------------




--------------------------------------- Iteration      1(   4)  ---------------------------------------


     EDDAV:  cpu time     11.8952: real time     11.9847
 BZINTS: Fermi energy:   10.363361;  156.000000 electrons
         Band energy:-0.152286E+04;  BLOECHL correction:   -0.023160
       DOS:  cpu time      0.2289: real time      0.2309
    --------------------------------------------
      LOOP:  cpu time     12.1241: real time     12.2155

 eigenvalue-minimisations  : 79296
 total energy-change (2. order) :-0.1681691E+01  (-0.1681318E+01)
 number of electron     156.0000000 magnetization      20.4440000
 augmentation part      156.0000000 magnetization      20.4440000

 Free energy of the ion-electron system (eV)
  ---------------------------------------------------
  alpha Z        PSCENC =       989.47749747
  Ewald energy   TEWEN  =    -17501.31895334
  -Hartree energ DENC   =     -6303.40858984
  -exchange      EXHF   =         0.00000000
  -V(xc)+E(xc)   XCENC  =       653.71253639
  PAW double counting   =     20093.33518603   -20817.20046045
  entropy T*S    EENTRO =         0.00000000
  eigenvalues    EBANDS =     -1522.85915130
  atomic energy  EATOM  =     24304.10294433
  Solvation  Ediel_sol  =         0.00000000
  ---------------------------------------------------
  free energy    TOTEN  =      -104.15899073 eV

  energy without entropy =     -104.15899073  energy(sigma->0) =     -104.15899073


--------------------------------------------------------------------------------------------------------




--------------------------------------- Iteration      1(   5)  ---------------------------------------


     EDDAV:  cpu time     14.3152: real time     14.4226
 BZINTS: Fermi energy:   10.363310;  156.000000 electrons
         Band energy:-0.152289E+04;  BLOECHL correction:   -0.023160
       DOS:  cpu time      0.2287: real time      0.2311
    CHARGE:  cpu time      0.2777: real time      0.2801
    MIXING:  cpu time      0.0083: real time      0.0087
    --------------------------------------------
      LOOP:  cpu time     14.8299: real time     14.9425

 eigenvalue-minimisations  : 92672
 total energy-change (2. order) :-0.3579163E-01  (-0.3579064E-01)
 number of electron     156.0000163 magnetization      20.0172187
 augmentation part       79.2966927 magnetization      14.3450873

 Broyden mixing:
  rms(total) = 0.35420E+01    rms(broyden)= 0.35414E+01
  rms(prec ) = 0.41131E+01
  weight for this iteration     100.00

 Free energy of the ion-electron system (eV)
  ---------------------------------------------------
  alpha Z        PSCENC =       989.47749747
  Ewald energy   TEWEN  =    -17501.31895334
  -Hartree energ DENC   =     -6303.40858984
  -exchange      EXHF   =         0.00000000
  -V(xc)+E(xc)   XCENC  =       653.71253639
  PAW double counting   =     20093.33518603   -20817.20046045
  entropy T*S    EENTRO =         0.00000000
  eigenvalues    EBANDS =     -1522.89494294
  atomic energy  EATOM  =     24304.10294433
  Solvation  Ediel_sol  =         0.00000000
  ---------------------------------------------------
  free energy    TOTEN  =      -104.19478236 eV

  energy without entropy =     -104.19478236  energy(sigma->0) =     -104.19478236


--------------------------------------------------------------------------------------------------------




--------------------------------------- Iteration      1(   6)  ---------------------------------------


    POTLOK:  cpu time      0.0374: real time      0.0462
    SETDIJ:  cpu time      0.0077: real time      0.0077
     EDDAV:  cpu time     13.5097: real time     13.6064
 BZINTS: Fermi energy:    7.763286;  156.000000 electrons
         Band energy:-0.199019E+04;  BLOECHL correction:   -0.021161
       DOS:  cpu time      0.2864: real time      0.2884
    CHARGE:  cpu time      0.2716: real time      0.2733
    MIXING:  cpu time      0.0051: real time      0.0101
    --------------------------------------------
      LOOP:  cpu time     14.1178: real time     14.2320

 eigenvalue-minimisations  : 88704
 total energy-change (2. order) :-0.1229253E+02  (-0.1900723E+02)
 number of electron     156.0000188 magnetization      19.9716640
[...]
    113      21.8350      0.00000
    114      22.2295      0.00000
    115      22.4813      0.00000
    116      22.6124      0.00000
    117      22.7757      0.00000
    118      23.3030      0.00000
    119      23.5500      0.00000
    120      25.2719      0.00000
    121      25.2740      0.00000
    122      25.4591      0.00000
    123      25.5117      0.00000
    124      25.6672      0.00000
    125      25.8360      0.00000
    126      26.8114      0.00000
    127      26.8781      0.00000
    128      27.0126      0.00000


--------------------------------------------------------------------------------------------------------


 soft charge-density along one line, spin component           1
         0         1         2         3         4         5         6         7         8         9
 total charge-density along one line
 
 soft charge-density along one line, spin component           2
         0         1         2         3         4         5         6         7         8         9
 total charge-density along one line
 
 pseudopotential strength for first ion, spin component:           1
-44.169  -0.000   0.000   7.273   0.000  -0.000  -0.000   0.000
 -0.000 -44.223  -0.000   0.000   7.294   0.000  -0.000   0.000
  0.000  -0.000 -44.163  -0.000   0.000   7.271   0.000  -0.000
  7.273   0.000  -0.000   5.765   0.000  -0.000   0.000  -0.000
  0.000   7.294   0.000   0.000   5.758   0.000   0.000  -0.000
 -0.000   0.000   7.271  -0.000   0.000   5.765  -0.000   0.000
 -0.000  -0.000   0.000   0.000   0.000  -0.000  -1.496  -0.000
  0.000   0.000  -0.000  -0.000  -0.000   0.000  -0.000  -1.541
 -0.000   0.000   0.000   0.000  -0.000  -0.000  -0.000  -0.000
 -0.000  -0.000  -0.000   0.000   0.000  -0.000  -0.000   0.000
 -0.000  -0.000  -0.000   0.000   0.000   0.000   0.000   0.000
 -0.000  -0.000   0.000   0.000   0.000  -0.000  -2.019  -0.000
  0.000   0.000  -0.000  -0.000  -0.000   0.000  -0.000  -2.064
 -0.000   0.000   0.000   0.000  -0.000  -0.000  -0.000  -0.000
 -0.000  -0.000  -0.000   0.000   0.000  -0.000  -0.000   0.000
 -0.000  -0.000  -0.000   0.000   0.000  -0.000   0.000   0.000
 -0.000  -0.000   0.000  -0.000   0.000   0.000  -0.000   0.000
 -0.000  -0.000   0.000  -0.000   0.000   0.000  -0.000   0.000
 pseudopotential strength for first ion, spin component:           2
-46.431  -0.000   0.000   8.222   0.000  -0.000  -0.000   0.000
 -0.000 -46.576   0.000   0.000   8.279  -0.000   0.000   0.000
  0.000   0.000 -46.375  -0.000  -0.000   8.198   0.000   0.000
  8.222   0.000  -0.000   5.489   0.000  -0.000   0.000   0.000
  0.000   8.279  -0.000   0.000   5.474  -0.000  -0.000  -0.000
 -0.000  -0.000   8.198  -0.000  -0.000   5.495  -0.000  -0.000
 -0.000   0.000   0.000   0.000  -0.000  -0.000  -3.192   0.000
  0.000   0.000   0.000   0.000  -0.000  -0.000   0.000  -3.320
 -0.000   0.000   0.000   0.000   0.000  -0.000  -0.000  -0.000
  0.000  -0.000  -0.000  -0.000  -0.000   0.000  -0.000   0.000
 -0.000  -0.000  -0.000   0.000   0.000   0.000   0.000   0.000
 -0.000   0.000   0.000   0.000  -0.000  -0.000  -3.688   0.000
  0.000   0.000   0.000   0.000  -0.000  -0.000   0.000  -3.813
 -0.000   0.000   0.000   0.000   0.000  -0.000  -0.000  -0.000
  0.000  -0.000  -0.000  -0.000   0.000   0.000  -0.000   0.000
 -0.000  -0.000  -0.000   0.000   0.000   0.000   0.000   0.000
 -0.000   0.000   0.000  -0.000   0.000   0.000  -0.000   0.000
 -0.000   0.000   0.000  -0.000   0.000   0.000  -0.000   0.000
 total augmentation occupancy for first ion, spin component:           1
  1.991   0.000   0.000  -0.031   0.000   0.000   0.000  -0.000   0.000   0.000   0.000   0.000   0.000   0.000   0.000   0.000
  0.000   1.991   0.000   0.000  -0.032   0.000   0.000   0.000  -0.000   0.000   0.000   0.000   0.000   0.000   0.000  -0.000
  0.000   0.000   1.991   0.000   0.000  -0.031   0.000   0.000   0.000  -0.000   0.000   0.000   0.000   0.000   0.000   0.000
 -0.031   0.000   0.000   0.179   0.000   0.000   0.000  -0.000   0.000   0.000   0.000   0.000   0.000   0.000   0.000   0.000
  0.000  -0.032   0.000   0.000   0.179   0.000   0.000   0.000  -0.000   0.000   0.000   0.000   0.000   0.000   0.000  -0.000
  0.000   0.000  -0.031   0.000   0.000   0.154   0.000   0.000   0.000  -0.000   0.000   0.000   0.000   0.000   0.000   0.000
  0.000   0.000   0.000   0.000   0.000   0.000   2.883   0.000   0.000   0.000   0.000  -1.327   0.000   0.000   0.000   0.000
 -0.000   0.000   0.000  -0.000   0.000   0.000   0.000   2.893   0.000   0.000   0.000   0.000  -1.717   0.000   0.000   0.000
  0.000  -0.000   0.000   0.000  -0.000   0.000   0.000   0.000   3.362   0.000   0.295   0.000   0.000  -1.809   0.000  -0.258
  0.000   0.000  -0.000   0.000   0.000  -0.000   0.000   0.000   0.000   2.868   0.000   0.000   0.000   0.000  -1.498   0.000
  0.000   0.000   0.000   0.000   0.000   0.000   0.000   0.000   0.295   0.000   3.113   0.000   0.000  -0.250   0.000  -1.693
  0.000   0.000   0.000   0.000   0.000   0.000  -1.327   0.000   0.000   0.000   0.000   1.258   0.000   0.000   0.000   0.000
  0.000   0.000   0.000   0.000   0.000   0.000   0.000  -1.717   0.000   0.000   0.000   0.000   1.893   0.000   0.000   0.000
  0.000   0.000   0.000   0.000   0.000   0.000   0.000   0.000  -1.809   0.000  -0.250   0.000   0.000   1.538   0.000   0.152
  0.000   0.000   0.000   0.000   0.000   0.000   0.000   0.000   0.000  -1.498   0.000   0.000   0.000   0.000   1.381   0.000
  0.000  -0.000   0.000   0.000  -0.000   0.000   0.000   0.000  -0.258   0.000  -1.693   0.000   0.000   0.152   0.000   1.493
  0.000   0.000   0.000   0.000   0.000   0.000   0.000   0.000  -0.133   0.000   0.161   0.000   0.000   0.106   0.000  -0.154
  0.000  -0.000   0.000   0.000  -0.000   0.000   0.000   0.000   0.013   0.000  -0.006   0.000   0.000  -0.007   0.000   0.006
 total augmentation occupancy for first ion, spin component:           2
  0.002   0.000   0.000   0.007   0.000   0.000   0.000   0.000   0.000   0.000   0.000   0.000  -0.000   0.000   0.000   0.000
  0.000   0.002   0.000   0.000   0.007   0.000   0.000   0.000   0.000   0.000  -0.000   0.000   0.000  -0.000   0.000   0.000
  0.000   0.000   0.002   0.000   0.000   0.007   0.000   0.000   0.000   0.000   0.000   0.000   0.000   0.000  -0.000   0.000
  0.007   0.000   0.000  -0.029   0.000   0.000   0.000   0.000   0.000   0.000   0.000   0.000  -0.000   0.000   0.000   0.000
  0.000   0.007   0.000   0.000  -0.028   0.000   0.000   0.000   0.000   0.000  -0.000   0.000   0.000  -0.000   0.000   0.000
  0.000   0.000   0.007   0.000   0.000  -0.036   0.000   0.000   0.000   0.000   0.000   0.000   0.000   0.000  -0.000   0.000
  0.000   0.000   0.000   0.000   0.000   0.000  -1.495   0.000   0.000   0.000   0.000   0.537   0.000   0.000   0.000   0.000
  0.000   0.000   0.000   0.000   0.000   0.000   0.000  -1.982   0.000   0.000   0.000   0.000   0.801   0.000   0.000   0.000
  0.000   0.000   0.000   0.000   0.000   0.000   0.000   0.000  -2.609   0.000  -0.370   0.000   0.000   1.120   0.000   0.175
  0.000   0.000   0.000   0.000   0.000   0.000   0.000   0.000   0.000  -2.255   0.000   0.000   0.000   0.000   0.854   0.000
  0.000  -0.000   0.000   0.000  -0.000   0.000   0.000   0.000  -0.370   0.000  -2.546   0.000   0.000   0.182   0.000   1.071
  0.000   0.000   0.000   0.000   0.000   0.000   0.537   0.000   0.000   0.000   0.000  -0.014   0.000   0.000   0.000   0.000
 -0.000   0.000   0.000  -0.000   0.000   0.000   0.000   0.801   0.000   0.000   0.000   0.000  -0.125   0.000   0.000   0.000
  0.000  -0.000   0.000   0.000  -0.000   0.000   0.000   0.000   1.120   0.000   0.182   0.000   0.000  -0.376   0.000  -0.104
  0.000   0.000  -0.000   0.000   0.000  -0.000   0.000   0.000   0.000   0.854   0.000   0.000   0.000   0.000  -0.173   0.000
  0.000   0.000   0.000   0.000   0.000   0.000   0.000   0.000   0.175   0.000   1.071   0.000   0.000  -0.104   0.000  -0.365
  0.000  -0.000   0.000   0.000  -0.000   0.000   0.000   0.000   0.024   0.000  -0.009   0.000   0.000  -0.000   0.000  -0.017
  0.000   0.000   0.000   0.000  -0.000   0.000   0.000   0.000  -0.010   0.000   0.001   0.000   0.000   0.004   0.000   0.000


------------------------ aborting loop because EDIFF is reached ----------------------------------------





 total charge

# of ion       s       p       d       tot
------------------------------------------
    1        0.342   6.316   5.925  12.584
    2        0.323   6.269   5.956  12.548
    3        0.323   6.269   5.956  12.549
    4        0.325   6.282   5.964  12.572
    5        0.325   6.282   5.964  12.572
    6        0.322   6.274   5.956  12.552
    7        0.327   6.286   5.993  12.606
    8        0.313   6.263   5.975  12.551
    9        0.313   6.263   5.975  12.552
   10        0.718   0.606   7.980   9.305
   11        0.718   0.606   7.980   9.305
   12        0.711   0.589   7.994   9.294
--------------------------------------------------
tot          5.063  58.307  77.618 140.988



 magnetization (x)

# of ion       s       p       d       tot
------------------------------------------
    1       -0.040  -0.060  -2.691  -2.791
    2        0.008  -0.018   2.984   2.974
    3        0.008  -0.018   2.983   2.974
    4        0.009   0.003   2.771   2.783
    5        0.009   0.003   2.771   2.783
    6        0.003  -0.015   2.936   2.924
    7        0.014   0.012   2.558   2.584
    8       -0.002  -0.012   2.855   2.841
    9       -0.002  -0.012   2.854   2.841
   10       -0.028  -0.063   0.215   0.124
   11       -0.028  -0.063   0.215   0.124
   12       -0.041  -0.100   0.444   0.303
--------------------------------------------------
tot         -0.089  -0.343  20.895  20.463
 
    CHARGE:  cpu time      0.2663: real time      0.2682
    FORLOC:  cpu time      0.0018: real time      0.0018
    FORNL :  cpu time      1.3977: real time      1.4046
    STRESS:  cpu time      8.5148: real time      8.5846
    FORCOR:  cpu time      0.0221: real time      0.0223
    FORHAR:  cpu time      0.0029: real time      0.0030
    MIXING:  cpu time      0.0032: real time      0.0033
    OFIELD:  cpu time      0.0021: real time      0.0021

  FORCE on cell =-STRESS in cart. coord.  units (eV):
  Direction    XX          YY          ZZ          XY          YZ          ZX
  --------------------------------------------------------------------------------------
  Alpha Z   989.47750   989.47750   989.47750
  Ewald   -5857.18713 -5795.87861 -5848.27616    -0.00000     0.00000    -0.00000
  Hartree  1966.96547  2011.90024  1968.91667    -0.00000    -0.00000    -0.00000
  E(xc)    -941.00931  -941.12578  -941.03053    -0.00000    -0.00000    -0.00000
  Local     939.82534   826.61952   925.12856     0.00000     0.00000     0.00000
  n-local  -238.42179  -235.97600  -236.37003    12.37193     0.06149     0.01080
  augment  1439.82376  1443.86591  1441.57830     0.00000     0.00000    -0.00000
  Kinetic  1684.86741  1685.19913  1684.74600     5.81801     0.06604    -0.29915
  Fock        0.00000     0.00000     0.00000     0.00000     0.00000     0.00000
  -------------------------------------------------------------------------------------
  Total     -15.65876   -15.91809   -15.82970     0.00000     0.00000     0.00000
  in kB    -145.86113  -148.27677  -147.45344     0.00000     0.00000     0.00000
  external pressure =     -147.20 kB  Pullay stress =        0.00 kB


 VOLUME and BASIS-vectors are now :
 -----------------------------------------------------------------------------
  energy-cutoff  :      520.00
  volume of cell :      172.00
      direct lattice vectors                 reciprocal lattice vectors
     3.971748644  0.000000000  0.000000000     0.251778269  0.000000000  0.000000000
     0.000000000  3.696305424  0.000000000     0.000000000  0.270540414  0.000000000
     0.000000000  0.000000000 11.715985930     0.000000000  0.000000000  0.085353465

  length of vectors
     3.971748644  3.696305424 11.715985930     0.251778269  0.270540414  0.085353465


 FORCES acting on ions
    electron-ion (+dipol)            ewald-force                    non-local-force                 convergence-correction
 -----------------------------------------------------------------------------------------------
   -.344E-13 0.128E-11 -.271E+00   0.875E-13 -.421E-13 0.269E+00   0.311E-21 0.391E-21 -.610E-03   -.213E-12 -.226E-13 0.192E-02
   -.384E-13 0.185E-11 -.368E+02   -.512E-13 0.105E-13 0.369E+02   -.463E-19 -.133E-17 -.135E+00   -.198E-12 -.302E-13 -.260E-01
   -.342E-13 -.528E-12 0.371E+02   0.179E-13 0.892E-14 -.373E+02   -.114E-18 -.116E-17 0.135E+00   -.204E-12 -.265E-13 0.241E-01
   0.684E-12 0.695E-11 0.931E+02   -.856E-13 0.533E-14 -.936E+02   0.627E-19 0.349E-18 0.472E+00   0.300E-12 -.479E-13 0.243E-01
   0.686E-12 0.735E-11 -.940E+02   0.307E-13 -.763E-14 0.945E+02   0.264E-18 -.396E-18 -.467E+00   0.295E-12 -.786E-13 -.246E-01
   0.678E-12 -.494E-11 0.823E+00   0.589E-13 -.352E-13 -.821E+00   -.105E-20 -.404E-21 -.350E-02   0.309E-12 -.673E-13 0.459E-03
   0.696E-12 -.329E-13 -.269E+00   -.257E-13 0.781E-13 0.268E+00   0.889E-21 -.119E-22 -.695E-03   0.265E-12 -.545E-13 0.235E-02
   0.695E-12 0.310E-13 -.438E+02   0.360E-13 -.191E-13 0.443E+02   0.520E-20 0.183E-19 -.461E+00   0.273E-12 -.807E-13 -.272E-01
   0.690E-12 0.252E-12 0.441E+02   -.404E-13 0.652E-14 -.446E+02   0.220E-20 0.658E-20 0.461E+00   0.266E-12 -.389E-13 0.249E-01
   -.114E-13 0.519E-13 0.788E+02   0.427E-13 -.642E-14 -.788E+02   0.103E-18 -.665E-19 -.263E-01   -.108E-12 0.243E-14 0.162E-01
   -.357E-13 0.903E-13 -.793E+02   -.393E-13 -.203E-13 0.793E+02   -.120E-18 0.240E-18 0.279E-01   -.956E-13 -.111E-13 -.166E-01
   -.264E-13 -.228E-13 0.476E+00   -.152E-13 0.474E-13 -.477E+00   0.119E-20 0.602E-21 -.168E-02   -.978E-13 -.747E-14 0.623E-03
 -----------------------------------------------------------------------------------------------
   0.395E-11 0.123E-10 -.362E-03   0.164E-13 0.261E-13 0.270E-12   0.158E-18 -.234E-17 -.120E-03   0.792E-12 -.463E-12 0.429E-03
 
 
 POSITION                                       TOTAL-FORCE (eV/Angst)
 -----------------------------------------------------------------------------------
      0.00000      1.84815      1.95259         0.000000     -0.000000     -0.000296
      0.00000      1.84815      5.85028        -0.000000      0.000000     -0.003264
      0.00000      1.84815      9.77119        -0.000000      0.000000      0.003601
      1.98587      1.84815      0.03721        -0.000000     -0.000000      0.001315
      1.98587      1.84815      3.86757        -0.000000      0.000000     -0.000624
      1.98587      1.84815      7.81114        -0.000000     -0.000000     -0.001095
      1.98587      0.00000      1.95254         0.000000     -0.000000      0.000142
      1.98587      0.00000      5.83287         0.000000     -0.000000      0.007101
      1.98587      0.00000      9.78855        -0.000000     -0.000000     -0.006829
      0.00000      0.00000      0.06959         0.000000     -0.000000     -0.004721
      0.00000      0.00000      3.83553         0.000000     -0.000000      0.006035
      0.00000      0.00000      7.81088         0.000000     -0.000000     -0.001364
 -----------------------------------------------------------------------------------
    total drift:                                0.000000      0.000000     -0.000053


--------------------------------------------------------------------------------------------------------



  FREE ENERGIE OF THE ION-ELECTRON SYSTEM (eV)
  ---------------------------------------------------
  free  energy   TOTEN  =       -92.46771585 eV

  energy  without entropy=      -92.46771585  energy(sigma->0) =      -92.46771585
 


--------------------------------------------------------------------------------------------------------


    POTLOK:  cpu time      0.0393: real time      0.0398


--------------------------------------------------------------------------------------------------------


     LOOP+:  cpu time    452.7457: real time    456.5362
 -----------------------------------------------------------------------------
|                                                                             |
|           W    W    AA    RRRRR   N    N  II  N    N   GGGG   !!!           |
|           W    W   A  A   R    R  NN   N  II  NN   N  G    G  !!!           |
|           W    W  A    A  R    R  N N  N  II  N N  N  G       !!!           |
|           W WW W  AAAAAA  RRRRR   N  N N  II  N  N N  G  GGG   !            |
|           WW  WW  A    A  R   R   N   NN  II  N   NN  G    G                |
|           W    W  A    A  R    R  N    N  II  N    N   GGGG   !!!           |
|                                                                             |
|     Tetrahedron method does not include variations of the Fermi             |
|     occupations, so forces and stress will be inaccurate. We suggest        |
|     using a different smearing scheme ISMEAR = 1 or 2 for metals in         |
|     relaxations.                                                            |
|                                                                             |
 -----------------------------------------------------------------------------

    4ORBIT:  cpu time      0.0000: real time      0.0000



 total charge

# of ion       s       p       d       tot
------------------------------------------
    1        0.342   6.316   5.925  12.584
    2        0.323   6.269   5.956  12.548
    3        0.323   6.269   5.956  12.549
    4        0.325   6.282   5.964  12.572
    5        0.325   6.282   5.964  12.572
    6        0.322   6.274   5.956  12.552
    7        0.327   6.286   5.993  12.606
    8        0.313   6.263   5.975  12.551
    9        0.313   6.263   5.975  12.552
   10        0.718   0.606   7.980   9.305
   11        0.718   0.606   7.980   9.305
   12        0.711   0.589   7.994   9.294
--------------------------------------------------
tot          5.063  58.307  77.618 140.988



 magnetization (x)

# of ion       s       p       d       tot
------------------------------------------
    1       -0.040  -0.060  -2.691  -2.791
    2        0.008  -0.018   2.984   2.974
    3        0.008  -0.018   2.983   2.974
    4        0.009   0.003   2.771   2.783
    5        0.009   0.003   2.771   2.783
    6        0.003  -0.015   2.936   2.924
    7        0.014   0.012   2.558   2.584
    8       -0.002  -0.012   2.855   2.841
    9       -0.002  -0.012   2.854   2.841
   10       -0.028  -0.063   0.215   0.124
   11       -0.028  -0.063   0.215   0.124
   12       -0.041  -0.100   0.444   0.303
--------------------------------------------------
tot         -0.089  -0.343  20.895  20.463
 
 BZINTS: Fermi energy:    8.591004;  156.000000 electrons
         Band energy:-0.181962E+04;  BLOECHL correction:   -0.018869

 total amount of memory used by VASP MPI-rank0   329874. kBytes
=======================================================================

   base      :      30000. kBytes
   nonl-proj :     198690. kBytes
   fftplans  :        986. kBytes
   grid      :       7702. kBytes
   one-center:        373. kBytes
   wavefun   :      92123. kBytes
 
  
  
 General timing and accounting informations for this job:
 ========================================================
  
                  Total CPU time used (sec):      483.289
                            User time (sec):      472.141
                          System time (sec):       11.148
                         Elapsed time (sec):      492.421
  
                   Maximum memory used (kb):     1147688.
                   Average memory used (kb):          N/A
  
                          Minor page faults:       256853
                          Major page faults:          356
                 Voluntary context switches:         8143
