 running   20 mpi-ranks, on    5 nodes
 distrk:  each k-point on   20 cores,    1 groups
 distr:  one band on    1 cores,   20 groups
 vasp.6.4.1 05Apr23 (build Jun 01 2023 13:46:15) complex                        
  
 POSCAR found type information on POSCAR FeSe
 POSCAR found :  2 types and      16 ions
 Reading from existing POTCAR
 scaLAPACK will be used
 -----------------------------------------------------------------------------
|                                                                             |
|           W    W    AA    RRRRR   N    N  II  N    N   GGGG   !!!           |
|           W    W   A  A   R    R  NN   N  II  NN   N  G    G  !!!           |
|           W    W  A    A  R    R  N N  N  II  N N  N  G       !!!           |
|           W WW W  AAAAAA  RRRRR   N  N N  II  N  N N  G  GGG   !            |
|           WW  WW  A    A  R   R   N   NN  II  N   NN  G    G                |
|           W    W  A    A  R    R  N    N  II  N    N   GGGG   !!!           |
|                                                                             |
|     For optimal performance we recommend to set                             |
|       NCORE = 2 up to number-of-cores-per-socket                            |
|     NCORE specifies how many cores store one orbital (NPAR=cpu/NCORE).      |
|     This setting can greatly improve the performance of VASP for DFT.       |
|     The default, NCORE=1 might be grossly inefficient on modern             |
|     multi-core architectures or massively parallel machines. Do your        |
|     own testing! More info at https://www.vasp.at/wiki/index.php/NCORE      |
|     Unfortunately you need to use the default for GW and RPA                |
|     calculations (for HF NCORE is supported but not extensively tested      |
|     yet).                                                                   |
|                                                                             |
 -----------------------------------------------------------------------------

 Reading from existing POTCAR
 LDA part: xc-table for Pade appr. of Perdew
 POSCAR, INCAR and KPOINTS ok, starting setup
 FFT: planning ... GRIDC
 FFT: planning ... GRID_SOFT
 FFT: planning ... GRID
 WAVECAR not read
 WARNING: random wavefunctions but no delay for mixing, default for NELMDL
 entering main loop
       N       E                     dE             d eps       ncg     rms          rms(c)
DAV:   1     0.204692852614E+04    0.20469E+04   -0.88876E+04 34160   0.200E+03
DAV:   2     0.122682494965E+03   -0.19242E+04   -0.18688E+04 32000   0.586E+02
DAV:   3    -0.840168233887E+02   -0.20670E+03   -0.18366E+03 44980   0.192E+02
DAV:   4    -0.981979026711E+02   -0.14181E+02   -0.13830E+02 46660   0.514E+01
DAV:   5    -0.985243283803E+02   -0.32643E+00   -0.32563E+00 44820   0.832E+00    0.266E+01
RMM:   6    -0.111181648848E+03   -0.12657E+02   -0.15577E+02 32040   0.816E+01    0.477E+01
RMM:   7    -0.905916761402E+02    0.20590E+02   -0.39126E+01 32004   0.483E+01    0.927E+00
RMM:   8    -0.910720503057E+02   -0.48037E+00   -0.29554E+00 41158   0.501E+00    0.405E+00
RMM:   9    -0.911262217436E+02   -0.54171E-01   -0.75502E-01 45855   0.260E+00    0.221E+00
RMM:  10    -0.911286321835E+02   -0.24104E-02   -0.20023E-01 45527   0.139E+00    0.901E-01
RMM:  11    -0.911366563481E+02   -0.80242E-02   -0.39379E-02 43877   0.731E-01    0.332E-01
RMM:  12    -0.911397661083E+02   -0.31098E-02   -0.88612E-03 41572   0.290E-01    0.170E-01
RMM:  13    -0.911396563237E+02    0.10978E-03   -0.17750E-03 28292   0.157E-01
   1 F= -.98370140E+02 E0= -.98359597E+02  d E =-.983701E+02  mag=    -0.0000
 curvature:   0.00 expect dE= 0.000E+00 dE for cont linesearch  0.000E+00
 trial: gam= 0.00000 g(F)=  0.235E-01 g(S)=  0.100E-01 ort = 0.000E+00 (trialstep = 0.100E+01)
 search vector abs. value=  0.335E-01
 bond charge predicted
       N       E                     dE             d eps       ncg     rms          rms(c)
DAV:   1    -0.912085758652E+02   -0.68810E-01   -0.23580E+00 38320   0.578E+00    0.186E+00
RMM:   2    -0.911760165218E+02    0.32559E-01   -0.17457E-01 36866   0.239E+00    0.144E+00
RMM:   3    -0.911627863712E+02    0.13230E-01   -0.90586E-02 33063   0.194E+00    0.904E-01
RMM:   4    -0.911549414372E+02    0.78449E-02   -0.26847E-02 33858   0.923E-01    0.267E-01
RMM:   5    -0.911556408077E+02   -0.69937E-03   -0.93367E-03 36957   0.339E-01    0.165E-01
RMM:   6    -0.911554742143E+02    0.16659E-03   -0.15414E-03 28771   0.197E-01
   2 F= -.98384659E+02 E0= -.98373449E+02  d E =-.145182E-01  mag=    -0.0000
 trial-energy change:   -0.014518  1 .order   -0.015434   -0.033469    0.002602
 step:   0.9162(harm=  0.9279)  dis= 0.01090  next Energy=   -98.384768 (dE=-0.146E-01)
 bond charge predicted
       N       E                     dE             d eps       ncg     rms          rms(c)
DAV:   1    -0.911558641618E+02   -0.22335E-03   -0.19260E-02 38240   0.539E-01    0.151E-01
RMM:   2    -0.911556919606E+02    0.17220E-03   -0.13603E-03 28468   0.213E-01
   3 F= -.98384984E+02 E0= -.98373842E+02  d E =-.148440E-01  mag=    -0.0000
 curvature:  -0.45 expect dE=-0.567E-02 dE for cont linesearch -0.228E-03
 trial: gam= 0.49803 g(F)=  0.141E-02 g(S)=  0.111E-01 ort =-0.411E-02 (trialstep = 0.983E+00)
 search vector abs. value=  0.168E-01
 bond charge predicted
       N       E                     dE             d eps       ncg     rms          rms(c)
DAV:   1    -0.911786975309E+02   -0.22833E-01   -0.95457E-01 34120   0.353E+00    0.111E+00
RMM:   2    -0.911628753157E+02    0.15822E-01   -0.60160E-02 34857   0.158E+00    0.636E-01
RMM:   3    -0.911634489634E+02   -0.57365E-03   -0.38193E-02 33497   0.115E+00    0.650E-01
RMM:   4    -0.911595199919E+02    0.39290E-02   -0.12593E-02 33063   0.692E-01    0.138E-01
RMM:   5    -0.911597289125E+02   -0.20892E-03   -0.43261E-03 30570   0.219E-01    0.858E-02
RMM:   6    -0.911596615634E+02    0.67349E-04   -0.71460E-04 23346   0.134E-01
   4 F= -.98389254E+02 E0= -.98377926E+02  d E =-.426916E-02  mag=    -0.0000
 trial-energy change:   -0.004269  1 .order   -0.006251   -0.010332   -0.002171
 step:   1.2448(harm=  1.2448)  dis= 0.01101  next Energy=   -98.391524 (dE=-0.654E-02)
 bond charge predicted
       N       E                     dE             d eps       ncg     rms          rms(c)
DAV:   1    -0.911611154482E+02   -0.13865E-02   -0.66345E-02 37680   0.928E-01    0.289E-01
RMM:   2    -0.911600410531E+02    0.10744E-02   -0.38632E-03 33028   0.396E-01    0.153E-01
RMM:   3    -0.911601291450E+02   -0.88092E-04   -0.24736E-03 28988   0.285E-01    0.174E-01
RMM:   4    -0.911598661633E+02    0.26298E-03   -0.89485E-04 25800   0.195E-01    0.375E-02
RMM:   5    -0.911598863437E+02   -0.20180E-04   -0.34216E-04 18304   0.662E-02
   5 F= -.98389566E+02 E0= -.98378178E+02  d E =-.458123E-02  mag=    -0.0000
 curvature:  -0.99 expect dE=-0.355E-02 dE for cont linesearch -0.847E-05
 trial: gam=-0.10097 g(F)=  0.521E-03 g(S)=  0.305E-02 ort = 0.378E-03 (trialstep = 0.104E+01)
 search vector abs. value=  0.367E-02
 bond charge predicted
       N       E                     dE             d eps       ncg     rms          rms(c)
DAV:   1    -0.911765337583E+02   -0.16668E-01   -0.43692E-01 33940   0.268E+00    0.948E-01
RMM:   2    -0.911655723451E+02    0.10961E-01   -0.28155E-02 35861   0.106E+00    0.691E-01
RMM:   3    -0.911627198224E+02    0.28525E-02   -0.20870E-02 32208   0.955E-01    0.482E-01
RMM:   4    -0.911604238020E+02    0.22960E-02   -0.59188E-03 31973   0.473E-01    0.140E-01
RMM:   5    -0.911605593682E+02   -0.13557E-03   -0.18883E-03 29820   0.165E-01
   6 F= -.98390873E+02 E0= -.98379765E+02  d E =-.130761E-02  mag=    -0.0000
 trial-energy change:   -0.001308  1 .order   -0.001428   -0.003661    0.000805
 step:   0.8489(harm=  0.8489)  dis= 0.00226  next Energy=   -98.391066 (dE=-0.150E-02)
 bond charge predicted
       N       E                     dE             d eps       ncg     rms          rms(c)
DAV:   1    -0.911613155574E+02   -0.89176E-03   -0.15244E-02 38400   0.527E-01    0.177E-01
RMM:   2    -0.911609022615E+02    0.41330E-03   -0.78690E-04 24831   0.180E-01    0.120E-01
RMM:   3    -0.911608511815E+02    0.51080E-04   -0.74998E-04 24713   0.179E-01
   7 F= -.98391054E+02 E0= -.98379957E+02  d E =-.148824E-02  mag=     0.0000
 curvature:  -0.44 expect dE=-0.621E-03 dE for cont linesearch -0.567E-03
 trial: gam= 0.00000 g(F)=  0.142E-03 g(S)=  0.127E-02 ort =-0.217E-02 (trialstep = 0.998E+00)
 search vector abs. value=  0.141E-02
 reached required accuracy - stopping structural energy minimisation
