       N       E                     dE             d eps       ncg     rms          rms(c)
DAV:   1     0.192346954164E+04    0.19235E+04   -0.71642E+04 89200   0.189E+03
DAV:   2     0.151324933526E+03   -0.17721E+04   -0.16611E+04 80640   0.550E+02
DAV:   3    -0.837752271681E+02   -0.23510E+03   -0.19316E+03 82288   0.212E+02
DAV:   4    -0.959891908846E+02   -0.12214E+02   -0.12007E+02 89672   0.575E+01
DAV:   5    -0.961908270713E+02   -0.20164E+00   -0.20154E+00109768   0.706E+00    0.428E+01
DAV:   6    -0.962287264105E+02   -0.37899E-01   -0.38107E+01109120   0.829E+01    0.596E+01
DAV:   7    -0.851225014042E+02    0.11106E+02   -0.25126E+01 98808   0.625E+01    0.302E+01
DAV:   8    -0.917896624120E+02   -0.66672E+01   -0.18687E+01 97936   0.620E+01    0.431E+01
DAV:   9    -0.865140189288E+02    0.52756E+01   -0.90148E+00100872   0.433E+01    0.300E+01
DAV:  10    -0.869026380741E+02   -0.38862E+00   -0.40072E+00 95752   0.242E+01    0.254E+01
DAV:  11    -0.877781100714E+02   -0.87547E+00   -0.21037E+00 93072   0.215E+01    0.109E+01
DAV:  12    -0.880425913143E+02   -0.26448E+00   -0.16010E+00 93744   0.164E+01    0.989E+00
DAV:  13    -0.878851265384E+02    0.15746E+00   -0.84000E-01 94928   0.118E+01    0.433E+00
DAV:  14    -0.878237815591E+02    0.61345E-01   -0.20892E-01102376   0.553E+00    0.207E+00
DAV:  15    -0.878196630433E+02    0.41185E-02   -0.12825E-01 91672   0.439E+00    0.200E+00
DAV:  16    -0.878135701598E+02    0.60929E-02   -0.11528E-01 91640   0.384E+00    0.153E+00
DAV:  17    -0.878167201024E+02   -0.31499E-02   -0.54531E-02101232   0.265E+00    0.120E+00
DAV:  18    -0.878100570335E+02    0.66631E-02   -0.18653E-02105144   0.159E+00    0.315E-01
DAV:  19    -0.878107294083E+02   -0.67237E-03   -0.39034E-03 91752   0.734E-01    0.344E-01
DAV:  20    -0.878102543438E+02    0.47506E-03   -0.22540E-03 97096   0.519E-01    0.140E-01
DAV:  21    -0.878103369961E+02   -0.82652E-04   -0.56730E-04 91032   0.246E-01    0.693E-02
DAV:  22    -0.878103162072E+02    0.20789E-04   -0.10842E-04 85504   0.768E-02    0.228E-02
DAV:  23    -0.878103343090E+02   -0.18102E-04   -0.26144E-05 76784   0.425E-02    0.380E-02
DAV:  24    -0.878103345328E+02   -0.22382E-06   -0.39290E-06 44632   0.191E-02
   1 F= -.87810335E+02 E0= -.87810335E+02  d E =0.000000E+00  mag=    12.9092
