 vasp.6.4.2 20Jul23 (build Aug 05 2024 17:09:17) complex                        
  
 executed on             LinuxIFC date 2025.05.27  02:14:30
 running   24 mpi-ranks, with    1 threads/rank, on    1 nodes
 distrk:  each k-point on   24 cores,    1 groups
 distr:  one band on NCORE=   3 cores,    8 groups


--------------------------------------------------------------------------------------------------------


 INCAR:
   SYSTEM = metalsystem
   EDIFF = 5E-6
   SIGMA = 0.2
   ISPIN = 2
   VOSKOWN = 1
   MAGMOM = 12*3
   LWAVE = .FALSE.
   ISIF = 2
   ISMEAR = -5
   NSW = 1
   IBRION = -1
   PREC = High
   NEDOS = 2000
   NPAR = 8
   LCHARG = .TRUE.
   AMIX = 0.2
   BMIX = 0.0001
   AMIX_MAG = 0.2
   BMIX_MAG = 0.0001

 POTCAR:   PAW Co 03Mar1998                       
 POTCAR:   PAW Ni_pv 19Apr2000                    
 POTCAR:   PAW Co 03Mar1998                       
   VRHFIN =Co: d8 s1                                                                                
   LEXCH  = CA                                                                                      
   EATOM  =   816.9490 eV,   60.0441 Ry                                                             
                                                                                                    
   TITEL  = PAW Co 03Mar1998                                                                        
   LULTRA =        F    use ultrasoft PP ?                                                          
   IUNSCR =        1    unscreen: 0-lin 1-nonlin 2-no                                               
   RPACOR =    2.000    partial core radius                                                         
   POMASS =   58.933; ZVAL   =    9.000    mass and valenz                                          
   RCORE  =    2.300    outmost cutoff radius                                                       
   RWIGS  =    2.460; RWIGS  =    1.302    wigner-seitz radius (au A)                               
   ENMAX  =  268.056; ENMIN  =  201.042 eV                                                          
   RCLOC  =    1.697    cutoff for local pot                                                        
   LCOR   =        T    correct aug charges                                                         
   LPAW   =        T    paw PP                                                                      
   EAUG   =  477.818                                                                                
   DEXC   =    -.013                                                                                
   RMAX   =    2.816    core radius for proj-oper                                                   
   RAUG   =    1.300    factor for augmentation sphere                                              
   RDEP   =    2.393    core radius for depl-charge                                                 
   QCUT   =   -4.439; QGAM   =    8.877    optimization parameters                                  
                                                                                                    
   Description                                                                                      
     l     E      TYP  RCUT    TYP  RCUT                                                            
     2   .000     23  2.300                                                                         
     2   .000     23  2.300                                                                         
     0   .000     23  2.300                                                                         
     0   .000     23  2.300                                                                         
     1  -.200     23  2.300                                                                         
     1   .000     23  2.300                                                                         
     3   .000      7   .000                                                                         
  local pseudopotential read in
  partial core-charges read in
  atomic valenz-charges read in
  non local Contribution for L=           2  read in
    real space projection operators read in
  non local Contribution for L=           2  read in
    real space projection operators read in
  non local Contribution for L=           0  read in
    real space projection operators read in
  non local Contribution for L=           0  read in
    real space projection operators read in
  non local Contribution for L=           1  read in
    real space projection operators read in
  non local Contribution for L=           1  read in
    real space projection operators read in
    PAW grid and wavefunctions read in
 
   number of l-projection  operators is LMAX  =           6
   number of lm-projection operators is LMMAX =          18
 
 POTCAR:   PAW Ni_pv 19Apr2000                    
   VRHFIN =Ni:                                                                                      
   LEXCH  = CA                                                                                      
   EATOM  =  3504.8643 eV,  257.6003 Ry                                                             
                                                                                                    
   TITEL  = PAW Ni_pv 19Apr2000                                                                     
   LULTRA =        F    use ultrasoft PP ?                                                          
   IUNSCR =        1    unscreen: 0-lin 1-nonlin 2-no                                               
   RPACOR =    1.500    partial core radius                                                         
   POMASS =   58.690; ZVAL   =   16.000    mass and valenz                                          
   RCORE  =    2.000    outmost cutoff radius                                                       
   RWIGS  =    2.000; RWIGS  =    1.058    wigner-seitz radius (au A)                               
   ENMAX  =  367.726; ENMIN  =  275.795 eV                                                          
   RCLOC  =    1.301    cutoff for local pot                                                        
   LCOR   =        T    correct aug charges                                                         
   LPAW   =        T    paw PP                                                                      
   EAUG   =  703.443                                                                                
   DEXC   =    -.002                                                                                
   RMAX   =    2.404    core radius for proj-oper                                                   
   RAUG   =    1.300    factor for augmentation sphere                                              
   RDEP   =    2.103    core radius for depl-charge                                                 
   QCUT   =   -5.199; QGAM   =   10.398    optimization parameters                                  
                                                                                                    
   Description                                                                                      
     l     E      TYP  RCUT    TYP  RCUT                                                            
     1   .000     23  1.700                                                                         
     1  -.100     23  1.700                                                                         
     2   .000     23  2.000                                                                         
     2   .000     23  2.000                                                                         
     0   .000     23  1.900                                                                         
     0   .000     23  1.900                                                                         
     3   .000      7   .000                                                                         
  local pseudopotential read in
  partial core-charges read in
  atomic valenz-charges read in
  non local Contribution for L=           1  read in
    real space projection operators read in
  non local Contribution for L=           1  read in
    real space projection operators read in
  non local Contribution for L=           2  read in
    real space projection operators read in
  non local Contribution for L=           2  read in
    real space projection operators read in
  non local Contribution for L=           0  read in
    real space projection operators read in
  non local Contribution for L=           0  read in
    real space projection operators read in
    PAW grid and wavefunctions read in
 
   number of l-projection  operators is LMAX  =           6
   number of lm-projection operators is LMMAX =          18
 
 PAW Co 03Mar1998                       :
 energy of atom  1       EATOM= -816.9490
 kinetic energy error for atom=    0.0033 (will be added to EATOM!!)
 PAW Ni_pv 19Apr2000                    :
 energy of atom  2       EATOM=-3504.8643
 kinetic energy error for atom=    0.0893 (will be added to EATOM!!)
 
 
 POSCAR: CoNiV
  positions in direct lattice
  velocities in cartesian coordinates
 exchange correlation table for  LEXCH =        2
   RHO(1)=    0.500       N(1)  =     2000
   RHO(2)=  100.500       N(2)  =     4000

 VTST: version 4.1, (05/19/21)

 CHAIN: initializing optimizer
 
 OPT: Using VASP Dynamics algorithm
 CHAIN: Read ICHAIN            0
 
 POSCAR: CoNiV
  positions in direct lattice
  velocities in cartesian coordinates
 


--------------------------------------------------------------------------------------------------------


 ion  position               nearest neighbor table
   1  0.834  0.250  0.337-   3 2.39   5 2.40   6 2.40   2 2.41   2 2.41  12 2.42  11 2.42  11 2.43
                            12 2.43   7 2.44  10 2.45   9 2.45
   2  0.834  0.750  0.337-   4 2.39   5 2.40   6 2.40   1 2.41   1 2.41  12 2.42  11 2.42  11 2.43
                            12 2.43   8 2.44  10 2.45   9 2.45
   3  0.165  0.250  0.664-   1 2.39  11 2.40  12 2.40   4 2.41   4 2.41   6 2.42   5 2.42  10 2.43
                             9 2.43   6 2.43   5 2.43   7 2.43
   4  0.165  0.750  0.664-   2 2.39  11 2.40  12 2.40   3 2.41   3 2.41   6 2.42   5 2.42  10 2.43
                             9 2.43   6 2.43   5 2.43   8 2.43
   5  0.667  0.000  0.665-   1 2.40   2 2.40  11 2.41   6 2.41   6 2.41   4 2.42   3 2.42   9 2.42
                             8 2.43   7 2.43   3 2.43   4 2.43
   6  0.667  0.500  0.665-   1 2.40   2 2.40  12 2.41   5 2.41   5 2.41   4 2.42   3 2.42  10 2.42
                             8 2.43   7 2.43   3 2.43   4 2.43
   7  0.501  0.250  0.999-   8 2.41   8 2.41  10 2.42   9 2.42   9 2.43  10 2.43   5 2.43   6 2.43
                             3 2.43  12 2.44  11 2.44   1 2.44
   8  0.501  0.750  0.999-   7 2.41   7 2.41  10 2.42   9 2.42   9 2.43  10 2.43   5 2.43   6 2.43
                             4 2.43  12 2.44  11 2.44   2 2.44
   9  1.000  0.000  0.999-  10 2.41  10 2.41   7 2.42   8 2.42   5 2.42   8 2.43   7 2.43   4 2.43
                             3 2.43  11 2.43   1 2.45   2 2.45
  10  1.000  0.500  0.999-   9 2.41   9 2.41   7 2.42   8 2.42   6 2.42   8 2.43   7 2.43   4 2.43
                             3 2.43  12 2.43   1 2.45   2 2.45
  11  0.333  0.000  0.335-   3 2.40   4 2.40   5 2.41  12 2.41  12 2.41   2 2.42   1 2.42   2 2.43
                             1 2.43   9 2.43   8 2.44   7 2.44
  12  0.333  0.500  0.335-   3 2.40   4 2.40   6 2.41  11 2.41  11 2.41   2 2.42   1 2.42   2 2.43
                             1 2.43  10 2.43   8 2.44   7 2.44
 
  LATTYP: Found a simple monoclinic cell.
 ALAT       =     4.1990890206
 B/A-ratio  =     1.1502420436
 C/A-ratio  =     1.4137999713
 COS(beta)  =    -0.0029559368
  
  Lattice vectors:
  
 A1 = (   4.1990844426,   0.0000000000,  -0.0062005374)
 A2 = (   0.0000000000,   4.8299687363,   0.0000000000)
 A3 = (  -0.0087821267,   0.0000000000,   5.9366654410)


Analysis of symmetry for initial positions (statically):
=====================================================================
 Subroutine PRICEL returns following result:
 
  LATTYP: Found a simple monoclinic cell.
 ALAT       =     4.1990890206
 B/A-ratio  =     0.5751210218
 C/A-ratio  =     1.4137999713
 COS(beta)  =    -0.0029559368
  
  Lattice vectors:
  
 A1 = (   4.1990844426,   0.0000000000,  -0.0062005374)
 A2 = (   0.0000000000,   2.4149843681,   0.0000000000)
 A3 = (  -0.0087821267,   0.0000000000,   5.9366654410)
 
   2 primitive cells build up your supercell.
 

 Routine SETGRP: Setting up the symmetry group for a 
 simple monoclinic supercell.


 Subroutine GETGRP returns: Found  2 space group operations
 (whereof  2 operations were pure point group operations)
 out of a pool of  4 trial point group operations.


The static configuration has the point symmetry C_1h.


Analysis of symmetry for dynamics (positions and initial velocities):
=====================================================================
 Subroutine PRICEL returns following result:
 
  LATTYP: Found a simple monoclinic cell.
 ALAT       =     4.1990890206
 B/A-ratio  =     0.5751210218
 C/A-ratio  =     1.4137999713
 COS(beta)  =    -0.0029559368
  
  Lattice vectors:
  
 A1 = (   4.1990844426,   0.0000000000,  -0.0062005374)
 A2 = (   0.0000000000,   2.4149843681,   0.0000000000)
 A3 = (  -0.0087821267,   0.0000000000,   5.9366654410)
 
   2 primitive cells build up your supercell.
 

 Routine SETGRP: Setting up the symmetry group for a 
 simple monoclinic supercell.


 Subroutine GETGRP returns: Found  2 space group operations
 (whereof  2 operations were pure point group operations)
 out of a pool of  4 trial point group operations.


The dynamic configuration has the point symmetry C_1h.


Analysis of structural, dynamic, and magnetic symmetry:
=====================================================================
 Subroutine PRICEL returns following result:
 
  LATTYP: Found a simple monoclinic cell.
 ALAT       =     4.1990890206
 B/A-ratio  =     0.5751210218
 C/A-ratio  =     1.4137999713
 COS(beta)  =    -0.0029559368
  
  Lattice vectors:
  
 A1 = (   4.1990844426,   0.0000000000,  -0.0062005374)
 A2 = (   0.0000000000,   2.4149843681,   0.0000000000)
 A3 = (  -0.0087821267,   0.0000000000,   5.9366654410)
 
   2 primitive cells build up your supercell.
 

 Routine SETGRP: Setting up the symmetry group for a 
 simple monoclinic supercell.


 Subroutine GETGRP returns: Found  2 space group operations
 (whereof  2 operations were pure point group operations)
 out of a pool of  4 trial point group operations.


The overall configuration has the point symmetry C_1h.


 Subroutine INISYM returns: Found  2 space group operations
 (whereof  2 operations are pure point group operations),
 and found     2 'primitive' translations


----------------------------------------------------------------------------------------

                                     Primitive cell                                     

  volume of cell :      60.2019

  direct lattice vectors                    reciprocal lattice vectors
     4.199084443  0.000000000 -0.006200537     0.238147672  0.000000000  0.000352293
     0.000000000  2.414984368  0.000000000     0.000000000  0.414081355  0.000000000
    -0.008782127  0.000000000  5.936665441     0.000248733  0.000000000  0.168445097

  length of vectors
     4.199089021  2.414984368  5.936671937     0.238147933  0.414081355  0.168445280

  position of ions in fractional coordinates (direct lattice)
     0.834023862  0.500000000  0.337209476
     0.165308028  0.500000000  0.664488683
     0.667203941  0.000000000  0.665089321
     0.500617596  0.500000000  0.999087011
     0.999776255  0.000000000  0.998904846
     0.333070318  0.000000000  0.335220663

  ion indices of the primitive-cell ions
   primitive index   ion index
                 1           1
                 2           3
                 3           5
                 4           7
                 5           9
                 6          11

----------------------------------------------------------------------------------------

 
 
 KPOINTS: fcc-kp                                  

Automatic generation of k-mesh.
 Grid dimensions derived from RKLEN:
 generate k-points for:   10    8    7

 Generating k-lattice:

  Cartesian coordinates                     Fractional coordinates (reciprocal lattice)
     0.023814767  0.000000000  0.000035229     0.100000000  0.000000000  0.000000000
     0.000000000  0.025880085  0.000000000     0.000000000  0.125000000  0.000000000
     0.000035533  0.000000000  0.024063585     0.000000000  0.000000000  0.142857143

  Length of vectors
     0.023814793  0.025880085  0.024063611

  Shift w.r.t. Gamma in fractional coordinates (k-lattice)
     0.000000000  0.000000000  0.000000000

 TETIRR: Found   1680 inequivalent tetrahedra from     3360
 
 Subroutine IBZKPT returns following result:
 ===========================================
 
 Found    180 irreducible k-points:
 
 Following reciprocal coordinates:
            Coordinates               Weight
  0.000000  0.000000  0.000000      1.000000
  0.100000  0.000000  0.000000      2.000000
  0.200000  0.000000  0.000000      2.000000
  0.300000  0.000000  0.000000      2.000000
  0.400000  0.000000  0.000000      2.000000
  0.500000  0.000000  0.000000      1.000000
  0.000000  0.125000  0.000000      2.000000
  0.100000  0.125000  0.000000      4.000000
  0.200000  0.125000  0.000000      4.000000
  0.300000  0.125000  0.000000      4.000000
  0.400000  0.125000  0.000000      4.000000
  0.500000  0.125000  0.000000      2.000000
  0.000000  0.250000  0.000000      2.000000
  0.100000  0.250000  0.000000      4.000000
  0.200000  0.250000  0.000000      4.000000
  0.300000  0.250000  0.000000      4.000000
  0.400000  0.250000  0.000000      4.000000
  0.500000  0.250000  0.000000      2.000000
  0.000000  0.375000  0.000000      2.000000
  0.100000  0.375000  0.000000      4.000000
  0.200000  0.375000  0.000000      4.000000
  0.300000  0.375000  0.000000      4.000000
  0.400000  0.375000  0.000000      4.000000
  0.500000  0.375000  0.000000      2.000000
  0.000000  0.500000  0.000000      1.000000
  0.100000  0.500000  0.000000      2.000000
  0.200000  0.500000  0.000000      2.000000
  0.300000  0.500000  0.000000      2.000000
  0.400000  0.500000  0.000000      2.000000
  0.500000  0.500000  0.000000      1.000000
  0.000000  0.000000  0.142857      2.000000
  0.100000  0.000000  0.142857      2.000000
  0.200000  0.000000  0.142857      2.000000
  0.300000  0.000000  0.142857      2.000000
  0.400000  0.000000  0.142857      2.000000
  0.500000  0.000000  0.142857      2.000000
 -0.400000  0.000000  0.142857      2.000000
 -0.300000  0.000000  0.142857      2.000000
 -0.200000  0.000000  0.142857      2.000000
 -0.100000  0.000000  0.142857      2.000000
  0.000000  0.125000  0.142857      4.000000
  0.100000  0.125000  0.142857      4.000000
  0.200000  0.125000  0.142857      4.000000
  0.300000  0.125000  0.142857      4.000000
  0.400000  0.125000  0.142857      4.000000
  0.500000  0.125000  0.142857      4.000000
 -0.400000  0.125000  0.142857      4.000000
 -0.300000  0.125000  0.142857      4.000000
 -0.200000  0.125000  0.142857      4.000000
 -0.100000  0.125000  0.142857      4.000000
  0.000000  0.250000  0.142857      4.000000
  0.100000  0.250000  0.142857      4.000000
  0.200000  0.250000  0.142857      4.000000
  0.300000  0.250000  0.142857      4.000000
  0.400000  0.250000  0.142857      4.000000
  0.500000  0.250000  0.142857      4.000000
 -0.400000  0.250000  0.142857      4.000000
 -0.300000  0.250000  0.142857      4.000000
 -0.200000  0.250000  0.142857      4.000000
 -0.100000  0.250000  0.142857      4.000000
  0.000000  0.375000  0.142857      4.000000
  0.100000  0.375000  0.142857      4.000000
  0.200000  0.375000  0.142857      4.000000
  0.300000  0.375000  0.142857      4.000000
  0.400000  0.375000  0.142857      4.000000
  0.500000  0.375000  0.142857      4.000000
 -0.400000  0.375000  0.142857      4.000000
 -0.300000  0.375000  0.142857      4.000000
 -0.200000  0.375000  0.142857      4.000000
 -0.100000  0.375000  0.142857      4.000000
  0.000000  0.500000  0.142857      2.000000
  0.100000  0.500000  0.142857      2.000000
  0.200000  0.500000  0.142857      2.000000
  0.300000  0.500000  0.142857      2.000000
  0.400000  0.500000  0.142857      2.000000
  0.500000  0.500000  0.142857      2.000000
 -0.400000  0.500000  0.142857      2.000000
 -0.300000  0.500000  0.142857      2.000000
 -0.200000  0.500000  0.142857      2.000000
 -0.100000  0.500000  0.142857      2.000000
  0.000000  0.000000  0.285714      2.000000
  0.100000  0.000000  0.285714      2.000000
  0.200000  0.000000  0.285714      2.000000
  0.300000  0.000000  0.285714      2.000000
  0.400000  0.000000  0.285714      2.000000
  0.500000  0.000000  0.285714      2.000000
 -0.400000  0.000000  0.285714      2.000000
 -0.300000  0.000000  0.285714      2.000000
 -0.200000  0.000000  0.285714      2.000000
 -0.100000  0.000000  0.285714      2.000000
  0.000000  0.125000  0.285714      4.000000
  0.100000  0.125000  0.285714      4.000000
  0.200000  0.125000  0.285714      4.000000
  0.300000  0.125000  0.285714      4.000000
  0.400000  0.125000  0.285714      4.000000
  0.500000  0.125000  0.285714      4.000000
 -0.400000  0.125000  0.285714      4.000000
 -0.300000  0.125000  0.285714      4.000000
 -0.200000  0.125000  0.285714      4.000000
 -0.100000  0.125000  0.285714      4.000000
  0.000000  0.250000  0.285714      4.000000
  0.100000  0.250000  0.285714      4.000000
  0.200000  0.250000  0.285714      4.000000
  0.300000  0.250000  0.285714      4.000000
  0.400000  0.250000  0.285714      4.000000
  0.500000  0.250000  0.285714      4.000000
 -0.400000  0.250000  0.285714      4.000000
 -0.300000  0.250000  0.285714      4.000000
 -0.200000  0.250000  0.285714      4.000000
 -0.100000  0.250000  0.285714      4.000000
  0.000000  0.375000  0.285714      4.000000
  0.100000  0.375000  0.285714      4.000000
  0.200000  0.375000  0.285714      4.000000
  0.300000  0.375000  0.285714      4.000000
  0.400000  0.375000  0.285714      4.000000
  0.500000  0.375000  0.285714      4.000000
 -0.400000  0.375000  0.285714      4.000000
 -0.300000  0.375000  0.285714      4.000000
 -0.200000  0.375000  0.285714      4.000000
 -0.100000  0.375000  0.285714      4.000000
  0.000000  0.500000  0.285714      2.000000
  0.100000  0.500000  0.285714      2.000000
  0.200000  0.500000  0.285714      2.000000
  0.300000  0.500000  0.285714      2.000000
  0.400000  0.500000  0.285714      2.000000
  0.500000  0.500000  0.285714      2.000000
 -0.400000  0.500000  0.285714      2.000000
 -0.300000  0.500000  0.285714      2.000000
 -0.200000  0.500000  0.285714      2.000000
 -0.100000  0.500000  0.285714      2.000000
  0.000000  0.000000  0.428571      2.000000
  0.100000  0.000000  0.428571      2.000000
  0.200000  0.000000  0.428571      2.000000
  0.300000  0.000000  0.428571      2.000000
  0.400000  0.000000  0.428571      2.000000
  0.500000  0.000000  0.428571      2.000000
 -0.400000  0.000000  0.428571      2.000000
 -0.300000  0.000000  0.428571      2.000000
 -0.200000  0.000000  0.428571      2.000000
 -0.100000  0.000000  0.428571      2.000000
  0.000000  0.125000  0.428571      4.000000
  0.100000  0.125000  0.428571      4.000000
  0.200000  0.125000  0.428571      4.000000
  0.300000  0.125000  0.428571      4.000000
  0.400000  0.125000  0.428571      4.000000
  0.500000  0.125000  0.428571      4.000000
 -0.400000  0.125000  0.428571      4.000000
 -0.300000  0.125000  0.428571      4.000000
 -0.200000  0.125000  0.428571      4.000000
 -0.100000  0.125000  0.428571      4.000000
  0.000000  0.250000  0.428571      4.000000
  0.100000  0.250000  0.428571      4.000000
  0.200000  0.250000  0.428571      4.000000
  0.300000  0.250000  0.428571      4.000000
  0.400000  0.250000  0.428571      4.000000
  0.500000  0.250000  0.428571      4.000000
 -0.400000  0.250000  0.428571      4.000000
 -0.300000  0.250000  0.428571      4.000000
 -0.200000  0.250000  0.428571      4.000000
 -0.100000  0.250000  0.428571      4.000000
  0.000000  0.375000  0.428571      4.000000
  0.100000  0.375000  0.428571      4.000000
  0.200000  0.375000  0.428571      4.000000
  0.300000  0.375000  0.428571      4.000000
  0.400000  0.375000  0.428571      4.000000
  0.500000  0.375000  0.428571      4.000000
 -0.400000  0.375000  0.428571      4.000000
 -0.300000  0.375000  0.428571      4.000000
 -0.200000  0.375000  0.428571      4.000000
 -0.100000  0.375000  0.428571      4.000000
  0.000000  0.500000  0.428571      2.000000
  0.100000  0.500000  0.428571      2.000000
  0.200000  0.500000  0.428571      2.000000
  0.300000  0.500000  0.428571      2.000000
  0.400000  0.500000  0.428571      2.000000
  0.500000  0.500000  0.428571      2.000000
 -0.400000  0.500000  0.428571      2.000000
 -0.300000  0.500000  0.428571      2.000000
 -0.200000  0.500000  0.428571      2.000000
 -0.100000  0.500000  0.428571      2.000000
 
 Following cartesian coordinates:
            Coordinates               Weight
  0.000000  0.000000  0.000000      1.000000
  0.085388  0.000000  0.000126      2.000000
  0.170776  0.000000  0.000253      2.000000
  0.256164  0.000000  0.000379      2.000000
  0.341551  0.000000  0.000505      2.000000
  0.426939  0.000000  0.000632      1.000000
  0.000000  0.092793  0.000000      2.000000
  0.085388  0.092793  0.000126      4.000000
  0.170776  0.092793  0.000253      4.000000
  0.256164  0.092793  0.000379      4.000000
  0.341551  0.092793  0.000505      4.000000
  0.426939  0.092793  0.000632      2.000000
  0.000000  0.185586  0.000000      2.000000
  0.085388  0.185586  0.000126      4.000000
  0.170776  0.185586  0.000253      4.000000
  0.256164  0.185586  0.000379      4.000000
  0.341551  0.185586  0.000505      4.000000
  0.426939  0.185586  0.000632      2.000000
  0.000000  0.278379  0.000000      2.000000
  0.085388  0.278379  0.000126      4.000000
  0.170776  0.278379  0.000253      4.000000
  0.256164  0.278379  0.000379      4.000000
  0.341551  0.278379  0.000505      4.000000
  0.426939  0.278379  0.000632      2.000000
  0.000000  0.371172  0.000000      1.000000
  0.085388  0.371172  0.000126      2.000000
  0.170776  0.371172  0.000253      2.000000
  0.256164  0.371172  0.000379      2.000000
  0.341551  0.371172  0.000505      2.000000
  0.426939  0.371172  0.000632      1.000000
  0.000127  0.000000  0.086280      2.000000
  0.085515  0.000000  0.086406      2.000000
  0.170903  0.000000  0.086533      2.000000
  0.256291  0.000000  0.086659      2.000000
  0.341679  0.000000  0.086785      2.000000
  0.427067  0.000000  0.086912      2.000000
 -0.341424  0.000000  0.085775      2.000000
 -0.256036  0.000000  0.085901      2.000000
 -0.170648  0.000000  0.086027      2.000000
 -0.085260  0.000000  0.086154      2.000000
  0.000127  0.092793  0.086280      4.000000
  0.085515  0.092793  0.086406      4.000000
  0.170903  0.092793  0.086533      4.000000
  0.256291  0.092793  0.086659      4.000000
  0.341679  0.092793  0.086785      4.000000
  0.427067  0.092793  0.086912      4.000000
 -0.341424  0.092793  0.085775      4.000000
 -0.256036  0.092793  0.085901      4.000000
 -0.170648  0.092793  0.086027      4.000000
 -0.085260  0.092793  0.086154      4.000000
  0.000127  0.185586  0.086280      4.000000
  0.085515  0.185586  0.086406      4.000000
  0.170903  0.185586  0.086533      4.000000
  0.256291  0.185586  0.086659      4.000000
  0.341679  0.185586  0.086785      4.000000
  0.427067  0.185586  0.086912      4.000000
 -0.341424  0.185586  0.085775      4.000000
 -0.256036  0.185586  0.085901      4.000000
 -0.170648  0.185586  0.086027      4.000000
 -0.085260  0.185586  0.086154      4.000000
  0.000127  0.278379  0.086280      4.000000
  0.085515  0.278379  0.086406      4.000000
  0.170903  0.278379  0.086533      4.000000
  0.256291  0.278379  0.086659      4.000000
  0.341679  0.278379  0.086785      4.000000
  0.427067  0.278379  0.086912      4.000000
 -0.341424  0.278379  0.085775      4.000000
 -0.256036  0.278379  0.085901      4.000000
 -0.170648  0.278379  0.086027      4.000000
 -0.085260  0.278379  0.086154      4.000000
  0.000127  0.371172  0.086280      2.000000
  0.085515  0.371172  0.086406      2.000000
  0.170903  0.371172  0.086533      2.000000
  0.256291  0.371172  0.086659      2.000000
  0.341679  0.371172  0.086785      2.000000
  0.427067  0.371172  0.086912      2.000000
 -0.341424  0.371172  0.085775      2.000000
 -0.256036  0.371172  0.085901      2.000000
 -0.170648  0.371172  0.086027      2.000000
 -0.085260  0.371172  0.086154      2.000000
  0.000255  0.000000  0.172560      2.000000
  0.085643  0.000000  0.172686      2.000000
  0.171031  0.000000  0.172813      2.000000
  0.256418  0.000000  0.172939      2.000000
  0.341806  0.000000  0.173065      2.000000
  0.427194  0.000000  0.173192      2.000000
 -0.341297  0.000000  0.172055      2.000000
 -0.255909  0.000000  0.172181      2.000000
 -0.170521  0.000000  0.172307      2.000000
 -0.085133  0.000000  0.172434      2.000000
  0.000255  0.092793  0.172560      4.000000
  0.085643  0.092793  0.172686      4.000000
  0.171031  0.092793  0.172813      4.000000
  0.256418  0.092793  0.172939      4.000000
  0.341806  0.092793  0.173065      4.000000
  0.427194  0.092793  0.173192      4.000000
 -0.341297  0.092793  0.172055      4.000000
 -0.255909  0.092793  0.172181      4.000000
 -0.170521  0.092793  0.172307      4.000000
 -0.085133  0.092793  0.172434      4.000000
  0.000255  0.185586  0.172560      4.000000
  0.085643  0.185586  0.172686      4.000000
  0.171031  0.185586  0.172813      4.000000
  0.256418  0.185586  0.172939      4.000000
  0.341806  0.185586  0.173065      4.000000
  0.427194  0.185586  0.173192      4.000000
 -0.341297  0.185586  0.172055      4.000000
 -0.255909  0.185586  0.172181      4.000000
 -0.170521  0.185586  0.172307      4.000000
 -0.085133  0.185586  0.172434      4.000000
  0.000255  0.278379  0.172560      4.000000
  0.085643  0.278379  0.172686      4.000000
  0.171031  0.278379  0.172813      4.000000
  0.256418  0.278379  0.172939      4.000000
  0.341806  0.278379  0.173065      4.000000
  0.427194  0.278379  0.173192      4.000000
 -0.341297  0.278379  0.172055      4.000000
 -0.255909  0.278379  0.172181      4.000000
 -0.170521  0.278379  0.172307      4.000000
 -0.085133  0.278379  0.172434      4.000000
  0.000255  0.371172  0.172560      2.000000
  0.085643  0.371172  0.172686      2.000000
  0.171031  0.371172  0.172813      2.000000
  0.256418  0.371172  0.172939      2.000000
  0.341806  0.371172  0.173065      2.000000
  0.427194  0.371172  0.173192      2.000000
 -0.341297  0.371172  0.172055      2.000000
 -0.255909  0.371172  0.172181      2.000000
 -0.170521  0.371172  0.172307      2.000000
 -0.085133  0.371172  0.172434      2.000000
  0.000382  0.000000  0.258840      2.000000
  0.085770  0.000000  0.258966      2.000000
  0.171158  0.000000  0.259093      2.000000
  0.256546  0.000000  0.259219      2.000000
  0.341934  0.000000  0.259345      2.000000
  0.427321  0.000000  0.259472      2.000000
 -0.341169  0.000000  0.258335      2.000000
 -0.255781  0.000000  0.258461      2.000000
 -0.170393  0.000000  0.258587      2.000000
 -0.085006  0.000000  0.258714      2.000000
  0.000382  0.092793  0.258840      4.000000
  0.085770  0.092793  0.258966      4.000000
  0.171158  0.092793  0.259093      4.000000
  0.256546  0.092793  0.259219      4.000000
  0.341934  0.092793  0.259345      4.000000
  0.427321  0.092793  0.259472      4.000000
 -0.341169  0.092793  0.258335      4.000000
 -0.255781  0.092793  0.258461      4.000000
 -0.170393  0.092793  0.258587      4.000000
 -0.085006  0.092793  0.258714      4.000000
  0.000382  0.185586  0.258840      4.000000
  0.085770  0.185586  0.258966      4.000000
  0.171158  0.185586  0.259093      4.000000
  0.256546  0.185586  0.259219      4.000000
  0.341934  0.185586  0.259345      4.000000
  0.427321  0.185586  0.259472      4.000000
 -0.341169  0.185586  0.258335      4.000000
 -0.255781  0.185586  0.258461      4.000000
 -0.170393  0.185586  0.258587      4.000000
 -0.085006  0.185586  0.258714      4.000000
  0.000382  0.278379  0.258840      4.000000
  0.085770  0.278379  0.258966      4.000000
  0.171158  0.278379  0.259093      4.000000
  0.256546  0.278379  0.259219      4.000000
  0.341934  0.278379  0.259345      4.000000
  0.427321  0.278379  0.259472      4.000000
 -0.341169  0.278379  0.258335      4.000000
 -0.255781  0.278379  0.258461      4.000000
 -0.170393  0.278379  0.258587      4.000000
 -0.085006  0.278379  0.258714      4.000000
  0.000382  0.371172  0.258840      2.000000
  0.085770  0.371172  0.258966      2.000000
  0.171158  0.371172  0.259093      2.000000
  0.256546  0.371172  0.259219      2.000000
  0.341934  0.371172  0.259345      2.000000
  0.427321  0.371172  0.259472      2.000000
 -0.341169  0.371172  0.258335      2.000000
 -0.255781  0.371172  0.258461      2.000000
 -0.170393  0.371172  0.258587      2.000000
 -0.085006  0.371172  0.258714      2.000000
 


--------------------------------------------------------------------------------------------------------




 Dimension of arrays:
   k-points           NKPTS =    180   k-points in BZ     NKDIM =    180   number of bands    NBANDS=    112
   number of dos      NEDOS =   2000   number of ions     NIONS =     12
   non local maximal  LDIM  =      6   non local SUM 2l+1 LMDIM =     18
   total plane-waves  NPLWV =  45360
   max r-space proj   IRMAX =      1   max aug-charges    IRDMAX=   7903
   dimension x,y,z NGX =    30 NGY =   36 NGZ =   42
   dimension x,y,z NGXF=    48 NGYF=   56 NGZF=   70
   support grid    NGXF=    48 NGYF=   56 NGZF=   70
   ions per type =               6   6
   NGX,Y,Z   is equivalent  to a cutoff of  11.88, 12.39, 11.76 a.u.
   NGXF,Y,Z  is equivalent  to a cutoff of  19.00, 19.28, 19.60 a.u.

 SYSTEM =  metalsystem                             
 POSCAR =  CoNiV                                   

 Startparameter for this run:
   NWRITE =      2    write-flag & timer
   PREC   = high      normal or accurate (medium, high low for compatibility)
   ISTART =      0    job   : 0-new  1-cont  2-samecut
   ICHARG =      2    charge: 1-file 2-atom 10-const
   ISPIN  =      2    spin polarized calculation?
   LNONCOLLINEAR =      F non collinear calculations
   LSORBIT =      F    spin-orbit coupling
   INIWAV =      1    electr: 0-lowe 1-rand  2-diag
   LASPH  =      F    aspherical Exc in radial PAW
 Electronic Relaxation 1
   ENCUT  =  459.7 eV  33.78 Ry    5.81 a.u.   7.34  8.44 10.38*2*pi/ulx,y,z
   ENINI  =  459.7     initial cutoff
   ENAUG  =  703.4 eV  augmentation charge cutoff
   NELM   =     60;   NELMIN=  2; NELMDL= -5     # of ELM steps 
   EDIFF  = 0.5E-05   stopping-criterion for ELM
   LREAL  =      F    real-space projection
   NLSPLINE    = F    spline interpolate recip. space projectors
   LCOMPAT=      F    compatible to vasp.4.4
   GGA_COMPAT  = T    GGA compatible to vasp.4.4-vasp.4.6
   LMAXPAW     = -100 max onsite density
   LMAXMIX     =    2 max onsite mixed and CHGCAR
   VOSKOWN=      1    Vosko Wilk Nusair interpolation
   ROPT   =    0.00000   0.00000
 Ionic relaxation
   EDIFFG = 0.5E-04   stopping-criterion for IOM
   NSW    =      1    number of steps for IOM
   NBLOCK =      1;   KBLOCK =      1    inner block; outer block 
   IBRION =     -1    ionic relax: 0-MD 1-quasi-New 2-CG
   NFREE  =      0    steps in history (QN), initial steepest desc. (CG)
   ISIF   =      2    stress and relaxation
   IWAVPR =     10    prediction:  0-non 1-charg 2-wave 3-comb
   ISYM   =      2    0-nonsym 1-usesym 2-fastsym
   LCORR  =      T    Harris-Foulkes like correction to forces

   POTIM  = 0.5000    time-step for ionic-motion
   TEIN   =    0.0    initial temperature
   TEBEG  =    0.0;   TEEND  =   0.0 temperature during run
   SMASS  =  -3.00    Nose mass-parameter (am)
   estimated Nose-frequenzy (Omega)   =  0.10E-29 period in steps = 0.13E+47 mass=  -0.403E-27a.u.
   SCALEE = 1.0000    scale energy and forces
   NPACO  =    256;   APACO  = 10.0  distance and # of slots for P.C.
   PSTRESS=    0.0 pullay stress

  Mass of Ions in am
   POMASS =  58.93 58.69
  Ionic Valenz
   ZVAL   =   9.00 16.00
  Atomic Wigner-Seitz radii
   RWIGS  =  -1.00 -1.00
  virtual crystal weights 
   VCA    =   1.00  1.00
   NELECT =     150.0000    total number of electrons
   NUPDOWN=      -1.0000    fix difference up-down

 DOS related values:
   EMIN   =  10.00;   EMAX   =-10.00  energy-range for DOS
   EFERMI =   0.00;   METHOD = LEGACY      
   ISMEAR =    -5;   SIGMA  =   0.20  broadening in eV -4-tet -1-fermi 0-gaus

 Electronic relaxation 2 (details)
   IALGO  =     38    algorithm
   LDIAG  =      T    sub-space diagonalisation (order eigenvalues)
   LSUBROT=      F    optimize rotation matrix (better conditioning)
   TURBO    =      0    0=normal 1=particle mesh
   IRESTART =      0    0=no restart 2=restart with 2 vectors
   NREBOOT  =      0    no. of reboots
   NMIN     =      0    reboot dimension
   EREF     =   0.00    reference energy to select bands
   IMIX   =      4    mixing-type and parameters
     AMIX     =   0.20;   BMIX     =  0.00
     AMIX_MAG =   0.20;   BMIX_MAG =  0.00
     AMIN     =   0.10
     WC   =   100.;   INIMIX=   1;  MIXPRE=   1;  MAXMIX= -45

 Intra band minimization:
   WEIMIN = 0.0000     energy-eigenvalue tresh-hold
   EBREAK =  0.11E-07  absolut break condition
   DEPER  =   0.30     relativ break condition  

   TIME   =   0.40     timestep for ELM

  volume/ion in A,a.u.               =      10.03        67.71
  Fermi-wavevector in a.u.,A,eV,Ry     =   1.761537  3.328822 42.219042  3.103012
  Thomas-Fermi vector in A             =   2.830087
 
 Write flags
   LWAVE        =      F    write WAVECAR
   LDOWNSAMPLE  =      F    k-point downsampling of WAVECAR
   LCHARG       =      T    write CHGCAR
   LVTOT        =      F    write LOCPOT, total local potential
   LVHAR        =      F    write LOCPOT, Hartree potential only
   LELF         =      F    write electronic localiz. function (ELF)
   LORBIT       =      0    0 simple, 1 ext, 2 COOP (PROOUT), +10 PAW based schemes


 Dipole corrections
   LMONO  =      F    monopole corrections only (constant potential shift)
   LDIPOL =      F    correct potential (dipole corrections)
   IDIPOL =      0    1-x, 2-y, 3-z, 4-all directions 
   EPSILON=  1.0000000 bulk dielectric constant

 Exchange correlation treatment:
   GGA     =    --    GGA type
   LEXCH   =     2    internal setting for exchange type
   LIBXC   =     F    Libxc                    
   VOSKOWN =     1    Vosko Wilk Nusair interpolation
   LHFCALC =     F    Hartree Fock is set to
   LHFONE  =     F    Hartree Fock one center treatment
   AEXX    =    0.0000 exact exchange contribution

 Linear response parameters
   LEPSILON=     F    determine dielectric tensor
   LRPA    =     F    only Hartree local field effects (RPA)
   LNABLA  =     F    use nabla operator in PAW spheres
   LVEL    =     F    velocity operator in full k-point grid
   CSHIFT  =0.1000    complex shift for real part using Kramers Kronig
   OMEGAMAX=  -1.0    maximum frequency
   DEG_THRESHOLD= 0.2000000E-02 threshold for treating states as degnerate
   RTIME   =   -0.100 relaxation time in fs
  (WPLASMAI=    0.000 imaginary part of plasma frequency in eV, 0.658/RTIME)
   DFIELD  = 0.0000000 0.0000000 0.0000000 field for delta impulse in time
 
  Optional k-point grid parameters
   LKPOINTS_OPT  =     F    use optional k-point grid
   KPOINTS_OPT_MODE=     1    mode for optional k-point grid
 
 Orbital magnetization related:
   ORBITALMAG=     F  switch on orbital magnetization
   LCHIMAG   =     F  perturbation theory with respect to B field
   DQ        =  0.001000  dq finite difference perturbation B field
   LLRAUG    =     F  two centre corrections for induced B field
   LBONE     =     F  B-component reconstruction in AE one-centre
   LVGVCALC  =     T  calculate vGv susceptibility
   LVGVAPPL  =     F  apply vGv susceptibility instead of pGv for G=0

 Random number generation:
   RANDOM_GENERATOR = DEFAULT
   PCG_SEED         = not used


--------------------------------------------------------------------------------------------------------


 Static calculation
 charge density and potential will be updated during run
 spin polarized calculation
 Variant of blocked Davidson
 Davidson routine will perform the subspace rotation
 perform sub-space diagonalisation
    after iterative eigenvector-optimisation
 modified Broyden-mixing scheme, WC =      100.0
 initial mixing is a Kerker type mixing with AMIX =  0.2000 and BMIX =      0.0001
 Hartree-type preconditioning will be used
 using additional bands           37
 reciprocal scheme for non local part
 use partial core corrections
 calculate Harris-corrections to forces 
   (improved forces if not selfconsistent)
 use of overlap-Matrix (Vanderbilt PP)
 Fermi weights with tetrahedron method with Bloechl corrections


--------------------------------------------------------------------------------------------------------


  energy-cutoff  :      459.66
  volume of cell :      120.40
      direct lattice vectors                 reciprocal lattice vectors
     4.199084443  0.000000000 -0.006200537     0.238147672  0.000000000  0.000352293
     0.000000000  4.829968736  0.000000000     0.000000000  0.207040678  0.000000000
    -0.008782127  0.000000000  5.936665441     0.000248733  0.000000000  0.168445097

  length of vectors
     4.199089021  4.829968736  5.936671937     0.238147933  0.207040678  0.168445280


 
 k-points in units of 2pi/SCALE and weight: fcc-kp                                  
   0.00000000  0.00000000  0.00000000       0.002
   0.08538785  0.00000000  0.00012631       0.004
   0.17077570  0.00000000  0.00025263       0.004
   0.25616354  0.00000000  0.00037894       0.004
   0.34155139  0.00000000  0.00050526       0.004
   0.42693924  0.00000000  0.00063157       0.002
   0.00000000  0.09279304  0.00000000       0.004
   0.08538785  0.09279304  0.00012631       0.007
   0.17077570  0.09279304  0.00025263       0.007
   0.25616354  0.09279304  0.00037894       0.007
   0.34155139  0.09279304  0.00050526       0.007
   0.42693924  0.09279304  0.00063157       0.004
   0.00000000  0.18558609  0.00000000       0.004
   0.08538785  0.18558609  0.00012631       0.007
   0.17077570  0.18558609  0.00025263       0.007
   0.25616354  0.18558609  0.00037894       0.007
   0.34155139  0.18558609  0.00050526       0.007
   0.42693924  0.18558609  0.00063157       0.004
   0.00000000  0.27837913  0.00000000       0.004
   0.08538785  0.27837913  0.00012631       0.007
   0.17077570  0.27837913  0.00025263       0.007
   0.25616354  0.27837913  0.00037894       0.007
   0.34155139  0.27837913  0.00050526       0.007
   0.42693924  0.27837913  0.00063157       0.004
   0.00000000  0.37117217  0.00000000       0.002
   0.08538785  0.37117217  0.00012631       0.004
   0.17077570  0.37117217  0.00025263       0.004
   0.25616354  0.37117217  0.00037894       0.004
   0.34155139  0.37117217  0.00050526       0.004
   0.42693924  0.37117217  0.00063157       0.002
   0.00012740  0.00000000  0.08627998       0.004
   0.08551525  0.00000000  0.08640630       0.004
   0.17090310  0.00000000  0.08653261       0.004
   0.25629095  0.00000000  0.08665893       0.004
   0.34167880  0.00000000  0.08678524       0.004
   0.42706664  0.00000000  0.08691156       0.004
  -0.34142399  0.00000000  0.08577473       0.004
  -0.25603614  0.00000000  0.08590104       0.004
  -0.17064829  0.00000000  0.08602736       0.004
  -0.08526044  0.00000000  0.08615367       0.004
   0.00012740  0.09279304  0.08627998       0.007
   0.08551525  0.09279304  0.08640630       0.007
   0.17090310  0.09279304  0.08653261       0.007
   0.25629095  0.09279304  0.08665893       0.007
   0.34167880  0.09279304  0.08678524       0.007
   0.42706664  0.09279304  0.08691156       0.007
  -0.34142399  0.09279304  0.08577473       0.007
  -0.25603614  0.09279304  0.08590104       0.007
  -0.17064829  0.09279304  0.08602736       0.007
  -0.08526044  0.09279304  0.08615367       0.007
   0.00012740  0.18558609  0.08627998       0.007
   0.08551525  0.18558609  0.08640630       0.007
   0.17090310  0.18558609  0.08653261       0.007
   0.25629095  0.18558609  0.08665893       0.007
   0.34167880  0.18558609  0.08678524       0.007
   0.42706664  0.18558609  0.08691156       0.007
  -0.34142399  0.18558609  0.08577473       0.007
  -0.25603614  0.18558609  0.08590104       0.007
  -0.17064829  0.18558609  0.08602736       0.007
  -0.08526044  0.18558609  0.08615367       0.007
   0.00012740  0.27837913  0.08627998       0.007
   0.08551525  0.27837913  0.08640630       0.007
   0.17090310  0.27837913  0.08653261       0.007
   0.25629095  0.27837913  0.08665893       0.007
   0.34167880  0.27837913  0.08678524       0.007
   0.42706664  0.27837913  0.08691156       0.007
  -0.34142399  0.27837913  0.08577473       0.007
  -0.25603614  0.27837913  0.08590104       0.007
  -0.17064829  0.27837913  0.08602736       0.007
  -0.08526044  0.27837913  0.08615367       0.007
   0.00012740  0.37117217  0.08627998       0.004
   0.08551525  0.37117217  0.08640630       0.004
   0.17090310  0.37117217  0.08653261       0.004
   0.25629095  0.37117217  0.08665893       0.004
   0.34167880  0.37117217  0.08678524       0.004
   0.42706664  0.37117217  0.08691156       0.004
  -0.34142399  0.37117217  0.08577473       0.004
  -0.25603614  0.37117217  0.08590104       0.004
  -0.17064829  0.37117217  0.08602736       0.004
  -0.08526044  0.37117217  0.08615367       0.004
   0.00025481  0.00000000  0.17255997       0.004
   0.08564266  0.00000000  0.17268628       0.004
   0.17103050  0.00000000  0.17281260       0.004
   0.25641835  0.00000000  0.17293891       0.004
   0.34180620  0.00000000  0.17306523       0.004
   0.42719405  0.00000000  0.17319154       0.004
  -0.34129658  0.00000000  0.17205471       0.004
  -0.25590873  0.00000000  0.17218103       0.004
  -0.17052089  0.00000000  0.17230734       0.004
  -0.08513304  0.00000000  0.17243366       0.004
   0.00025481  0.09279304  0.17255997       0.007
   0.08564266  0.09279304  0.17268628       0.007
   0.17103050  0.09279304  0.17281260       0.007
   0.25641835  0.09279304  0.17293891       0.007
   0.34180620  0.09279304  0.17306523       0.007
   0.42719405  0.09279304  0.17319154       0.007
  -0.34129658  0.09279304  0.17205471       0.007
  -0.25590873  0.09279304  0.17218103       0.007
  -0.17052089  0.09279304  0.17230734       0.007
  -0.08513304  0.09279304  0.17243366       0.007
   0.00025481  0.18558609  0.17255997       0.007
   0.08564266  0.18558609  0.17268628       0.007
   0.17103050  0.18558609  0.17281260       0.007
   0.25641835  0.18558609  0.17293891       0.007
   0.34180620  0.18558609  0.17306523       0.007
   0.42719405  0.18558609  0.17319154       0.007
  -0.34129658  0.18558609  0.17205471       0.007
  -0.25590873  0.18558609  0.17218103       0.007
  -0.17052089  0.18558609  0.17230734       0.007
  -0.08513304  0.18558609  0.17243366       0.007
   0.00025481  0.27837913  0.17255997       0.007
   0.08564266  0.27837913  0.17268628       0.007
   0.17103050  0.27837913  0.17281260       0.007
   0.25641835  0.27837913  0.17293891       0.007
   0.34180620  0.27837913  0.17306523       0.007
   0.42719405  0.27837913  0.17319154       0.007
  -0.34129658  0.27837913  0.17205471       0.007
  -0.25590873  0.27837913  0.17218103       0.007
  -0.17052089  0.27837913  0.17230734       0.007
  -0.08513304  0.27837913  0.17243366       0.007
   0.00025481  0.37117217  0.17255997       0.004
   0.08564266  0.37117217  0.17268628       0.004
   0.17103050  0.37117217  0.17281260       0.004
   0.25641835  0.37117217  0.17293891       0.004
   0.34180620  0.37117217  0.17306523       0.004
   0.42719405  0.37117217  0.17319154       0.004
  -0.34129658  0.37117217  0.17205471       0.004
  -0.25590873  0.37117217  0.17218103       0.004
  -0.17052089  0.37117217  0.17230734       0.004
  -0.08513304  0.37117217  0.17243366       0.004
   0.00038221  0.00000000  0.25883995       0.004
   0.08577006  0.00000000  0.25896627       0.004
   0.17115791  0.00000000  0.25909258       0.004
   0.25654576  0.00000000  0.25921890       0.004
   0.34193360  0.00000000  0.25934521       0.004
   0.42732145  0.00000000  0.25947153       0.004
  -0.34116918  0.00000000  0.25833470       0.004
  -0.25578133  0.00000000  0.25846101       0.004
  -0.17039348  0.00000000  0.25858733       0.004
  -0.08500563  0.00000000  0.25871364       0.004
   0.00038221  0.09279304  0.25883995       0.007
   0.08577006  0.09279304  0.25896627       0.007
   0.17115791  0.09279304  0.25909258       0.007
   0.25654576  0.09279304  0.25921890       0.007
   0.34193360  0.09279304  0.25934521       0.007
   0.42732145  0.09279304  0.25947153       0.007
  -0.34116918  0.09279304  0.25833470       0.007
  -0.25578133  0.09279304  0.25846101       0.007
  -0.17039348  0.09279304  0.25858733       0.007
  -0.08500563  0.09279304  0.25871364       0.007
   0.00038221  0.18558609  0.25883995       0.007
   0.08577006  0.18558609  0.25896627       0.007
   0.17115791  0.18558609  0.25909258       0.007
   0.25654576  0.18558609  0.25921890       0.007
   0.34193360  0.18558609  0.25934521       0.007
   0.42732145  0.18558609  0.25947153       0.007
  -0.34116918  0.18558609  0.25833470       0.007
  -0.25578133  0.18558609  0.25846101       0.007
  -0.17039348  0.18558609  0.25858733       0.007
  -0.08500563  0.18558609  0.25871364       0.007
   0.00038221  0.27837913  0.25883995       0.007
   0.08577006  0.27837913  0.25896627       0.007
   0.17115791  0.27837913  0.25909258       0.007
   0.25654576  0.27837913  0.25921890       0.007
   0.34193360  0.27837913  0.25934521       0.007
   0.42732145  0.27837913  0.25947153       0.007
  -0.34116918  0.27837913  0.25833470       0.007
  -0.25578133  0.27837913  0.25846101       0.007
  -0.17039348  0.27837913  0.25858733       0.007
  -0.08500563  0.27837913  0.25871364       0.007
   0.00038221  0.37117217  0.25883995       0.004
   0.08577006  0.37117217  0.25896627       0.004
   0.17115791  0.37117217  0.25909258       0.004
   0.25654576  0.37117217  0.25921890       0.004
   0.34193360  0.37117217  0.25934521       0.004
   0.42732145  0.37117217  0.25947153       0.004
  -0.34116918  0.37117217  0.25833470       0.004
  -0.25578133  0.37117217  0.25846101       0.004
  -0.17039348  0.37117217  0.25858733       0.004
  -0.08500563  0.37117217  0.25871364       0.004
 
 k-points in reciprocal lattice and weights: fcc-kp                                  
   0.00000000  0.00000000  0.00000000       0.002
   0.10000000  0.00000000  0.00000000       0.004
   0.20000000  0.00000000  0.00000000       0.004
   0.30000000  0.00000000  0.00000000       0.004
   0.40000000  0.00000000  0.00000000       0.004
   0.50000000  0.00000000  0.00000000       0.002
   0.00000000  0.12500000  0.00000000       0.004
   0.10000000  0.12500000  0.00000000       0.007
   0.20000000  0.12500000  0.00000000       0.007
   0.30000000  0.12500000  0.00000000       0.007
   0.40000000  0.12500000  0.00000000       0.007
   0.50000000  0.12500000  0.00000000       0.004
   0.00000000  0.25000000  0.00000000       0.004
   0.10000000  0.25000000  0.00000000       0.007
   0.20000000  0.25000000  0.00000000       0.007
   0.30000000  0.25000000  0.00000000       0.007
   0.40000000  0.25000000  0.00000000       0.007
   0.50000000  0.25000000  0.00000000       0.004
   0.00000000  0.37500000  0.00000000       0.004
   0.10000000  0.37500000  0.00000000       0.007
   0.20000000  0.37500000  0.00000000       0.007
   0.30000000  0.37500000  0.00000000       0.007
   0.40000000  0.37500000  0.00000000       0.007
   0.50000000  0.37500000  0.00000000       0.004
   0.00000000  0.50000000  0.00000000       0.002
   0.10000000  0.50000000  0.00000000       0.004
   0.20000000  0.50000000  0.00000000       0.004
   0.30000000  0.50000000  0.00000000       0.004
   0.40000000  0.50000000  0.00000000       0.004
   0.50000000  0.50000000  0.00000000       0.002
   0.00000000  0.00000000  0.14285714       0.004
   0.10000000  0.00000000  0.14285714       0.004
   0.20000000  0.00000000  0.14285714       0.004
   0.30000000  0.00000000  0.14285714       0.004
   0.40000000  0.00000000  0.14285714       0.004
   0.50000000  0.00000000  0.14285714       0.004
  -0.40000000  0.00000000  0.14285714       0.004
  -0.30000000  0.00000000  0.14285714       0.004
  -0.20000000  0.00000000  0.14285714       0.004
  -0.10000000  0.00000000  0.14285714       0.004
   0.00000000  0.12500000  0.14285714       0.007
   0.10000000  0.12500000  0.14285714       0.007
   0.20000000  0.12500000  0.14285714       0.007
   0.30000000  0.12500000  0.14285714       0.007
   0.40000000  0.12500000  0.14285714       0.007
   0.50000000  0.12500000  0.14285714       0.007
  -0.40000000  0.12500000  0.14285714       0.007
  -0.30000000  0.12500000  0.14285714       0.007
  -0.20000000  0.12500000  0.14285714       0.007
  -0.10000000  0.12500000  0.14285714       0.007
   0.00000000  0.25000000  0.14285714       0.007
   0.10000000  0.25000000  0.14285714       0.007
   0.20000000  0.25000000  0.14285714       0.007
   0.30000000  0.25000000  0.14285714       0.007
   0.40000000  0.25000000  0.14285714       0.007
   0.50000000  0.25000000  0.14285714       0.007
  -0.40000000  0.25000000  0.14285714       0.007
  -0.30000000  0.25000000  0.14285714       0.007
  -0.20000000  0.25000000  0.14285714       0.007
  -0.10000000  0.25000000  0.14285714       0.007
   0.00000000  0.37500000  0.14285714       0.007
   0.10000000  0.37500000  0.14285714       0.007
   0.20000000  0.37500000  0.14285714       0.007
   0.30000000  0.37500000  0.14285714       0.007
   0.40000000  0.37500000  0.14285714       0.007
   0.50000000  0.37500000  0.14285714       0.007
  -0.40000000  0.37500000  0.14285714       0.007
  -0.30000000  0.37500000  0.14285714       0.007
  -0.20000000  0.37500000  0.14285714       0.007
  -0.10000000  0.37500000  0.14285714       0.007
   0.00000000  0.50000000  0.14285714       0.004
   0.10000000  0.50000000  0.14285714       0.004
   0.20000000  0.50000000  0.14285714       0.004
   0.30000000  0.50000000  0.14285714       0.004
   0.40000000  0.50000000  0.14285714       0.004
   0.50000000  0.50000000  0.14285714       0.004
  -0.40000000  0.50000000  0.14285714       0.004
  -0.30000000  0.50000000  0.14285714       0.004
  -0.20000000  0.50000000  0.14285714       0.004
  -0.10000000  0.50000000  0.14285714       0.004
   0.00000000  0.00000000  0.28571429       0.004
   0.10000000  0.00000000  0.28571429       0.004
   0.20000000  0.00000000  0.28571429       0.004
   0.30000000  0.00000000  0.28571429       0.004
   0.40000000  0.00000000  0.28571429       0.004
   0.50000000  0.00000000  0.28571429       0.004
  -0.40000000  0.00000000  0.28571429       0.004
  -0.30000000  0.00000000  0.28571429       0.004
  -0.20000000  0.00000000  0.28571429       0.004
  -0.10000000  0.00000000  0.28571429       0.004
   0.00000000  0.12500000  0.28571429       0.007
   0.10000000  0.12500000  0.28571429       0.007
   0.20000000  0.12500000  0.28571429       0.007
   0.30000000  0.12500000  0.28571429       0.007
   0.40000000  0.12500000  0.28571429       0.007
   0.50000000  0.12500000  0.28571429       0.007
  -0.40000000  0.12500000  0.28571429       0.007
  -0.30000000  0.12500000  0.28571429       0.007
  -0.20000000  0.12500000  0.28571429       0.007
  -0.10000000  0.12500000  0.28571429       0.007
   0.00000000  0.25000000  0.28571429       0.007
   0.10000000  0.25000000  0.28571429       0.007
   0.20000000  0.25000000  0.28571429       0.007
   0.30000000  0.25000000  0.28571429       0.007
   0.40000000  0.25000000  0.28571429       0.007
   0.50000000  0.25000000  0.28571429       0.007
  -0.40000000  0.25000000  0.28571429       0.007
  -0.30000000  0.25000000  0.28571429       0.007
  -0.20000000  0.25000000  0.28571429       0.007
  -0.10000000  0.25000000  0.28571429       0.007
   0.00000000  0.37500000  0.28571429       0.007
   0.10000000  0.37500000  0.28571429       0.007
   0.20000000  0.37500000  0.28571429       0.007
   0.30000000  0.37500000  0.28571429       0.007
   0.40000000  0.37500000  0.28571429       0.007
   0.50000000  0.37500000  0.28571429       0.007
  -0.40000000  0.37500000  0.28571429       0.007
  -0.30000000  0.37500000  0.28571429       0.007
  -0.20000000  0.37500000  0.28571429       0.007
  -0.10000000  0.37500000  0.28571429       0.007
   0.00000000  0.50000000  0.28571429       0.004
   0.10000000  0.50000000  0.28571429       0.004
   0.20000000  0.50000000  0.28571429       0.004
   0.30000000  0.50000000  0.28571429       0.004
   0.40000000  0.50000000  0.28571429       0.004
   0.50000000  0.50000000  0.28571429       0.004
  -0.40000000  0.50000000  0.28571429       0.004
  -0.30000000  0.50000000  0.28571429       0.004
  -0.20000000  0.50000000  0.28571429       0.004
  -0.10000000  0.50000000  0.28571429       0.004
   0.00000000  0.00000000  0.42857143       0.004
   0.10000000  0.00000000  0.42857143       0.004
   0.20000000  0.00000000  0.42857143       0.004
   0.30000000  0.00000000  0.42857143       0.004
   0.40000000  0.00000000  0.42857143       0.004
   0.50000000  0.00000000  0.42857143       0.004
  -0.40000000  0.00000000  0.42857143       0.004
  -0.30000000  0.00000000  0.42857143       0.004
  -0.20000000  0.00000000  0.42857143       0.004
  -0.10000000  0.00000000  0.42857143       0.004
   0.00000000  0.12500000  0.42857143       0.007
   0.10000000  0.12500000  0.42857143       0.007
   0.20000000  0.12500000  0.42857143       0.007
   0.30000000  0.12500000  0.42857143       0.007
   0.40000000  0.12500000  0.42857143       0.007
   0.50000000  0.12500000  0.42857143       0.007
  -0.40000000  0.12500000  0.42857143       0.007
  -0.30000000  0.12500000  0.42857143       0.007
  -0.20000000  0.12500000  0.42857143       0.007
  -0.10000000  0.12500000  0.42857143       0.007
   0.00000000  0.25000000  0.42857143       0.007
   0.10000000  0.25000000  0.42857143       0.007
   0.20000000  0.25000000  0.42857143       0.007
   0.30000000  0.25000000  0.42857143       0.007
   0.40000000  0.25000000  0.42857143       0.007
   0.50000000  0.25000000  0.42857143       0.007
  -0.40000000  0.25000000  0.42857143       0.007
  -0.30000000  0.25000000  0.42857143       0.007
  -0.20000000  0.25000000  0.42857143       0.007
  -0.10000000  0.25000000  0.42857143       0.007
   0.00000000  0.37500000  0.42857143       0.007
   0.10000000  0.37500000  0.42857143       0.007
   0.20000000  0.37500000  0.42857143       0.007
   0.30000000  0.37500000  0.42857143       0.007
   0.40000000  0.37500000  0.42857143       0.007
   0.50000000  0.37500000  0.42857143       0.007
  -0.40000000  0.37500000  0.42857143       0.007
  -0.30000000  0.37500000  0.42857143       0.007
  -0.20000000  0.37500000  0.42857143       0.007
  -0.10000000  0.37500000  0.42857143       0.007
   0.00000000  0.50000000  0.42857143       0.004
   0.10000000  0.50000000  0.42857143       0.004
   0.20000000  0.50000000  0.42857143       0.004
   0.30000000  0.50000000  0.42857143       0.004
   0.40000000  0.50000000  0.42857143       0.004
   0.50000000  0.50000000  0.42857143       0.004
  -0.40000000  0.50000000  0.42857143       0.004
  -0.30000000  0.50000000  0.42857143       0.004
  -0.20000000  0.50000000  0.42857143       0.004
  -0.10000000  0.50000000  0.42857143       0.004
 
 position of ions in fractional coordinates (direct lattice) 
   0.83402386  0.25000000  0.33720948
   0.83402386  0.75000000  0.33720948
   0.16530803  0.25000000  0.66448868
   0.16530803  0.75000000  0.66448868
   0.66720394  0.00000000  0.66508932
   0.66720394  0.50000000  0.66508932
   0.50061760  0.25000000  0.99908701
   0.50061760  0.75000000  0.99908701
   0.99977626  0.00000000  0.99890485
   0.99977626  0.50000000  0.99890485
   0.33307032  0.00000000  0.33522066
   0.33307032  0.50000000  0.33522066
 
 position of ions in cartesian coordinates  (Angst):
   3.49917521  1.20749218  1.99672845
   3.49917521  3.62247655  1.99672845
   0.68830674  1.20749218  3.94382200
   0.68830674  3.62247655  3.94382200
   2.79580479  0.00000000  3.94427576
   2.79580479  2.41498437  3.94427576
   2.09336145  1.20749218  5.92814123
   2.09336145  3.62247655  5.92814123
   4.18937241  0.00000000  5.92396473
   4.18937241  2.41498437  5.92396473
   1.39564644  0.00000000  1.98802771
   1.39564644  2.41498437  1.98802771
 


--------------------------------------------------------------------------------------------------------


 k-point   1 :   0.0000 0.0000 0.0000  plane waves:    2697
 k-point   2 :   0.1000 0.0000 0.0000  plane waves:    2713
 k-point   3 :   0.2000 0.0000 0.0000  plane waves:    2708
 k-point   4 :   0.3000 0.0000 0.0000  plane waves:    2725
 k-point   5 :   0.4000 0.0000 0.0000  plane waves:    2704
 k-point   6 :   0.5000 0.0000 0.0000  plane waves:    2710
 k-point   7 :   0.0000 0.1250 0.0000  plane waves:    2699
 k-point   8 :   0.1000 0.1250 0.0000  plane waves:    2703
 k-point   9 :   0.2000 0.1250 0.0000  plane waves:    2705
 k-point  10 :   0.3000 0.1250 0.0000  plane waves:    2707
 k-point  11 :   0.4000 0.1250 0.0000  plane waves:    2700
 k-point  12 :   0.5000 0.1250 0.0000  plane waves:    2698
 k-point  13 :   0.0000 0.2500 0.0000  plane waves:    2697
 k-point  14 :   0.1000 0.2500 0.0000  plane waves:    2706
 k-point  15 :   0.2000 0.2500 0.0000  plane waves:    2698
 k-point  16 :   0.3000 0.2500 0.0000  plane waves:    2699
 k-point  17 :   0.4000 0.2500 0.0000  plane waves:    2694
 k-point  18 :   0.5000 0.2500 0.0000  plane waves:    2692
 k-point  19 :   0.0000 0.3750 0.0000  plane waves:    2697
 k-point  20 :   0.1000 0.3750 0.0000  plane waves:    2695
 k-point  21 :   0.2000 0.3750 0.0000  plane waves:    2694
 k-point  22 :   0.3000 0.3750 0.0000  plane waves:    2683
 k-point  23 :   0.4000 0.3750 0.0000  plane waves:    2690
 k-point  24 :   0.5000 0.3750 0.0000  plane waves:    2682
 k-point  25 :   0.0000 0.5000 0.0000  plane waves:    2696
 k-point  26 :   0.1000 0.5000 0.0000  plane waves:    2684
 k-point  27 :   0.2000 0.5000 0.0000  plane waves:    2676
 k-point  28 :   0.3000 0.5000 0.0000  plane waves:    2670
 k-point  29 :   0.4000 0.5000 0.0000  plane waves:    2688
 k-point  30 :   0.5000 0.5000 0.0000  plane waves:    2700
 k-point  31 :   0.0000 0.0000 0.1429  plane waves:    2712
 k-point  32 :   0.1000 0.0000 0.1429  plane waves:    2701
 k-point  33 :   0.2000 0.0000 0.1429  plane waves:    2708
 k-point  34 :   0.3000 0.0000 0.1429  plane waves:    2702
 k-point  35 :   0.4000 0.0000 0.1429  plane waves:    2695
 k-point  36 :   0.5000 0.0000 0.1429  plane waves:    2677
 k-point  37 :  -0.4000 0.0000 0.1429  plane waves:    2693
 k-point  38 :  -0.3000 0.0000 0.1429  plane waves:    2705
 k-point  39 :  -0.2000 0.0000 0.1429  plane waves:    2713
 k-point  40 :  -0.1000 0.0000 0.1429  plane waves:    2701
 k-point  41 :   0.0000 0.1250 0.1429  plane waves:    2696
 k-point  42 :   0.1000 0.1250 0.1429  plane waves:    2702
 k-point  43 :   0.2000 0.1250 0.1429  plane waves:    2710
 k-point  44 :   0.3000 0.1250 0.1429  plane waves:    2700
 k-point  45 :   0.4000 0.1250 0.1429  plane waves:    2693
 k-point  46 :   0.5000 0.1250 0.1429  plane waves:    2694
 k-point  47 :  -0.4000 0.1250 0.1429  plane waves:    2696
 k-point  48 :  -0.3000 0.1250 0.1429  plane waves:    2700
 k-point  49 :  -0.2000 0.1250 0.1429  plane waves:    2708
 k-point  50 :  -0.1000 0.1250 0.1429  plane waves:    2705
 k-point  51 :   0.0000 0.2500 0.1429  plane waves:    2700
 k-point  52 :   0.1000 0.2500 0.1429  plane waves:    2702
 k-point  53 :   0.2000 0.2500 0.1429  plane waves:    2698
 k-point  54 :   0.3000 0.2500 0.1429  plane waves:    2705
 k-point  55 :   0.4000 0.2500 0.1429  plane waves:    2686
 k-point  56 :   0.5000 0.2500 0.1429  plane waves:    2688
 k-point  57 :  -0.4000 0.2500 0.1429  plane waves:    2693
 k-point  58 :  -0.3000 0.2500 0.1429  plane waves:    2706
 k-point  59 :  -0.2000 0.2500 0.1429  plane waves:    2702
 k-point  60 :  -0.1000 0.2500 0.1429  plane waves:    2700
 k-point  61 :   0.0000 0.3750 0.1429  plane waves:    2698
 k-point  62 :   0.1000 0.3750 0.1429  plane waves:    2700
 k-point  63 :   0.2000 0.3750 0.1429  plane waves:    2693
 k-point  64 :   0.3000 0.3750 0.1429  plane waves:    2688
 k-point  65 :   0.4000 0.3750 0.1429  plane waves:    2685
 k-point  66 :   0.5000 0.3750 0.1429  plane waves:    2686
 k-point  67 :  -0.4000 0.3750 0.1429  plane waves:    2689
 k-point  68 :  -0.3000 0.3750 0.1429  plane waves:    2691
 k-point  69 :  -0.2000 0.3750 0.1429  plane waves:    2698
 k-point  70 :  -0.1000 0.3750 0.1429  plane waves:    2698
 k-point  71 :   0.0000 0.5000 0.1429  plane waves:    2698
 k-point  72 :   0.1000 0.5000 0.1429  plane waves:    2694
 k-point  73 :   0.2000 0.5000 0.1429  plane waves:    2684
 k-point  74 :   0.3000 0.5000 0.1429  plane waves:    2682
 k-point  75 :   0.4000 0.5000 0.1429  plane waves:    2682
 k-point  76 :   0.5000 0.5000 0.1429  plane waves:    2688
 k-point  77 :  -0.4000 0.5000 0.1429  plane waves:    2684
 k-point  78 :  -0.3000 0.5000 0.1429  plane waves:    2688
 k-point  79 :  -0.2000 0.5000 0.1429  plane waves:    2684
 k-point  80 :  -0.1000 0.5000 0.1429  plane waves:    2690
 k-point  81 :   0.0000 0.0000 0.2857  plane waves:    2702
 k-point  82 :   0.1000 0.0000 0.2857  plane waves:    2697
 k-point  83 :   0.2000 0.0000 0.2857  plane waves:    2696
 k-point  84 :   0.3000 0.0000 0.2857  plane waves:    2704
 k-point  85 :   0.4000 0.0000 0.2857  plane waves:    2688
 k-point  86 :   0.5000 0.0000 0.2857  plane waves:    2694
 k-point  87 :  -0.4000 0.0000 0.2857  plane waves:    2696
 k-point  88 :  -0.3000 0.0000 0.2857  plane waves:    2694
 k-point  89 :  -0.2000 0.0000 0.2857  plane waves:    2696
 k-point  90 :  -0.1000 0.0000 0.2857  plane waves:    2700
 k-point  91 :   0.0000 0.1250 0.2857  plane waves:    2697
 k-point  92 :   0.1000 0.1250 0.2857  plane waves:    2694
 k-point  93 :   0.2000 0.1250 0.2857  plane waves:    2696
 k-point  94 :   0.3000 0.1250 0.2857  plane waves:    2697
 k-point  95 :   0.4000 0.1250 0.2857  plane waves:    2694
 k-point  96 :   0.5000 0.1250 0.2857  plane waves:    2697
 k-point  97 :  -0.4000 0.1250 0.2857  plane waves:    2695
 k-point  98 :  -0.3000 0.1250 0.2857  plane waves:    2693
 k-point  99 :  -0.2000 0.1250 0.2857  plane waves:    2700
 k-point 100 :  -0.1000 0.1250 0.2857  plane waves:    2702
 k-point 101 :   0.0000 0.2500 0.2857  plane waves:    2696
 k-point 102 :   0.1000 0.2500 0.2857  plane waves:    2695
 k-point 103 :   0.2000 0.2500 0.2857  plane waves:    2697
 k-point 104 :   0.3000 0.2500 0.2857  plane waves:    2688
 k-point 105 :   0.4000 0.2500 0.2857  plane waves:    2689
 k-point 106 :   0.5000 0.2500 0.2857  plane waves:    2699
 k-point 107 :  -0.4000 0.2500 0.2857  plane waves:    2692
 k-point 108 :  -0.3000 0.2500 0.2857  plane waves:    2690
 k-point 109 :  -0.2000 0.2500 0.2857  plane waves:    2701
 k-point 110 :  -0.1000 0.2500 0.2857  plane waves:    2697
 k-point 111 :   0.0000 0.3750 0.2857  plane waves:    2697
 k-point 112 :   0.1000 0.3750 0.2857  plane waves:    2705
 k-point 113 :   0.2000 0.3750 0.2857  plane waves:    2695
 k-point 114 :   0.3000 0.3750 0.2857  plane waves:    2690
 k-point 115 :   0.4000 0.3750 0.2857  plane waves:    2687
 k-point 116 :   0.5000 0.3750 0.2857  plane waves:    2690
 k-point 117 :  -0.4000 0.3750 0.2857  plane waves:    2688
 k-point 118 :  -0.3000 0.3750 0.2857  plane waves:    2696
 k-point 119 :  -0.2000 0.3750 0.2857  plane waves:    2695
 k-point 120 :  -0.1000 0.3750 0.2857  plane waves:    2696
 k-point 121 :   0.0000 0.5000 0.2857  plane waves:    2692
 k-point 122 :   0.1000 0.5000 0.2857  plane waves:    2704
 k-point 123 :   0.2000 0.5000 0.2857  plane waves:    2696
 k-point 124 :   0.3000 0.5000 0.2857  plane waves:    2688
 k-point 125 :   0.4000 0.5000 0.2857  plane waves:    2680
 k-point 126 :   0.5000 0.5000 0.2857  plane waves:    2672
 k-point 127 :  -0.4000 0.5000 0.2857  plane waves:    2676
 k-point 128 :  -0.3000 0.5000 0.2857  plane waves:    2688
 k-point 129 :  -0.2000 0.5000 0.2857  plane waves:    2700
 k-point 130 :  -0.1000 0.5000 0.2857  plane waves:    2710
 k-point 131 :   0.0000 0.0000 0.4286  plane waves:    2712
 k-point 132 :   0.1000 0.0000 0.4286  plane waves:    2701
 k-point 133 :   0.2000 0.0000 0.4286  plane waves:    2693
 k-point 134 :   0.3000 0.0000 0.4286  plane waves:    2685
 k-point 135 :   0.4000 0.0000 0.4286  plane waves:    2693
 k-point 136 :   0.5000 0.0000 0.4286  plane waves:    2688
 k-point 137 :  -0.4000 0.0000 0.4286  plane waves:    2693
 k-point 138 :  -0.3000 0.0000 0.4286  plane waves:    2684
 k-point 139 :  -0.2000 0.0000 0.4286  plane waves:    2694
 k-point 140 :  -0.1000 0.0000 0.4286  plane waves:    2703
 k-point 141 :   0.0000 0.1250 0.4286  plane waves:    2695
 k-point 142 :   0.1000 0.1250 0.4286  plane waves:    2692
 k-point 143 :   0.2000 0.1250 0.4286  plane waves:    2693
 k-point 144 :   0.3000 0.1250 0.4286  plane waves:    2691
 k-point 145 :   0.4000 0.1250 0.4286  plane waves:    2701
 k-point 146 :   0.5000 0.1250 0.4286  plane waves:    2699
 k-point 147 :  -0.4000 0.1250 0.4286  plane waves:    2695
 k-point 148 :  -0.3000 0.1250 0.4286  plane waves:    2692
 k-point 149 :  -0.2000 0.1250 0.4286  plane waves:    2698
 k-point 150 :  -0.1000 0.1250 0.4286  plane waves:    2690
 k-point 151 :   0.0000 0.2500 0.4286  plane waves:    2697
 k-point 152 :   0.1000 0.2500 0.4286  plane waves:    2694
 k-point 153 :   0.2000 0.2500 0.4286  plane waves:    2690
 k-point 154 :   0.3000 0.2500 0.4286  plane waves:    2690
 k-point 155 :   0.4000 0.2500 0.4286  plane waves:    2690
 k-point 156 :   0.5000 0.2500 0.4286  plane waves:    2698
 k-point 157 :  -0.4000 0.2500 0.4286  plane waves:    2687
 k-point 158 :  -0.3000 0.2500 0.4286  plane waves:    2688
 k-point 159 :  -0.2000 0.2500 0.4286  plane waves:    2692
 k-point 160 :  -0.1000 0.2500 0.4286  plane waves:    2692
 k-point 161 :   0.0000 0.3750 0.4286  plane waves:    2695
 k-point 162 :   0.1000 0.3750 0.4286  plane waves:    2695
 k-point 163 :   0.2000 0.3750 0.4286  plane waves:    2684
 k-point 164 :   0.3000 0.3750 0.4286  plane waves:    2682
 k-point 165 :   0.4000 0.3750 0.4286  plane waves:    2688
 k-point 166 :   0.5000 0.3750 0.4286  plane waves:    2693
 k-point 167 :  -0.4000 0.3750 0.4286  plane waves:    2689
 k-point 168 :  -0.3000 0.3750 0.4286  plane waves:    2685
 k-point 169 :  -0.2000 0.3750 0.4286  plane waves:    2687
 k-point 170 :  -0.1000 0.3750 0.4286  plane waves:    2693
 k-point 171 :   0.0000 0.5000 0.4286  plane waves:    2698
 k-point 172 :   0.1000 0.5000 0.4286  plane waves:    2708
 k-point 173 :   0.2000 0.5000 0.4286  plane waves:    2694
 k-point 174 :   0.3000 0.5000 0.4286  plane waves:    2680
 k-point 175 :   0.4000 0.5000 0.4286  plane waves:    2678
 k-point 176 :   0.5000 0.5000 0.4286  plane waves:    2694
 k-point 177 :  -0.4000 0.5000 0.4286  plane waves:    2676
 k-point 178 :  -0.3000 0.5000 0.4286  plane waves:    2680
 k-point 179 :  -0.2000 0.5000 0.4286  plane waves:    2700
 k-point 180 :  -0.1000 0.5000 0.4286  plane waves:    2700

 maximum and minimum number of plane-waves per node :       916      881

 maximum number of plane-waves:      2725
 maximum index in each direction: 
   IXMAX=    7   IYMAX=    8   IZMAX=   10
   IXMIN=   -7   IYMIN=   -8   IZMIN=  -10


 parallel 3D FFT for wavefunctions:
    minimum data exchange during FFTs selected (reduces bandwidth)
 parallel 3D FFT for charge:
    minimum data exchange during FFTs selected (reduces bandwidth)


 total amount of memory used by VASP MPI-rank0   160589. kBytes
=======================================================================

   base      :      30000. kBytes
   nonl-proj :      47869. kBytes
   fftplans  :        740. kBytes
   grid      :       1862. kBytes
   one-center:        124. kBytes
   wavefun   :      79994. kBytes
 
     INWAV:  cpu time      0.0001: real time      0.0006
 Broyden mixing: mesh for mixing (old mesh)
   NGX = 15   NGY = 17   NGZ = 21
  (NGX  = 48   NGY  = 56   NGZ  = 70)
  gives a total of   5355 points

 initial charge density was supplied:
 charge density of overlapping atoms calculated
 number of electron     150.0000000 magnetization      36.0000000
 keeping initial charge density in first step


--------------------------------------------------------------------------------------------------------


 Maximum index for augmentation-charges          321 (set IRDMAX)


--------------------------------------------------------------------------------------------------------


 First call to EWALD:  gamma=   0.359
 Maximum number of real-space cells 3x 3x 2
 Maximum number of reciprocal cells 2x 3x 3

    FEWALD:  cpu time      0.0006: real time      0.0006


--------------------------------------- Ionic step        1  -------------------------------------------




--------------------------------------- Iteration      1(   1)  ---------------------------------------


    POTLOK:  cpu time      0.0030: real time      0.0034
    SETDIJ:  cpu time      0.0037: real time      0.0037
     EDDAV:  cpu time      9.0301: real time      9.0587
 BZINTS: Fermi energy:   27.461535;  150.000000 electrons
         Band energy: 0.825163E+03;  BLOECHL correction:   -0.126794
       DOS:  cpu time      0.5130: real time      0.5143
    --------------------------------------------
      LOOP:  cpu time      9.5498: real time      9.5802

 eigenvalue-minimisations  : 89200
 total energy-change (2. order) : 0.1923470E+04  (-0.7164171E+04)
 number of electron     150.0000000 magnetization      36.0000000
 augmentation part      150.0000000 magnetization      36.0000000

 Free energy of the ion-electron system (eV)
  ---------------------------------------------------
  alpha Z        PSCENC =      1507.90944579
  Ewald energy   TEWEN  =    -18401.18482984
  -Hartree energ DENC   =     -7403.33602049
  -exchange      EXHF   =         0.00000000
  -V(xc)+E(xc)   XCENC  =       665.85751509
  PAW double counting   =     19934.15191062   -21135.41606588
  entropy T*S    EENTRO =         0.00000000
  eigenvalues    EBANDS =       825.16336751
  atomic energy  EATOM  =     25930.32421885
  Solvation  Ediel_sol  =         0.00000000
  ---------------------------------------------------
  free energy    TOTEN  =      1923.46954164 eV

  energy without entropy =     1923.46954164  energy(sigma->0) =     1923.46954164


--------------------------------------------------------------------------------------------------------




--------------------------------------- Iteration      1(   2)  ---------------------------------------


     EDDAV:  cpu time      8.3594: real time      8.3918
 BZINTS: Fermi energy:   12.623149;  150.000000 electrons
         Band energy:-0.946981E+03;  BLOECHL correction:   -0.057501
       DOS:  cpu time      0.4920: real time      0.4930
    --------------------------------------------
      LOOP:  cpu time      8.8514: real time      8.8848

 eigenvalue-minimisations  : 80640
 total energy-change (2. order) :-0.1772145E+04  (-0.1661124E+04)
 number of electron     150.0000000 magnetization      36.0000000
 augmentation part      150.0000000 magnetization      36.0000000

 Free energy of the ion-electron system (eV)
  ---------------------------------------------------
  alpha Z        PSCENC =      1507.90944579
  Ewald energy   TEWEN  =    -18401.18482984
  -Hartree energ DENC   =     -7403.33602049
  -exchange      EXHF   =         0.00000000
  -V(xc)+E(xc)   XCENC  =       665.85751509
  PAW double counting   =     19934.15191062   -21135.41606588
  entropy T*S    EENTRO =         0.00000000
  eigenvalues    EBANDS =      -946.98124061
  atomic energy  EATOM  =     25930.32421885
  Solvation  Ediel_sol  =         0.00000000
  ---------------------------------------------------
  free energy    TOTEN  =       151.32493353 eV

  energy without entropy =      151.32493353  energy(sigma->0) =      151.32493353


--------------------------------------------------------------------------------------------------------




--------------------------------------- Iteration      1(   3)  ---------------------------------------


     EDDAV:  cpu time      8.4956: real time      8.5254
 BZINTS: Fermi energy:   10.048504;  150.000000 electrons
         Band energy:-0.118208E+04;  BLOECHL correction:   -0.092731
       DOS:  cpu time      0.5148: real time      0.5164
    --------------------------------------------
      LOOP:  cpu time      9.0104: real time      9.0418

 eigenvalue-minimisations  : 82288
 total energy-change (2. order) :-0.2351002E+03  (-0.1931586E+03)
 number of electron     150.0000000 magnetization      36.0000000
 augmentation part      150.0000000 magnetization      36.0000000

 Free energy of the ion-electron system (eV)
  ---------------------------------------------------
  alpha Z        PSCENC =      1507.90944579
  Ewald energy   TEWEN  =    -18401.18482984
  -Hartree energ DENC   =     -7403.33602049
  -exchange      EXHF   =         0.00000000
  -V(xc)+E(xc)   XCENC  =       665.85751509
  PAW double counting   =     19934.15191062   -21135.41606588
  entropy T*S    EENTRO =         0.00000000
  eigenvalues    EBANDS =     -1182.08140130
  atomic energy  EATOM  =     25930.32421885
  Solvation  Ediel_sol  =         0.00000000
  ---------------------------------------------------
  free energy    TOTEN  =       -83.77522717 eV

  energy without entropy =      -83.77522717  energy(sigma->0) =      -83.77522717


--------------------------------------------------------------------------------------------------------




--------------------------------------- Iteration      1(   4)  ---------------------------------------


     EDDAV:  cpu time      9.0210: real time      9.0502
 BZINTS: Fermi energy:    9.960764;  150.000000 electrons
         Band energy:-0.119430E+04;  BLOECHL correction:   -0.096705
       DOS:  cpu time      0.5041: real time      0.5068
    --------------------------------------------
      LOOP:  cpu time      9.5251: real time      9.5570

 eigenvalue-minimisations  : 89672
 total energy-change (2. order) :-0.1221396E+02  (-0.1200704E+02)
 number of electron     150.0000000 magnetization      36.0000000
 augmentation part      150.0000000 magnetization      36.0000000

 Free energy of the ion-electron system (eV)
  ---------------------------------------------------
  alpha Z        PSCENC =      1507.90944579
  Ewald energy   TEWEN  =    -18401.18482984
  -Hartree energ DENC   =     -7403.33602049
  -exchange      EXHF   =         0.00000000
  -V(xc)+E(xc)   XCENC  =       665.85751509
  PAW double counting   =     19934.15191062   -21135.41606588
  entropy T*S    EENTRO =         0.00000000
  eigenvalues    EBANDS =     -1194.29536502
  atomic energy  EATOM  =     25930.32421885
[...]
     22       0.8517      1.00000
     23       3.4778      1.00000
     24       3.4778      1.00000
     25       3.5569      1.00000
     26       3.5569      1.00000
     27       3.5715      1.00000
     28       3.5715      1.00000
     29       3.7337      1.00000
     30       3.7337      1.00000
     31       4.1032      1.00000
     32       4.1032      1.00000
     33       4.3844      1.00000
     34       4.3844      1.00000
     35       4.4962      1.00000
     36       4.4962      1.00000
     37       4.5220      1.00000
     38       4.5220      1.00000
     39       4.5475      1.00000
     40       4.5475      1.00000
     41       4.6978      1.00000
     42       4.6978      1.00000
     43       4.8833      1.00000
     44       4.8833      1.00000
     45       5.1401      1.00000
     46       5.1401      1.00000
     47       5.3081      1.00000
     48       5.3081      1.00000
     49       5.4333      1.00000
     50       5.4333      1.00000
     51       5.8029      1.00000
     52       5.8029      1.00000
     53       5.9103      1.00000
     54       5.9103      1.00000
     55       6.0623      1.00000
     56       6.0623      1.00000
     57       6.1473      1.00000
     58       6.1473      1.00000
     59       6.3426      1.00000
     60       6.3426      1.00000
     61       6.5869      1.00000
     62       6.5869      1.00000
     63       6.7291      1.00000
     64       6.7291      1.00000
     65       6.7437      1.00000
     66       6.7437      1.00000
     67       6.9953      1.00000
     68       6.9953      1.00000
     69       7.1421      1.00000
     70       7.1421      1.00021
     71       7.4602      0.00000
     72       7.4602      0.00000
     73       7.5370      0.00000
     74       7.5370      0.00000
     75       7.7812      0.00000
     76       7.7812      0.00000
     77       7.9309      0.00000
     78       7.9309      0.00000
     79       8.0334      0.00000
     80       8.0334      0.00000
     81       8.2072      0.00000
     82       8.2072      0.00000
     83      10.9258      0.00000
     84      10.9258      0.00000
     85      11.5650      0.00000
     86      11.5650      0.00000
     87      11.7014      0.00000
     88      11.7014      0.00000
     89      14.0950      0.00000
     90      14.0950      0.00000
     91      15.0360      0.00000
     92      15.0360      0.00000
     93      15.7487      0.00000
     94      15.7487      0.00000
     95      16.6890      0.00000
     96      16.6890      0.00000
     97      17.0699      0.00000
     98      17.0699      0.00000
     99      19.4954      0.00000
    100      19.4954      0.00000
    101      21.0607      0.00000
    102      21.0607      0.00000
    103      22.2105      0.00000
    104      22.2105      0.00000
    105      23.3888      0.00000
    106      23.3888      0.00000
    107      23.6860      0.00000
    108      23.6860      0.00000
    109      24.0807      0.00000
    110      24.0807      0.00000
    111      24.2153      0.00000
    112      24.2153      0.00000


--------------------------------------------------------------------------------------------------------


 soft charge-density along one line, spin component           1
         0         1         2         3         4         5         6         7         8         9
 total charge-density along one line
 
 soft charge-density along one line, spin component           2
         0         1         2         3         4         5         6         7         8         9
 total charge-density along one line
 
 pseudopotential strength for first ion, spin component:           1
 -4.359  -0.016   0.000   0.000  -0.000  -1.078   0.006  -0.000
 -0.016  -4.318   0.000  -0.000  -0.000   0.006  -1.092  -0.000
  0.000   0.000  -4.332  -0.009   0.015  -0.000  -0.000  -1.088
  0.000  -0.000  -0.009  -4.301  -0.007  -0.000   0.000   0.003
 -0.000  -0.000   0.015  -0.007  -4.309   0.000   0.000  -0.005
 -1.078   0.006  -0.000  -0.000   0.000   1.398  -0.002   0.000
  0.006  -1.092  -0.000   0.000   0.000  -0.002   1.403   0.000
 -0.000  -0.000  -1.088   0.003  -0.005   0.000   0.000   1.402
 -0.000   0.000   0.003  -1.099   0.002   0.000  -0.000  -0.001
  0.000   0.000  -0.005   0.002  -1.096  -0.000  -0.000   0.002
  0.000  -0.000  -0.002   0.004   0.001   0.000  -0.000   0.001
 -0.000   0.000   0.000  -0.000  -0.000   0.000  -0.000  -0.000
 -0.000   0.007  -0.000  -0.000  -0.000   0.000  -0.002   0.000
 -0.000   0.000   0.010   0.000   0.000  -0.000  -0.000  -0.003
  0.000  -0.000  -0.000   0.007   0.001  -0.000  -0.000   0.000
  0.000  -0.002   0.000   0.000   0.000  -0.000   0.001  -0.000
  0.000  -0.000  -0.003  -0.000  -0.000  -0.000   0.000   0.001
 -0.000   0.000   0.000  -0.002  -0.000   0.000  -0.000  -0.000
 pseudopotential strength for first ion, spin component:           2
 -3.155   0.011   0.000   0.000  -0.000  -1.528  -0.004  -0.000
  0.011  -3.150   0.000  -0.000  -0.000  -0.004  -1.530  -0.000
  0.000   0.000  -3.164  -0.002  -0.003  -0.000  -0.000  -1.525
  0.000  -0.000  -0.002  -3.162  -0.021  -0.000   0.000   0.001
 -0.000  -0.000  -0.003  -0.021  -3.176   0.000   0.000   0.001
 -1.528  -0.004  -0.000  -0.000   0.000   1.562   0.001   0.000
 -0.004  -1.530  -0.000   0.000   0.000   0.001   1.563   0.000
 -0.000  -0.000  -1.525   0.001   0.001   0.000   0.000   1.561
 -0.000   0.000   0.001  -1.525   0.007   0.000  -0.000  -0.000
  0.000   0.000   0.001   0.007  -1.520  -0.000  -0.000  -0.000
  0.000  -0.000  -0.000   0.001   0.001   0.000  -0.000   0.000
 -0.000   0.000   0.000  -0.000  -0.000   0.000  -0.000  -0.000
  0.000   0.004  -0.000  -0.000  -0.000  -0.000  -0.001   0.000
 -0.000   0.000   0.003   0.000  -0.000  -0.000  -0.000  -0.001
  0.000  -0.000  -0.000   0.003   0.000  -0.000  -0.000   0.000
  0.000  -0.002   0.000   0.000   0.000   0.000   0.001  -0.000
  0.000  -0.000  -0.003  -0.000  -0.000  -0.000   0.000   0.001
 -0.000   0.000   0.000  -0.002  -0.000   0.000  -0.000  -0.000
 total augmentation occupancy for first ion, spin component:           1
  1.570  -0.023   0.000  -0.000   0.000   0.132  -0.038   0.000   0.000   0.000   0.000   0.000  -0.003  -0.000  -0.000   0.000
 -0.023   1.603   0.000   0.000   0.000  -0.038   0.109  -0.000   0.000   0.000  -0.000  -0.000   0.009   0.000   0.000  -0.000
  0.000   0.000   1.603  -0.005   0.018   0.000   0.000   0.162   0.000   0.003   0.002  -0.001   0.000   0.021  -0.001   0.000
 -0.000   0.000  -0.005   1.626   0.014   0.000   0.000   0.000   0.103   0.038   0.003   0.002   0.000   0.000   0.011   0.000
  0.000   0.000   0.018   0.014   1.632   0.000   0.000   0.003   0.038   0.130  -0.014   0.001  -0.000   0.001   0.004   0.000
  0.132  -0.038   0.000   0.000   0.000   0.174  -0.003   0.000   0.000   0.000   0.000   0.000   0.000  -0.000   0.000  -0.000
 -0.038   0.109   0.000   0.000   0.000  -0.003   0.169   0.000   0.000   0.000   0.000   0.000   0.008  -0.000   0.000  -0.000
  0.000  -0.000   0.162   0.000   0.003   0.000   0.000   0.173   0.000  -0.002   0.002   0.001   0.000   0.007  -0.000   0.000
  0.000   0.000   0.000   0.103   0.038   0.000   0.000   0.000   0.165   0.003   0.001  -0.000   0.000   0.001   0.007   0.000
  0.000   0.000   0.003   0.038   0.130   0.000   0.000  -0.002   0.003   0.167  -0.004  -0.002   0.000  -0.000   0.002   0.000
  0.000  -0.000   0.002   0.003  -0.014   0.000   0.000   0.002   0.001  -0.004   1.428  -0.402   0.000   0.025   0.002   0.000
  0.000  -0.000  -0.001   0.002   0.001   0.000   0.000   0.001  -0.000  -0.002  -0.402   0.147   0.000  -0.003  -0.001   0.000
 -0.003   0.009   0.000   0.000  -0.000   0.000   0.008   0.000   0.000   0.000   0.000   0.000   0.255   0.000   0.000  -0.018
 -0.000   0.000   0.021   0.000   0.001  -0.000  -0.000   0.007   0.001  -0.000   0.025  -0.003   0.000   0.254   0.000   0.000
 -0.000   0.000  -0.001   0.011   0.004   0.000   0.000  -0.000   0.007   0.002   0.002  -0.001   0.000   0.000   0.250   0.000
  0.000  -0.000   0.000   0.000   0.000  -0.000  -0.000   0.000   0.000   0.000   0.000   0.000  -0.018   0.000   0.000   0.001
  0.000   0.000  -0.001   0.000   0.000   0.000  -0.000  -0.000  -0.000   0.000  -0.001  -0.000   0.000  -0.018   0.000  -0.000
  0.000   0.000  -0.000  -0.000   0.000   0.000   0.000   0.000  -0.000   0.000  -0.000   0.000   0.000   0.000  -0.018   0.000
 total augmentation occupancy for first ion, spin component:           2
  0.306   0.029   0.000   0.000   0.000  -0.184  -0.001   0.000   0.000  -0.000   0.000   0.000   0.002   0.000  -0.000   0.000
  0.029   0.273   0.000   0.000   0.000  -0.001  -0.176  -0.000   0.000   0.000   0.000   0.000  -0.008   0.000   0.000  -0.000
  0.000   0.000   0.267   0.006  -0.019   0.000   0.000  -0.182  -0.002   0.001  -0.003  -0.001  -0.000  -0.020   0.000   0.000
  0.000   0.000   0.006   0.250  -0.017   0.000   0.000  -0.002  -0.167  -0.003  -0.000   0.001   0.000   0.000  -0.010   0.000
  0.000   0.000  -0.019  -0.017   0.241   0.000   0.000   0.002  -0.003  -0.169   0.013   0.002   0.000  -0.001  -0.002   0.000
 -0.184  -0.001   0.000   0.000   0.000   0.020   0.002   0.000  -0.000   0.000   0.000   0.000  -0.001  -0.000   0.000   0.000
 -0.001  -0.176   0.000   0.000   0.000   0.002   0.023   0.000   0.000   0.000   0.000   0.000   0.000   0.000   0.000  -0.000
  0.000  -0.000  -0.182  -0.002   0.002   0.000   0.000   0.021   0.000   0.002  -0.001  -0.000   0.000   0.002  -0.000   0.000
  0.000   0.000  -0.002  -0.167  -0.003  -0.000   0.000   0.000   0.023  -0.000   0.000  -0.000   0.000  -0.000   0.001   0.000
 -0.000   0.000   0.001  -0.003  -0.169   0.000   0.000   0.002  -0.000   0.022  -0.000   0.001   0.000   0.001   0.001   0.000
  0.000   0.000  -0.003  -0.000   0.013   0.000   0.000  -0.001   0.000  -0.000   0.003   0.059   0.000  -0.007  -0.000   0.000
  0.000   0.000  -0.001   0.001   0.002   0.000   0.000  -0.000  -0.000   0.001   0.059  -0.033   0.000   0.000   0.000   0.000
  0.002  -0.008  -0.000   0.000   0.000  -0.001   0.000   0.000   0.000   0.000   0.000   0.000  -0.009   0.000   0.000   0.002
  0.000   0.000  -0.020   0.000  -0.001  -0.000   0.000   0.002  -0.000   0.001  -0.007   0.000   0.000  -0.009   0.000   0.000
 -0.000   0.000   0.000  -0.010  -0.002   0.000   0.000  -0.000   0.001   0.001  -0.000   0.000   0.000   0.000  -0.009   0.000
  0.000  -0.000   0.000   0.000   0.000   0.000  -0.000   0.000   0.000   0.000   0.000   0.000   0.002   0.000   0.000  -0.000
  0.000   0.000  -0.000   0.000  -0.000   0.000  -0.000  -0.000  -0.000  -0.000  -0.000   0.000   0.000   0.002   0.000   0.000
  0.000   0.000  -0.000  -0.000  -0.000   0.000   0.000   0.000  -0.000  -0.000   0.000  -0.000   0.000   0.000   0.002   0.000


------------------------ aborting loop because EDIFF is reached ----------------------------------------


    CHARGE:  cpu time      0.2488: real time      0.2493
    FORLOC:  cpu time      0.0004: real time      0.0004
    FORNL :  cpu time      0.8468: real time      0.8493
    STRESS:  cpu time      2.7186: real time      2.7280
    FORCOR:  cpu time      0.0013: real time      0.0013
    FORHAR:  cpu time      0.0006: real time      0.0006
    MIXING:  cpu time      0.0004: real time      0.0004
    OFIELD:  cpu time      0.0001: real time      0.0001

  FORCE on cell =-STRESS in cart. coord.  units (eV):
  Direction    XX          YY          ZZ          XY          YZ          ZX
  --------------------------------------------------------------------------------------
  Alpha Z  1507.90945  1507.90945  1507.90945
  Ewald   -5817.29473 -5458.17228 -7125.73639    -0.00000     0.00000    -6.91806
  Hartree  2662.51561  2990.07746  1416.93043    -0.00000    -0.00000    -5.25885
  E(xc)    -971.04975  -971.13225  -970.94962    -0.00000    -0.00000     0.00271
  Local     151.62237  -535.50087  2707.06510    -0.00000     0.00000    11.99297
  n-local  -705.33123  -705.51345  -704.67362     0.34250    -0.78998     0.08531
  augment  1347.32662  1347.81463  1346.10617     0.00000     0.00000     0.09552
  Kinetic  1823.80505  1823.97584  1822.83769    -0.71012    -0.17085     0.04977
  Fock        0.00000     0.00000     0.00000     0.00000     0.00000     0.00000
  -------------------------------------------------------------------------------------
  Total      -0.49662    -0.54146    -0.51079     0.00000     0.00000     0.04938
  in kB      -6.60837    -7.20505    -6.79697     0.00000     0.00000     0.65714
  external pressure =       -6.87 kB  Pullay stress =        0.00 kB


 VOLUME and BASIS-vectors are now :
 -----------------------------------------------------------------------------
  energy-cutoff  :      459.66
  volume of cell :      120.40
      direct lattice vectors                 reciprocal lattice vectors
     4.199084443  0.000000000 -0.006200537     0.238147672  0.000000000  0.000352293
     0.000000000  4.829968736  0.000000000     0.000000000  0.207040678  0.000000000
    -0.008782127  0.000000000  5.936665441     0.000248733  0.000000000  0.168445097

  length of vectors
     4.199089021  4.829968736  5.936671937     0.238147933  0.207040678  0.168445280


 FORCES acting on ions
    electron-ion (+dipol)            ewald-force                    non-local-force                 convergence-correction
 -----------------------------------------------------------------------------------------------
   0.322E+01 0.115E-11 -.333E+03   -.331E+01 -.853E-13 0.333E+03   0.796E-01 0.125E-18 -.885E-02   0.632E-03 -.171E-13 -.782E-01
   0.322E+01 -.141E-12 -.333E+03   -.331E+01 -.853E-13 0.333E+03   0.796E-01 0.154E-18 -.885E-02   0.632E-03 0.248E-13 -.782E-01
   0.488E+02 0.264E-12 0.139E+03   -.488E+02 -.284E-13 -.139E+03   -.455E-01 0.282E-20 -.110E+00   0.173E-01 -.936E-13 0.866E-01
   0.488E+02 0.902E-12 0.139E+03   -.488E+02 -.284E-13 -.139E+03   -.455E-01 0.126E-18 -.110E+00   0.173E-01 -.838E-14 0.866E-01
   -.480E+02 -.137E-12 0.186E+03   0.480E+02 0.474E-13 -.186E+03   0.306E-01 0.242E-18 -.217E-01   -.167E-01 -.248E-13 0.990E-01
   -.480E+02 0.270E-12 0.186E+03   0.480E+02 0.528E-13 -.186E+03   0.306E-01 0.271E-18 -.217E-01   -.167E-01 -.665E-13 0.990E-01
   -.867E+02 0.861E-11 0.343E+03   0.868E+02 -.284E-13 -.343E+03   -.852E-01 0.228E-18 0.145E+00   -.284E-01 -.123E-12 -.112E-01
   -.867E+02 0.450E-11 0.343E+03   0.868E+02 -.284E-13 -.343E+03   -.852E-01 -.271E-18 0.145E+00   -.284E-01 0.173E-12 -.112E-01
   0.873E+02 -.185E-12 0.268E+03   -.874E+02 -.287E-14 -.268E+03   0.875E-01 0.450E-18 -.226E-02   0.281E-01 0.336E-12 -.320E-01
   0.873E+02 -.172E-10 0.268E+03   -.874E+02 0.407E-13 -.268E+03   0.875E-01 0.466E-18 -.226E-02   0.281E-01 -.987E-13 -.320E-01
   -.470E+01 -.367E-13 -.602E+03   0.477E+01 0.697E-13 0.602E+03   -.536E-01 -.295E-18 0.237E-01   -.398E-03 0.593E-13 -.136E+00
   -.470E+01 0.255E-11 -.602E+03   0.477E+01 0.115E-12 0.602E+03   -.536E-01 -.200E-18 0.237E-01   -.398E-03 -.318E-12 -.136E+00
 -----------------------------------------------------------------------------------------------
   -.295E-01 0.501E-12 0.110E+00   -.995E-13 0.387E-13 0.227E-12   0.267E-01 0.130E-17 0.522E-01   0.113E-02 -.157E-12 -.144E+00
 
 
 POSITION                                       TOTAL-FORCE (eV/Angst)
 -----------------------------------------------------------------------------------
      3.49918      1.20749      1.99673        -0.002302     -0.000000      0.005426
      3.49918      3.62248      1.99673        -0.002302      0.000000      0.005426
      0.68831      1.20749      3.94382         0.003045      0.000000      0.005439
      0.68831      3.62248      3.94382         0.003045      0.000000      0.005439
      2.79580      0.00000      3.94428        -0.004745      0.000000     -0.015044
      2.79580      2.41498      3.94428        -0.004745      0.000000     -0.015044
      2.09336      1.20749      5.92814        -0.007647     -0.000000      0.005965
      2.09336      3.62248      5.92814        -0.007647      0.000000      0.005965
      4.18937      0.00000      5.92396         0.004374      0.000000      0.003193
      4.18937      2.41498      5.92396         0.004374     -0.000000      0.003193
      1.39565      0.00000      1.98803         0.007275     -0.000000     -0.004979
      1.39565      2.41498      1.98803         0.007275     -0.000000     -0.004979
 -----------------------------------------------------------------------------------
    total drift:                               -0.001619      0.000000      0.018133


--------------------------------------------------------------------------------------------------------



  FREE ENERGIE OF THE ION-ELECTRON SYSTEM (eV)
  ---------------------------------------------------
  free  energy   TOTEN  =       -87.81033453 eV

  energy  without entropy=      -87.81033453  energy(sigma->0) =      -87.81033453
 


--------------------------------------------------------------------------------------------------------


    POTLOK:  cpu time      0.0040: real time      0.0041


--------------------------------------------------------------------------------------------------------


 stress matrix after NEB project (eV)
     -0.49662      0.00000      0.04938
      0.00000     -0.54146      0.00000
      0.04938      0.00000     -0.51079
  FORCES: max atom, RMS     0.015774    0.009341
  FORCE total and by dimension    0.032358    0.015044
  Stress total and by dimension    0.897552    0.541461
     LOOP+:  cpu time    242.2294: real time    243.0521
 -----------------------------------------------------------------------------
|                                                                             |
|           W    W    AA    RRRRR   N    N  II  N    N   GGGG   !!!           |
|           W    W   A  A   R    R  NN   N  II  NN   N  G    G  !!!           |
|           W    W  A    A  R    R  N N  N  II  N N  N  G       !!!           |
|           W WW W  AAAAAA  RRRRR   N  N N  II  N  N N  G  GGG   !            |
|           WW  WW  A    A  R   R   N   NN  II  N   NN  G    G                |
|           W    W  A    A  R    R  N    N  II  N    N   GGGG   !!!           |
|                                                                             |
|     Tetrahedron method does not include variations of the Fermi             |
|     occupations, so forces and stress will be inaccurate. We suggest        |
|     using a different smearing scheme ISMEAR = 1 or 2 for metals in         |
|     relaxations.                                                            |
|                                                                             |
 -----------------------------------------------------------------------------

    4ORBIT:  cpu time      0.0000: real time      0.0000
 BZINTS: Fermi energy:    7.327185;  150.000000 electrons
         Band energy:-0.147904E+04;  BLOECHL correction:   -0.066817

 total amount of memory used by VASP MPI-rank0   160589. kBytes
=======================================================================

   base      :      30000. kBytes
   nonl-proj :      47869. kBytes
   fftplans  :        740. kBytes
   grid      :       1862. kBytes
   one-center:        124. kBytes
   wavefun   :      79994. kBytes
 
  
  
 General timing and accounting informations for this job:
 ========================================================
  
                  Total CPU time used (sec):      246.310
                            User time (sec):      239.197
                          System time (sec):        7.113
                         Elapsed time (sec):      247.125
  
                   Maximum memory used (kb):      259252.
                   Average memory used (kb):          N/A
  
                          Minor page faults:        19764
                          Major page faults:          470
                 Voluntary context switches:          495
