       N       E                     dE             d eps       ncg     rms          rms(c)
DAV:   1     0.177315800537E+04    0.17732E+04   -0.85067E+04 75264   0.177E+03
DAV:   2     0.609431105762E+01   -0.17671E+04   -0.16762E+04 75296   0.478E+02
DAV:   3    -0.102925290584E+03   -0.10902E+03   -0.10742E+03 88576   0.127E+02
DAV:   4    -0.104572816570E+03   -0.16475E+01   -0.16471E+01 79616   0.156E+01
DAV:   5    -0.104606814422E+03   -0.33998E-01   -0.33996E-01 92992   0.217E+00    0.365E+01
DAV:   6    -0.115963877354E+03   -0.11357E+02   -0.19181E+02 89504   0.636E+01    0.653E+01
DAV:   7    -0.105757539325E+03    0.10206E+02   -0.15644E+02 89600   0.531E+01    0.588E+01
DAV:   8    -0.989395334569E+02    0.68180E+01   -0.21858E+02 90560   0.399E+01    0.373E+01
DAV:   9    -0.999589592197E+02   -0.10194E+01   -0.63606E+01 85216   0.329E+01    0.426E+01
DAV:  10    -0.942413515334E+02    0.57176E+01   -0.62460E+01 85152   0.224E+01    0.228E+01
DAV:  11    -0.935932243510E+02    0.64813E+00   -0.15761E+01 88608   0.169E+01    0.206E+01
DAV:  12    -0.927482730257E+02    0.84495E+00   -0.71796E+00 87360   0.117E+01    0.112E+01
DAV:  13    -0.927380186067E+02    0.10254E-01   -0.11541E+00 90176   0.589E+00    0.921E+00
DAV:  14    -0.927456869859E+02   -0.76684E-02   -0.11022E+00 88672   0.521E+00    0.786E+00
DAV:  15    -0.928318163313E+02   -0.86129E-01   -0.80902E-01 90208   0.477E+00    0.472E+00
DAV:  16    -0.929066241197E+02   -0.74808E-01   -0.80173E-01 90976   0.420E+00    0.499E+00
DAV:  17    -0.928721340548E+02    0.34490E-01   -0.55327E-01 90656   0.320E+00    0.327E+00
DAV:  18    -0.929332594447E+02   -0.61125E-01   -0.20369E-01 86880   0.224E+00    0.302E+00
DAV:  19    -0.929588424696E+02   -0.25583E-01   -0.27684E-01 89056   0.354E+00    0.316E+00
DAV:  20    -0.929406899191E+02    0.18153E-01   -0.18529E-01 88896   0.267E+00    0.183E+00
DAV:  21    -0.929436419263E+02   -0.29520E-02   -0.71138E-02 88544   0.168E+00    0.193E+00
DAV:  22    -0.929414769366E+02    0.21650E-02   -0.20690E-02 89376   0.940E-01    0.162E+00
DAV:  23    -0.929401613606E+02    0.13156E-02   -0.15983E-02 90176   0.853E-01    0.104E+00
DAV:  24    -0.929410083861E+02   -0.84703E-03   -0.30386E-02 88448   0.127E+00    0.101E+00
DAV:  25    -0.929395987630E+02    0.14096E-02   -0.14634E-02 89952   0.868E-01    0.467E-01
DAV:  26    -0.929399179785E+02   -0.31922E-03   -0.35526E-03 90016   0.262E-01    0.152E-01
DAV:  27    -0.929401137228E+02   -0.19574E-03   -0.71764E-04 87808   0.134E-01    0.791E-02
DAV:  28    -0.929401441132E+02   -0.30390E-04   -0.94963E-05 88032   0.522E-02    0.622E-02
DAV:  29    -0.929401441973E+02   -0.84139E-07   -0.31287E-05 88992   0.354E-02    0.384E-02
DAV:  30    -0.929401055058E+02    0.38692E-04   -0.14699E-05 90688   0.184E-02    0.190E-02
DAV:  31    -0.929401045335E+02    0.97229E-06   -0.49397E-06 84448   0.112E-02
   1 F= -.92940105E+02 E0= -.92940105E+02  d E =0.000000E+00  mag=    19.9685
