 vasp.6.4.3 19Mar24 (build Mar 26 2024 14:05:37) complex                        
  
 executed on             LinuxIFC date 2024.12.17  07:40:40
 running  128 mpi-ranks, on    1 nodes
 distrk:  each k-point on   32 cores,    4 groups
 distr:  one band on NCORE=   1 cores,   32 groups


--------------------------------------------------------------------------------------------------------


 INCAR:
   ALGO = Normal
   EDIFF = 1e-06
   EDIFFG = -0.01
   ENCUT = 520
   GGA = Pe
   IBRION = -1
   ISIF = 4
   ISMEAR = -5
   ISPIN = 2
   KPAR = 4
   LCHARG = True
   LORBIT = 11
   LREAL = False
   LWAVE = False
   MAGMOM = 1*-2.702 2*2.918 2*2.725 1*2.877 1*2.525 1*2.792 1*2.793 2*0.127 1*0.306
   NELM = 200
   NSW = 0
   PREC = Accurate
   SIGMA = 0.2

 POTCAR:    PAW_PBE Fe_pv 02Aug2007               
 POTCAR:    PAW_PBE Pt 04Feb2005                  
 -----------------------------------------------------------------------------
|                                                                             |
|           W    W    AA    RRRRR   N    N  II  N    N   GGGG   !!!           |
|           W    W   A  A   R    R  NN   N  II  NN   N  G    G  !!!           |
|           W    W  A    A  R    R  N N  N  II  N N  N  G       !!!           |
|           W WW W  AAAAAA  RRRRR   N  N N  II  N  N N  G  GGG   !            |
|           WW  WW  A    A  R   R   N   NN  II  N   NN  G    G                |
|           W    W  A    A  R    R  N    N  II  N    N   GGGG   !!!           |
|                                                                             |
|     For optimal performance we recommend to set                             |
|       NCORE = 2 up to number-of-cores-per-socket                            |
|     NCORE specifies how many cores store one orbital (NPAR=cpu/NCORE).      |
|     This setting can greatly improve the performance of VASP for DFT.       |
|     The default, NCORE=1 might be grossly inefficient on modern             |
|     multi-core architectures or massively parallel machines. Do your        |
|     own testing! More info at https://www.vasp.at/wiki/index.php/NCORE      |
|     Unfortunately you need to use the default for GW and RPA                |
|     calculations (for HF NCORE is supported but not extensively tested      |
|     yet).                                                                   |
|                                                                             |
 -----------------------------------------------------------------------------

 POTCAR:    PAW_PBE Fe_pv 02Aug2007               
   SHA256 =  5d22e414b1f82158bf2c7ecb8b97b28fd0923e48cadc1c3bf74d524558f5dd32 Fe_pv/POTCAR          
   COPYR  = (c) Copyright 02Aug2007 Georg Kresse                                                    
   COPYR  = This file is part of the software VASP. Any use, copying, and all other rights are regul
   COPYR  = If you do not have a valid VASP license, you may not use, copy or distribute this file. 
   VRHFIN =Fe:  3pd7s1                                                                              
   LEXCH  = PE                                                                                      
   EATOM  =  2457.4239 eV,  180.6156 Ry                                                             
                                                                                                    
   TITEL  = PAW_PBE Fe_pv 02Aug2007                                                                 
   LULTRA =        F    use ultrasoft PP ?                                                          
   IUNSCR =        1    unscreen: 0-lin 1-nonlin 2-no                                               
   RPACOR =    1.750    partial core radius                                                         
   POMASS =   55.847; ZVAL   =   14.000    mass and valenz                                          
   RCORE  =    2.200    outmost cutoff radius                                                       
   RWIGS  =    2.200; RWIGS  =    1.164    wigner-seitz radius (au A)                               
   ENMAX  =  293.238; ENMIN  =  219.928 eV                                                          
   ICORE  =        3    local potential                                                             
   LCOR   =        T    correct aug charges                                                         
   LPAW   =        T    paw PP                                                                      
   EAUG   =  578.342                                                                                
   DEXC   =    0.000                                                                                
   RMAX   =    2.249    core radius for proj-oper                                                   
   RAUG   =    1.300    factor for augmentation sphere                                              
   RDEP   =    2.296    radius for radial grids                                                     
   RDEPT  =    1.766    core radius for aug-charge                                                  
                                                                                                    
   Atomic configuration                                                                             
    8 entries                                                                                       
     n  l   j            E        occ.                                                              
     1  0  0.50     -6993.8440   2.0000                                                             
     2  0  0.50      -814.6047   2.0000                                                             
     2  1  1.50      -693.3689   6.0000                                                             
     3  0  0.50       -89.4732   2.0000                                                             
     3  1  1.50       -55.6373   6.0000                                                             
     3  2  2.50        -3.8151   7.0000                                                             
     4  0  0.50        -4.2551   1.0000                                                             
     4  3  2.50        -1.3606   0.0000                                                             
   Description                                                                                      
     l       E           TYP  RCUT    TYP  RCUT                                                     
     1    -55.6372668     23  2.000                                                                 
     1     -5.4423304     23  2.000                                                                 
     2     -3.8151096     23  2.200                                                                 
     2     -5.1756922     23  2.200                                                                 
     0     -4.2550951     23  2.200                                                                 
     0     27.2116520     23  2.200                                                                 
     3     -1.3605826     23  2.200                                                                 
  local pseudopotential read in
  partial core-charges read in
  partial kinetic energy density read in
  atomic valenz-charges read in
  non local Contribution for L=           1  read in
    real space projection operators read in
  non local Contribution for L=           1  read in
    real space projection operators read in
  non local Contribution for L=           2  read in
    real space projection operators read in
  non local Contribution for L=           2  read in
    real space projection operators read in
  non local Contribution for L=           0  read in
    real space projection operators read in
  non local Contribution for L=           0  read in
    real space projection operators read in
    PAW grid and wavefunctions read in
 
   number of l-projection  operators is LMAX  =           6
   number of lm-projection operators is LMMAX =          18
 
 POTCAR:    PAW_PBE Pt 04Feb2005                  
   SHA256 =  3ed90460adef76debcff1cfb73ee1349b515b1a3db03439735b44de3a8db7dc8 Pt/POTCAR             
   COPYR  = (c) Copyright 04Feb2005 Georg Kresse                                                    
   COPYR  = This file is part of the software VASP. Any use, copying, and all other rights are regul
   COPYR  = If you do not have a valid VASP license, you may not use, copy or distribute this file. 
   VRHFIN =Pt: s1d9                                                                                 
   LEXCH  = PE                                                                                      
   EATOM  =   729.1176 eV,   53.5886 Ry                                                             
                                                                                                    
   TITEL  = PAW_PBE Pt 04Feb2005                                                                    
   LULTRA =        F    use ultrasoft PP ?                                                          
   IUNSCR =        1    unscreen: 0-lin 1-nonlin 2-no                                               
   RPACOR =    2.330    partial core radius                                                         
   POMASS =  195.080; ZVAL   =   10.000    mass and valenz                                          
   RCORE  =    2.600    outmost cutoff radius                                                       
   RWIGS  =    2.750; RWIGS  =    1.455    wigner-seitz radius (au A)                               
   ENMAX  =  230.283; ENMIN  =  172.712 eV                                                          
   ICORE  =        3    local potential                                                             
   LCOR   =        T    correct aug charges                                                         
   LPAW   =        T    paw PP                                                                      
   EAUG   =  358.966                                                                                
   DEXC   =    0.000                                                                                
   RMAX   =    2.658    core radius for proj-oper                                                   
   RAUG   =    1.300    factor for augmentation sphere                                              
   RDEP   =    2.761    radius for radial grids                                                     
   RDEPT  =    2.203    core radius for aug-charge                                                  
                                                                                                    
   Atomic configuration                                                                             
   16 entries                                                                                       
     n  l   j            E        occ.                                                              
     1  0  0.50    -78401.1885   2.0000                                                             
     2  0  0.50    -13770.7750   2.0000                                                             
     2  1  1.50    -11931.0468   6.0000                                                             
     3  0  0.50     -3234.7234   2.0000                                                             
     3  1  1.50     -2699.2216   6.0000                                                             
     3  2  2.50     -2119.5714  10.0000                                                             
     4  0  0.50      -695.1528   2.0000                                                             
     4  1  1.50      -519.6034   6.0000                                                             
     4  2  2.50      -306.6786  10.0000                                                             
     4  3  3.50       -70.1041  14.0000                                                             
     5  0  0.50      -101.7747   2.0000                                                             
     5  1  1.50       -55.9873   6.0000                                                             
     5  2  2.50        -6.1423   9.0000                                                             
     6  0  0.50        -5.6573   1.0000                                                             
     6  1  1.50        -6.8029   0.0000                                                             
     5  3  2.50        -1.3606   0.0000                                                             
   Description                                                                                      
     l       E           TYP  RCUT    TYP  RCUT                                                     
     2     -6.1423404     23  2.500                                                                 
     2     -7.5029230     23  2.500                                                                 
     0     -5.6573207     23  2.500                                                                 
     0      0.7416693     23  2.500                                                                 
     1     -2.7211652     23  2.600                                                                 
     1     20.4087390     23  2.600                                                                 
     3     -1.3605826     23  2.500                                                                 
  local pseudopotential read in
  partial core-charges read in
  partial kinetic energy density read in
  atomic valenz-charges read in
  non local Contribution for L=           2  read in
    real space projection operators read in
  non local Contribution for L=           2  read in
    real space projection operators read in
  non local Contribution for L=           0  read in
    real space projection operators read in
  non local Contribution for L=           0  read in
    real space projection operators read in
  non local Contribution for L=           1  read in
    real space projection operators read in
  non local Contribution for L=           1  read in
    real space projection operators read in
    PAW grid and wavefunctions read in
 
   number of l-projection  operators is LMAX  =           6
   number of lm-projection operators is LMMAX =          18
 
  PAW_PBE Fe_pv 02Aug2007               :
 energy of atom  1       EATOM=-2457.4239
 kinetic energy error for atom=    0.0062 (will be added to EATOM!!)
  PAW_PBE Pt 04Feb2005                  :
 energy of atom  2       EATOM= -729.1176
 kinetic energy error for atom=    0.0032 (will be added to EATOM!!)
 
 
 POSCAR: Fe9 Pt3
  positions in direct lattice
  velocities in cartesian coordinates


 exchange-correlation table for PE
   RHO(1)=    0.500       N(1)  =     2000
   RHO(2)=  100.500       N(2)  =     4000
 


--------------------------------------------------------------------------------------------------------


 ion  position               nearest neighbor table
   1  0.000  0.500  0.167-  10 2.61  10 2.61  11 2.61  11 2.61   7 2.68   7 2.68   7 2.68   7 2.68
                             4 2.72   4 2.72   5 2.72   5 2.72
   2  0.000  0.500  0.499-  12 2.67  12 2.67   8 2.68   8 2.68   8 2.68   8 2.68  11 2.70  11 2.70
                             6 2.75   6 2.75   5 2.77   5 2.77
   3  0.000  0.500  0.834-  12 2.67  12 2.67   9 2.68   9 2.68   9 2.68   9 2.68  10 2.70  10 2.70
                             6 2.75   6 2.75   4 2.77   4 2.77
   4  0.500  0.500  0.003-   7 2.63   7 2.63   9 2.67   9 2.67  10 2.68  10 2.68  10 2.68  10 2.68
                             1 2.72   1 2.72   3 2.77   3 2.77
   5  0.500  0.500  0.330-   7 2.63   7 2.63   8 2.67   8 2.67  11 2.68  11 2.68  11 2.68  11 2.68
                             1 2.72   1 2.72   2 2.77   2 2.77
   6  0.500  0.500  0.667-   8 2.68   8 2.68   9 2.68   9 2.68  12 2.68  12 2.68  12 2.68  12 2.68
                             2 2.75   2 2.75   3 2.75   3 2.75
   7  0.500  0.000  0.167-   4 2.63   4 2.63   5 2.63   5 2.63   1 2.68   1 2.68   1 2.68   1 2.68
                            10 2.70  10 2.70  11 2.70  11 2.70
   8  0.500  0.000  0.498-   5 2.67   5 2.67   6 2.68   6 2.68   2 2.68   2 2.68   2 2.68   2 2.68
                            12 2.77  12 2.77  11 2.78  11 2.78
   9  0.500  0.000  0.836-   4 2.67   4 2.67   6 2.68   6 2.68   3 2.68   3 2.68   3 2.68   3 2.68
                            12 2.77  12 2.77  10 2.78  10 2.78
  10  0.000  0.000  0.006-   1 2.61   1 2.61   4 2.68   4 2.68   4 2.68   4 2.68   7 2.70   7 2.70
                             3 2.70   3 2.70   9 2.78   9 2.78
  11  0.000  0.000  0.328-   1 2.61   1 2.61   5 2.68   5 2.68   5 2.68   5 2.68   7 2.70   7 2.70
                             2 2.70   2 2.70   8 2.78   8 2.78
  12  0.000  0.000  0.667-   2 2.67   2 2.67   3 2.67   3 2.67   6 2.68   6 2.68   6 2.68   6 2.68
                             8 2.77   8 2.77   9 2.77   9 2.77
 
  LATTYP: Found a simple orthorhombic cell.
 ALAT       =     3.6641926453
 B/A-ratio  =     1.0685979918
 C/A-ratio  =     3.1576125418
  
  Lattice vectors:
  
 A1 = (   0.0000000000,  -3.6641926453,   0.0000000000)
 A2 = (   3.9155489021,   0.0000000000,   0.0000000000)
 A3 = (   0.0000000000,   0.0000000000,  11.5701006522)


Analysis of symmetry for initial positions (statically):
=====================================================================
 Subroutine PRICEL returns:
 Original cell was already a primitive cell.
 

 Routine SETGRP: Setting up the symmetry group for a 
 simple orthorhombic supercell.


 Subroutine GETGRP returns: Found  4 space group operations
 (whereof  4 operations were pure point group operations)
 out of a pool of  8 trial point group operations.


The static configuration has the point symmetry C_2v.


Analysis of symmetry for dynamics (positions and initial velocities):
=====================================================================
 Subroutine PRICEL returns:
 Original cell was already a primitive cell.
 

 Routine SETGRP: Setting up the symmetry group for a 
 simple orthorhombic supercell.


 Subroutine GETGRP returns: Found  4 space group operations
 (whereof  4 operations were pure point group operations)
 out of a pool of  8 trial point group operations.


The dynamic configuration has the point symmetry C_2v.


Analysis of structural, dynamic, and magnetic symmetry:
=====================================================================
 Subroutine PRICEL returns:
 Original cell was already a primitive cell.
 

 Routine SETGRP: Setting up the symmetry group for a 
 simple orthorhombic supercell.


 Subroutine GETGRP returns: Found  4 space group operations
 (whereof  4 operations were pure point group operations)
 out of a pool of  8 trial point group operations.


The overall configuration has the point symmetry C_2v.


 Subroutine INISYM returns: Found  4 space group operations
 (whereof  4 operations are pure point group operations),
 and found     1 'primitive' translations


----------------------------------------------------------------------------------------

                                     Primitive cell                                     

  volume of cell :     166.0000

  direct lattice vectors                    reciprocal lattice vectors
     3.915548902  0.000000000  0.000000000     0.255392034  0.000000000  0.000000000
     0.000000000  3.664192645  0.000000000     0.000000000  0.272911415  0.000000000
     0.000000000  0.000000000 11.570100652     0.000000000  0.000000000  0.086429672

  length of vectors
     3.915548902  3.664192645 11.570100652     0.255392034  0.272911415  0.086429672

  position of ions in fractional coordinates (direct lattice)
     0.000000000  0.500000000  0.166654225
     0.000000000  0.500000000  0.499270688
     0.000000000  0.500000000  0.834072339
     0.500000000  0.500000000  0.003474027
     0.500000000  0.500000000  0.329885126
     0.500000000  0.500000000  0.666640508
     0.500000000  0.000000000  0.166655745
     0.500000000  0.000000000  0.497745880
     0.500000000  0.000000000  0.835600456
     0.000000000  0.000000000  0.005766433
     0.000000000  0.000000000  0.327595934
     0.000000000  0.000000000  0.666638639

  ion indices of the primitive-cell ions
   primitive index   ion index
                 1           1
                 2           2
                 3           3
                 4           4
                 5           5
                 6           6
                 7           7
                 8           8
                 9           9
                10          10
                11          11
                12          12

----------------------------------------------------------------------------------------

 
 
 KPOINTS: pymatgen with grid density = 8800 / numb

Automatic generation of k-mesh.
 Grid dimensions read from file:
 generate k-points for:   13   13    4

 Generating k-lattice:

  Cartesian coordinates                     Fractional coordinates (reciprocal lattice)
     0.019645541  0.000000000  0.000000000     0.076923077  0.000000000  0.000000000
     0.000000000  0.020993186  0.000000000     0.000000000  0.076923077  0.000000000
     0.000000000  0.000000000  0.021607418     0.000000000  0.000000000  0.250000000

  Length of vectors
     0.019645541  0.020993186  0.021607418

  Shift w.r.t. Gamma in fractional coordinates (k-lattice)
     0.000000000  0.000000000  0.000000000

 TETIRR: Found   2022 inequivalent tetrahedra from     4056
 
 Subroutine IBZKPT returns following result:
 ===========================================
 
 Found    147 irreducible k-points:
 
 Following reciprocal coordinates:
            Coordinates               Weight
  0.000000  0.000000  0.000000      1.000000
  0.076923  0.000000  0.000000      2.000000
  0.153846  0.000000  0.000000      2.000000
  0.230769  0.000000  0.000000      2.000000
  0.307692  0.000000  0.000000      2.000000
  0.384615  0.000000  0.000000      2.000000
  0.461538  0.000000  0.000000      2.000000
  0.000000  0.076923  0.000000      2.000000
  0.076923  0.076923  0.000000      4.000000
  0.153846  0.076923  0.000000      4.000000
  0.230769  0.076923  0.000000      4.000000
  0.307692  0.076923  0.000000      4.000000
  0.384615  0.076923  0.000000      4.000000
  0.461538  0.076923  0.000000      4.000000
  0.000000  0.153846  0.000000      2.000000
  0.076923  0.153846  0.000000      4.000000
  0.153846  0.153846  0.000000      4.000000
  0.230769  0.153846  0.000000      4.000000
  0.307692  0.153846  0.000000      4.000000
  0.384615  0.153846  0.000000      4.000000
  0.461538  0.153846  0.000000      4.000000
  0.000000  0.230769  0.000000      2.000000
  0.076923  0.230769  0.000000      4.000000
  0.153846  0.230769  0.000000      4.000000
  0.230769  0.230769  0.000000      4.000000
  0.307692  0.230769  0.000000      4.000000
  0.384615  0.230769  0.000000      4.000000
  0.461538  0.230769  0.000000      4.000000
  0.000000  0.307692  0.000000      2.000000
  0.076923  0.307692  0.000000      4.000000
  0.153846  0.307692  0.000000      4.000000
  0.230769  0.307692  0.000000      4.000000
  0.307692  0.307692  0.000000      4.000000
  0.384615  0.307692  0.000000      4.000000
  0.461538  0.307692  0.000000      4.000000
  0.000000  0.384615  0.000000      2.000000
  0.076923  0.384615  0.000000      4.000000
  0.153846  0.384615  0.000000      4.000000
  0.230769  0.384615  0.000000      4.000000
  0.307692  0.384615  0.000000      4.000000
  0.384615  0.384615  0.000000      4.000000
  0.461538  0.384615  0.000000      4.000000
  0.000000  0.461538  0.000000      2.000000
  0.076923  0.461538  0.000000      4.000000
  0.153846  0.461538  0.000000      4.000000
  0.230769  0.461538  0.000000      4.000000
  0.307692  0.461538  0.000000      4.000000
  0.384615  0.461538  0.000000      4.000000
  0.461538  0.461538  0.000000      4.000000
  0.000000  0.000000  0.250000      2.000000
  0.076923  0.000000  0.250000      4.000000
  0.153846  0.000000  0.250000      4.000000
  0.230769  0.000000  0.250000      4.000000
  0.307692  0.000000  0.250000      4.000000
  0.384615  0.000000  0.250000      4.000000
  0.461538  0.000000  0.250000      4.000000
  0.000000  0.076923  0.250000      4.000000
  0.076923  0.076923  0.250000      8.000000
  0.153846  0.076923  0.250000      8.000000
  0.230769  0.076923  0.250000      8.000000
  0.307692  0.076923  0.250000      8.000000
  0.384615  0.076923  0.250000      8.000000
  0.461538  0.076923  0.250000      8.000000
  0.000000  0.153846  0.250000      4.000000
  0.076923  0.153846  0.250000      8.000000
  0.153846  0.153846  0.250000      8.000000
  0.230769  0.153846  0.250000      8.000000
  0.307692  0.153846  0.250000      8.000000
  0.384615  0.153846  0.250000      8.000000
  0.461538  0.153846  0.250000      8.000000
  0.000000  0.230769  0.250000      4.000000
  0.076923  0.230769  0.250000      8.000000
  0.153846  0.230769  0.250000      8.000000
  0.230769  0.230769  0.250000      8.000000
  0.307692  0.230769  0.250000      8.000000
  0.384615  0.230769  0.250000      8.000000
  0.461538  0.230769  0.250000      8.000000
  0.000000  0.307692  0.250000      4.000000
  0.076923  0.307692  0.250000      8.000000
  0.153846  0.307692  0.250000      8.000000
  0.230769  0.307692  0.250000      8.000000
  0.307692  0.307692  0.250000      8.000000
  0.384615  0.307692  0.250000      8.000000
  0.461538  0.307692  0.250000      8.000000
  0.000000  0.384615  0.250000      4.000000
  0.076923  0.384615  0.250000      8.000000
  0.153846  0.384615  0.250000      8.000000
  0.230769  0.384615  0.250000      8.000000
  0.307692  0.384615  0.250000      8.000000
  0.384615  0.384615  0.250000      8.000000
  0.461538  0.384615  0.250000      8.000000
  0.000000  0.461538  0.250000      4.000000
  0.076923  0.461538  0.250000      8.000000
  0.153846  0.461538  0.250000      8.000000
  0.230769  0.461538  0.250000      8.000000
  0.307692  0.461538  0.250000      8.000000
  0.384615  0.461538  0.250000      8.000000
  0.461538  0.461538  0.250000      8.000000
  0.000000  0.000000  0.500000      1.000000
  0.076923  0.000000  0.500000      2.000000
  0.153846  0.000000  0.500000      2.000000
  0.230769  0.000000  0.500000      2.000000
  0.307692  0.000000  0.500000      2.000000
  0.384615  0.000000  0.500000      2.000000
  0.461538  0.000000  0.500000      2.000000
  0.000000  0.076923  0.500000      2.000000
  0.076923  0.076923  0.500000      4.000000
  0.153846  0.076923  0.500000      4.000000
  0.230769  0.076923  0.500000      4.000000
  0.307692  0.076923  0.500000      4.000000
  0.384615  0.076923  0.500000      4.000000
  0.461538  0.076923  0.500000      4.000000
  0.000000  0.153846  0.500000      2.000000
  0.076923  0.153846  0.500000      4.000000
  0.153846  0.153846  0.500000      4.000000
  0.230769  0.153846  0.500000      4.000000
  0.307692  0.153846  0.500000      4.000000
  0.384615  0.153846  0.500000      4.000000
  0.461538  0.153846  0.500000      4.000000
  0.000000  0.230769  0.500000      2.000000
  0.076923  0.230769  0.500000      4.000000
  0.153846  0.230769  0.500000      4.000000
  0.230769  0.230769  0.500000      4.000000
  0.307692  0.230769  0.500000      4.000000
  0.384615  0.230769  0.500000      4.000000
  0.461538  0.230769  0.500000      4.000000
  0.000000  0.307692  0.500000      2.000000
  0.076923  0.307692  0.500000      4.000000
  0.153846  0.307692  0.500000      4.000000
  0.230769  0.307692  0.500000      4.000000
  0.307692  0.307692  0.500000      4.000000
  0.384615  0.307692  0.500000      4.000000
  0.461538  0.307692  0.500000      4.000000
  0.000000  0.384615  0.500000      2.000000
  0.076923  0.384615  0.500000      4.000000
  0.153846  0.384615  0.500000      4.000000
  0.230769  0.384615  0.500000      4.000000
  0.307692  0.384615  0.500000      4.000000
  0.384615  0.384615  0.500000      4.000000
  0.461538  0.384615  0.500000      4.000000
  0.000000  0.461538  0.500000      2.000000
  0.076923  0.461538  0.500000      4.000000
  0.153846  0.461538  0.500000      4.000000
  0.230769  0.461538  0.500000      4.000000
  0.307692  0.461538  0.500000      4.000000
  0.384615  0.461538  0.500000      4.000000
  0.461538  0.461538  0.500000      4.000000
 
 Following cartesian coordinates:
            Coordinates               Weight
  0.000000  0.000000  0.000000      1.000000
  0.019646  0.000000  0.000000      2.000000
  0.039291  0.000000  0.000000      2.000000
  0.058937  0.000000  0.000000      2.000000
  0.078582  0.000000  0.000000      2.000000
  0.098228  0.000000  0.000000      2.000000
  0.117873  0.000000  0.000000      2.000000
  0.000000  0.020993  0.000000      2.000000
  0.019646  0.020993  0.000000      4.000000
  0.039291  0.020993  0.000000      4.000000
  0.058937  0.020993  0.000000      4.000000
  0.078582  0.020993  0.000000      4.000000
  0.098228  0.020993  0.000000      4.000000
  0.117873  0.020993  0.000000      4.000000
  0.000000  0.041986  0.000000      2.000000
  0.019646  0.041986  0.000000      4.000000
  0.039291  0.041986  0.000000      4.000000
  0.058937  0.041986  0.000000      4.000000
  0.078582  0.041986  0.000000      4.000000
  0.098228  0.041986  0.000000      4.000000
  0.117873  0.041986  0.000000      4.000000
  0.000000  0.062980  0.000000      2.000000
  0.019646  0.062980  0.000000      4.000000
  0.039291  0.062980  0.000000      4.000000
  0.058937  0.062980  0.000000      4.000000
  0.078582  0.062980  0.000000      4.000000
  0.098228  0.062980  0.000000      4.000000
  0.117873  0.062980  0.000000      4.000000
  0.000000  0.083973  0.000000      2.000000
  0.019646  0.083973  0.000000      4.000000
  0.039291  0.083973  0.000000      4.000000
  0.058937  0.083973  0.000000      4.000000
  0.078582  0.083973  0.000000      4.000000
  0.098228  0.083973  0.000000      4.000000
  0.117873  0.083973  0.000000      4.000000
  0.000000  0.104966  0.000000      2.000000
  0.019646  0.104966  0.000000      4.000000
  0.039291  0.104966  0.000000      4.000000
  0.058937  0.104966  0.000000      4.000000
  0.078582  0.104966  0.000000      4.000000
  0.098228  0.104966  0.000000      4.000000
  0.117873  0.104966  0.000000      4.000000
  0.000000  0.125959  0.000000      2.000000
  0.019646  0.125959  0.000000      4.000000
  0.039291  0.125959  0.000000      4.000000
  0.058937  0.125959  0.000000      4.000000
  0.078582  0.125959  0.000000      4.000000
  0.098228  0.125959  0.000000      4.000000
  0.117873  0.125959  0.000000      4.000000
  0.000000  0.000000  0.021607      2.000000
  0.019646  0.000000  0.021607      4.000000
  0.039291  0.000000  0.021607      4.000000
  0.058937  0.000000  0.021607      4.000000
  0.078582  0.000000  0.021607      4.000000
  0.098228  0.000000  0.021607      4.000000
  0.117873  0.000000  0.021607      4.000000
  0.000000  0.020993  0.021607      4.000000
  0.019646  0.020993  0.021607      8.000000
  0.039291  0.020993  0.021607      8.000000
  0.058937  0.020993  0.021607      8.000000
  0.078582  0.020993  0.021607      8.000000
  0.098228  0.020993  0.021607      8.000000
  0.117873  0.020993  0.021607      8.000000
  0.000000  0.041986  0.021607      4.000000
  0.019646  0.041986  0.021607      8.000000
  0.039291  0.041986  0.021607      8.000000
  0.058937  0.041986  0.021607      8.000000
  0.078582  0.041986  0.021607      8.000000
  0.098228  0.041986  0.021607      8.000000
  0.117873  0.041986  0.021607      8.000000
  0.000000  0.062980  0.021607      4.000000
  0.019646  0.062980  0.021607      8.000000
  0.039291  0.062980  0.021607      8.000000
  0.058937  0.062980  0.021607      8.000000
  0.078582  0.062980  0.021607      8.000000
  0.098228  0.062980  0.021607      8.000000
  0.117873  0.062980  0.021607      8.000000
  0.000000  0.083973  0.021607      4.000000
  0.019646  0.083973  0.021607      8.000000
  0.039291  0.083973  0.021607      8.000000
  0.058937  0.083973  0.021607      8.000000
  0.078582  0.083973  0.021607      8.000000
  0.098228  0.083973  0.021607      8.000000
  0.117873  0.083973  0.021607      8.000000
  0.000000  0.104966  0.021607      4.000000
  0.019646  0.104966  0.021607      8.000000
  0.039291  0.104966  0.021607      8.000000
  0.058937  0.104966  0.021607      8.000000
  0.078582  0.104966  0.021607      8.000000
  0.098228  0.104966  0.021607      8.000000
  0.117873  0.104966  0.021607      8.000000
  0.000000  0.125959  0.021607      4.000000
  0.019646  0.125959  0.021607      8.000000
  0.039291  0.125959  0.021607      8.000000
  0.058937  0.125959  0.021607      8.000000
  0.078582  0.125959  0.021607      8.000000
  0.098228  0.125959  0.021607      8.000000
  0.117873  0.125959  0.021607      8.000000
  0.000000  0.000000  0.043215      1.000000
  0.019646  0.000000  0.043215      2.000000
  0.039291  0.000000  0.043215      2.000000
  0.058937  0.000000  0.043215      2.000000
  0.078582  0.000000  0.043215      2.000000
  0.098228  0.000000  0.043215      2.000000
  0.117873  0.000000  0.043215      2.000000
  0.000000  0.020993  0.043215      2.000000
  0.019646  0.020993  0.043215      4.000000
  0.039291  0.020993  0.043215      4.000000
  0.058937  0.020993  0.043215      4.000000
  0.078582  0.020993  0.043215      4.000000
  0.098228  0.020993  0.043215      4.000000
  0.117873  0.020993  0.043215      4.000000
  0.000000  0.041986  0.043215      2.000000
  0.019646  0.041986  0.043215      4.000000
  0.039291  0.041986  0.043215      4.000000
  0.058937  0.041986  0.043215      4.000000
  0.078582  0.041986  0.043215      4.000000
  0.098228  0.041986  0.043215      4.000000
  0.117873  0.041986  0.043215      4.000000
  0.000000  0.062980  0.043215      2.000000
  0.019646  0.062980  0.043215      4.000000
  0.039291  0.062980  0.043215      4.000000
  0.058937  0.062980  0.043215      4.000000
  0.078582  0.062980  0.043215      4.000000
  0.098228  0.062980  0.043215      4.000000
  0.117873  0.062980  0.043215      4.000000
  0.000000  0.083973  0.043215      2.000000
  0.019646  0.083973  0.043215      4.000000
  0.039291  0.083973  0.043215      4.000000
  0.058937  0.083973  0.043215      4.000000
  0.078582  0.083973  0.043215      4.000000
  0.098228  0.083973  0.043215      4.000000
  0.117873  0.083973  0.043215      4.000000
  0.000000  0.104966  0.043215      2.000000
  0.019646  0.104966  0.043215      4.000000
  0.039291  0.104966  0.043215      4.000000
  0.058937  0.104966  0.043215      4.000000
  0.078582  0.104966  0.043215      4.000000
  0.098228  0.104966  0.043215      4.000000
  0.117873  0.104966  0.043215      4.000000
  0.000000  0.125959  0.043215      2.000000
  0.019646  0.125959  0.043215      4.000000
  0.039291  0.125959  0.043215      4.000000
  0.058937  0.125959  0.043215      4.000000
  0.078582  0.125959  0.043215      4.000000
  0.098228  0.125959  0.043215      4.000000
  0.117873  0.125959  0.043215      4.000000
 


--------------------------------------------------------------------------------------------------------




 Dimension of arrays:
   k-points           NKPTS =    147   k-points in BZ     NKDIM =    147   number of bands    NBANDS=    128
   number of dos      NEDOS =    301   number of ions     NIONS =     12
   non local maximal  LDIM  =      6   non local SUM 2l+1 LMDIM =     18
   total plane-waves  NPLWV =  75600
   max r-space proj   IRMAX =      1   max aug-charges    IRDMAX=  27780
   dimension x,y,z NGX =    30 NGY =   28 NGZ =   90
   dimension x,y,z NGXF=    60 NGYF=   56 NGZF=  180
   support grid    NGXF=    60 NGYF=   56 NGZF=  180
   ions per type =               9   3
   NGX,Y,Z   is equivalent  to a cutoff of  12.74, 12.70, 12.93 a.u.
   NGXF,Y,Z  is equivalent  to a cutoff of  25.47, 25.41, 25.86 a.u.

 SYSTEM =  unknown system                          
 POSCAR =  Fe9 Pt3                                 

 Startparameter for this run:
   NWRITE =      2    write-flag & timer
   PREC   = accura    normal or accurate (medium, high low for compatibility)
   ISTART =      0    job   : 0-new  1-cont  2-samecut
   ICHARG =      2    charge: 1-file 2-atom 10-const
   ISPIN  =      2    spin polarized calculation?
   LNONCOLLINEAR =      F non collinear calculations
   LSORBIT =      F    spin-orbit coupling
   INIWAV =      1    electr: 0-lowe 1-rand  2-diag
   LASPH  =      F    aspherical Exc in radial PAW
 Electronic Relaxation 1
   ENCUT  =  520.0 eV  38.22 Ry    6.18 a.u.   7.28  6.81 21.51*2*pi/ulx,y,z
   ENINI  =  520.0     initial cutoff
   ENAUG  =  578.3 eV  augmentation charge cutoff
   NELM   =    200;   NELMIN=  2; NELMDL=  0     # of ELM steps 
   EDIFF  = 0.1E-05   stopping-criterion for ELM
   LREAL  =      F    real-space projection
   NLSPLINE    = F    spline interpolate recip. space projectors
   LCOMPAT=      F    compatible to vasp.4.4
   GGA_COMPAT  = T    GGA compatible to vasp.4.4-vasp.4.6
   LMAXPAW     = -100 max onsite density
   LMAXMIX     =    2 max onsite mixed and CHGCAR
   VOSKOWN=      0    Vosko Wilk Nusair interpolation
   ROPT   =    0.00000   0.00000
 Ionic relaxation
   EDIFFG = -.1E-01   stopping-criterion for IOM
   NSW    =      0    number of steps for IOM
   NBLOCK =      1;   KBLOCK =      1    inner block; outer block 
   IBRION =     -1    ionic relax: 0-MD 1-quasi-New 2-CG
   NFREE  =      0    steps in history (QN), initial steepest desc. (CG)
   ISIF   =      4    stress and relaxation
   IWAVPR =     10    prediction:  0-non 1-charg 2-wave 3-comb
   ISYM   =      2    0-nonsym 1-usesym 2-fastsym
   LCORR  =      T    Harris-Foulkes like correction to forces

   POTIM  = 0.5000    time-step for ionic-motion
   TEIN   =    0.0    initial temperature
   TEBEG  =    0.0;   TEEND  =   0.0 temperature during run
   SMASS  =  -3.00    Nose mass-parameter (am)
   estimated Nose-frequenzy (Omega)   =  0.10E-29 period in steps = 0.13E+47 mass=  -0.350E-27a.u.
   SCALEE = 1.0000    scale energy and forces
   NPACO  =    256;   APACO  = 10.0  distance and # of slots for P.C.
   PSTRESS=    0.0 pullay stress

  Mass of Ions in am
   POMASS =  55.85195.08
  Ionic Valenz
   ZVAL   =  14.00 10.00
  Atomic Wigner-Seitz radii
   RWIGS  =  -1.00 -1.00
  virtual crystal weights 
   VCA    =   1.00  1.00
   NELECT =     156.0000    total number of electrons
   NUPDOWN=      -1.0000    fix difference up-down

 DOS related values:
   EMIN   =  10.00;   EMAX   =-10.00  energy-range for DOS
   EFERMI =   0.00;   METHOD = LEGACY      
   ISMEAR =    -5;   SIGMA  =   0.20  broadening in eV -4-tet -1-fermi 0-gaus

 Electronic relaxation 2 (details)
   IALGO  =     38    algorithm
   LDIAG  =      T    sub-space diagonalisation (order eigenvalues)
   LSUBROT=      F    optimize rotation matrix (better conditioning)
   TURBO    =      0    0=normal 1=particle mesh
   IRESTART =      0    0=no restart 2=restart with 2 vectors
   NREBOOT  =      0    no. of reboots
   NMIN     =      0    reboot dimension
   EREF     =   0.00    reference energy to select bands
   IMIX   =      4    mixing-type and parameters
     AMIX     =   0.40;   BMIX     =  1.00
     AMIX_MAG =   1.60;   BMIX_MAG =  1.00
     AMIN     =   0.10
     WC   =   100.;   INIMIX=   1;  MIXPRE=   1;  MAXMIX= -45

 Intra band minimization:
   WEIMIN = 0.0000     energy-eigenvalue tresh-hold
   EBREAK =  0.20E-08  absolut break condition
   DEPER  =   0.30     relativ break condition  

   TIME   =   0.40     timestep for ELM

  volume/ion in A,a.u.               =      13.83        93.35
  Fermi-wavevector in a.u.,A,eV,Ry     =   1.603542  3.030255 34.985298  2.571347
  Thomas-Fermi vector in A             =   2.700188
 
 Write flags
   LWAVE        =      F    write WAVECAR
   LDOWNSAMPLE  =      F    k-point downsampling of WAVECAR
   LCHARG       =      T    write CHGCAR
   LVTOT        =      F    write LOCPOT, total local potential
   LVHAR        =      F    write LOCPOT, Hartree potential only
   WRT_POTENTIAL= false  ! write potential to hdf5 file
   LELF         =      F    write electronic localiz. function (ELF)
   LORBIT       =     11    0 simple, 1 ext, 2 COOP (PROOUT), +10 PAW based schemes


 Dipole corrections
   LMONO      =      F    monopole corrections only (constant potential shift)
   LDIPOL     =      F    correct potential (dipole corrections)
   IDIPOL     =      0    1-x, 2-y, 3-z, 4-all directions 
   EPSILON    =  1.0000000 bulk dielectric constant
   LVACPOTAV  =      F  vacuum potentials using an averaging scheme for the charge density
   VACPOTFLAT =  0.1000000 required flatness to determine vacuum potential
 Exchange correlation treatment:
   GGA     = PE    functional components
   XC_C    = 1    coefficients multiplying the functional components
   LIBXC   =     F    Libxc                    
   VOSKOWN =     0    Vosko Wilk Nusair interpolation
   LHFCALC =     F    Hartree Fock is set to
   LHFONE  =     F    Hartree Fock one center treatment
   AEXX    =    0.0000 exact exchange contribution

 Parameters of functionals:
   PE:
     No parameter
 
 Van der Waals corrections
   IVDW    =     0    specifies the selected vdW correction

 Linear response parameters
   LEPSILON=     F    determine dielectric tensor
   LRPA    =     F    only Hartree local field effects (RPA)
   LNABLA  =     F    use nabla operator in PAW spheres
   LVEL    =     F    velocity operator in full k-point grid
   CSHIFT  =0.1000    complex shift for real part using Kramers Kronig
   OMEGAMAX=  -1.0    maximum frequency
   DEG_THRESHOLD= 0.2000000E-02 threshold for treating states as degnerate
   RTIME   =   -0.100 relaxation time in fs
  (WPLASMAI=    0.000 imaginary part of plasma frequency in eV, 0.658/RTIME)
   DFIELD  = 0.0000000 0.0000000 0.0000000 field for delta impulse in time
 
  Optional k-point grid parameters
   LKPOINTS_OPT  =     F    use optional k-point grid
   KPOINTS_OPT_MODE=     1    mode for optional k-point grid
 
 Orbital magnetization related:
   ORBITALMAG=     F  switch on orbital magnetization
   LCHIMAG   =     F  perturbation theory with respect to B field
   DQ        =  0.001000  dq finite difference perturbation B field
   LLRAUG    =     F  two centre corrections for induced B field
   LBONE     =     F  B-component reconstruction in AE one-centre
   LVGVCALC  =     T  calculate vGv susceptibility
   LVGVAPPL  =     F  apply vGv susceptibility instead of pGv for G=0

 Random number generation:
   RANDOM_GENERATOR = DEFAULT
   PCG_SEED         = not used


--------------------------------------------------------------------------------------------------------


 Static calculation
 charge density and potential will be updated during run
 spin polarized calculation
 Variant of blocked Davidson
 Davidson routine will perform the subspace rotation
 perform sub-space diagonalisation
    after iterative eigenvector-optimisation
 modified Broyden-mixing scheme, WC =      100.0
 initial mixing is a Kerker type mixing with AMIX =  0.4000 and BMIX =      1.0000
 Hartree-type preconditioning will be used
 using additional bands           50
 reciprocal scheme for non local part
 use partial core corrections
 calculate Harris-corrections to forces 
   (improved forces if not selfconsistent)
 use gradient corrections 
 use of overlap-Matrix (Vanderbilt PP)
 Fermi weights with tetrahedron method with Bloechl corrections


--------------------------------------------------------------------------------------------------------


  energy-cutoff  :      520.00
  volume of cell :      166.00
      direct lattice vectors                 reciprocal lattice vectors
     3.915548902  0.000000000  0.000000000     0.255392034  0.000000000  0.000000000
     0.000000000  3.664192645  0.000000000     0.000000000  0.272911415  0.000000000
     0.000000000  0.000000000 11.570100652     0.000000000  0.000000000  0.086429672

  length of vectors
     3.915548902  3.664192645 11.570100652     0.255392034  0.272911415  0.086429672


 
 k-points in units of 2pi/SCALE and weight: pymatgen with grid density = 8800 / numb
   0.00000000  0.00000000  0.00000000       0.001
   0.01964554  0.00000000  0.00000000       0.003
   0.03929108  0.00000000  0.00000000       0.003
   0.05893662  0.00000000  0.00000000       0.003
   0.07858216  0.00000000  0.00000000       0.003
   0.09822771  0.00000000  0.00000000       0.003
   0.11787325  0.00000000  0.00000000       0.003
   0.00000000  0.02099319  0.00000000       0.003
   0.01964554  0.02099319  0.00000000       0.006
   0.03929108  0.02099319  0.00000000       0.006
   0.05893662  0.02099319  0.00000000       0.006
   0.07858216  0.02099319  0.00000000       0.006
   0.09822771  0.02099319  0.00000000       0.006
   0.11787325  0.02099319  0.00000000       0.006
   0.00000000  0.04198637  0.00000000       0.003
   0.01964554  0.04198637  0.00000000       0.006
   0.03929108  0.04198637  0.00000000       0.006
   0.05893662  0.04198637  0.00000000       0.006
   0.07858216  0.04198637  0.00000000       0.006
   0.09822771  0.04198637  0.00000000       0.006
   0.11787325  0.04198637  0.00000000       0.006
   0.00000000  0.06297956  0.00000000       0.003
   0.01964554  0.06297956  0.00000000       0.006
   0.03929108  0.06297956  0.00000000       0.006
   0.05893662  0.06297956  0.00000000       0.006
   0.07858216  0.06297956  0.00000000       0.006
   0.09822771  0.06297956  0.00000000       0.006
   0.11787325  0.06297956  0.00000000       0.006
   0.00000000  0.08397274  0.00000000       0.003
   0.01964554  0.08397274  0.00000000       0.006
   0.03929108  0.08397274  0.00000000       0.006
   0.05893662  0.08397274  0.00000000       0.006
   0.07858216  0.08397274  0.00000000       0.006
   0.09822771  0.08397274  0.00000000       0.006
   0.11787325  0.08397274  0.00000000       0.006
   0.00000000  0.10496593  0.00000000       0.003
   0.01964554  0.10496593  0.00000000       0.006
   0.03929108  0.10496593  0.00000000       0.006
   0.05893662  0.10496593  0.00000000       0.006
   0.07858216  0.10496593  0.00000000       0.006
   0.09822771  0.10496593  0.00000000       0.006
   0.11787325  0.10496593  0.00000000       0.006
   0.00000000  0.12595911  0.00000000       0.003
   0.01964554  0.12595911  0.00000000       0.006
   0.03929108  0.12595911  0.00000000       0.006
   0.05893662  0.12595911  0.00000000       0.006
   0.07858216  0.12595911  0.00000000       0.006
   0.09822771  0.12595911  0.00000000       0.006
   0.11787325  0.12595911  0.00000000       0.006
   0.00000000  0.00000000  0.02160742       0.003
   0.01964554  0.00000000  0.02160742       0.006
   0.03929108  0.00000000  0.02160742       0.006
   0.05893662  0.00000000  0.02160742       0.006
   0.07858216  0.00000000  0.02160742       0.006
   0.09822771  0.00000000  0.02160742       0.006
   0.11787325  0.00000000  0.02160742       0.006
   0.00000000  0.02099319  0.02160742       0.006
   0.01964554  0.02099319  0.02160742       0.012
   0.03929108  0.02099319  0.02160742       0.012
   0.05893662  0.02099319  0.02160742       0.012
   0.07858216  0.02099319  0.02160742       0.012
   0.09822771  0.02099319  0.02160742       0.012
   0.11787325  0.02099319  0.02160742       0.012
   0.00000000  0.04198637  0.02160742       0.006
   0.01964554  0.04198637  0.02160742       0.012
   0.03929108  0.04198637  0.02160742       0.012
   0.05893662  0.04198637  0.02160742       0.012
   0.07858216  0.04198637  0.02160742       0.012
   0.09822771  0.04198637  0.02160742       0.012
   0.11787325  0.04198637  0.02160742       0.012
   0.00000000  0.06297956  0.02160742       0.006
   0.01964554  0.06297956  0.02160742       0.012
   0.03929108  0.06297956  0.02160742       0.012
   0.05893662  0.06297956  0.02160742       0.012
   0.07858216  0.06297956  0.02160742       0.012
   0.09822771  0.06297956  0.02160742       0.012
   0.11787325  0.06297956  0.02160742       0.012
   0.00000000  0.08397274  0.02160742       0.006
   0.01964554  0.08397274  0.02160742       0.012
   0.03929108  0.08397274  0.02160742       0.012
   0.05893662  0.08397274  0.02160742       0.012
   0.07858216  0.08397274  0.02160742       0.012
   0.09822771  0.08397274  0.02160742       0.012
   0.11787325  0.08397274  0.02160742       0.012
   0.00000000  0.10496593  0.02160742       0.006
   0.01964554  0.10496593  0.02160742       0.012
   0.03929108  0.10496593  0.02160742       0.012
   0.05893662  0.10496593  0.02160742       0.012
   0.07858216  0.10496593  0.02160742       0.012
   0.09822771  0.10496593  0.02160742       0.012
   0.11787325  0.10496593  0.02160742       0.012
   0.00000000  0.12595911  0.02160742       0.006
   0.01964554  0.12595911  0.02160742       0.012
   0.03929108  0.12595911  0.02160742       0.012
   0.05893662  0.12595911  0.02160742       0.012
   0.07858216  0.12595911  0.02160742       0.012
   0.09822771  0.12595911  0.02160742       0.012
   0.11787325  0.12595911  0.02160742       0.012
   0.00000000  0.00000000  0.04321484       0.001
   0.01964554  0.00000000  0.04321484       0.003
   0.03929108  0.00000000  0.04321484       0.003
   0.05893662  0.00000000  0.04321484       0.003
   0.07858216  0.00000000  0.04321484       0.003
   0.09822771  0.00000000  0.04321484       0.003
   0.11787325  0.00000000  0.04321484       0.003
   0.00000000  0.02099319  0.04321484       0.003
   0.01964554  0.02099319  0.04321484       0.006
   0.03929108  0.02099319  0.04321484       0.006
   0.05893662  0.02099319  0.04321484       0.006
   0.07858216  0.02099319  0.04321484       0.006
   0.09822771  0.02099319  0.04321484       0.006
   0.11787325  0.02099319  0.04321484       0.006
   0.00000000  0.04198637  0.04321484       0.003
   0.01964554  0.04198637  0.04321484       0.006
   0.03929108  0.04198637  0.04321484       0.006
   0.05893662  0.04198637  0.04321484       0.006
   0.07858216  0.04198637  0.04321484       0.006
   0.09822771  0.04198637  0.04321484       0.006
   0.11787325  0.04198637  0.04321484       0.006
   0.00000000  0.06297956  0.04321484       0.003
   0.01964554  0.06297956  0.04321484       0.006
   0.03929108  0.06297956  0.04321484       0.006
   0.05893662  0.06297956  0.04321484       0.006
   0.07858216  0.06297956  0.04321484       0.006
   0.09822771  0.06297956  0.04321484       0.006
   0.11787325  0.06297956  0.04321484       0.006
   0.00000000  0.08397274  0.04321484       0.003
   0.01964554  0.08397274  0.04321484       0.006
   0.03929108  0.08397274  0.04321484       0.006
   0.05893662  0.08397274  0.04321484       0.006
   0.07858216  0.08397274  0.04321484       0.006
   0.09822771  0.08397274  0.04321484       0.006
   0.11787325  0.08397274  0.04321484       0.006
   0.00000000  0.10496593  0.04321484       0.003
   0.01964554  0.10496593  0.04321484       0.006
   0.03929108  0.10496593  0.04321484       0.006
   0.05893662  0.10496593  0.04321484       0.006
   0.07858216  0.10496593  0.04321484       0.006
   0.09822771  0.10496593  0.04321484       0.006
   0.11787325  0.10496593  0.04321484       0.006
   0.00000000  0.12595911  0.04321484       0.003
   0.01964554  0.12595911  0.04321484       0.006
   0.03929108  0.12595911  0.04321484       0.006
   0.05893662  0.12595911  0.04321484       0.006
   0.07858216  0.12595911  0.04321484       0.006
   0.09822771  0.12595911  0.04321484       0.006
   0.11787325  0.12595911  0.04321484       0.006
 
 k-points in reciprocal lattice and weights: pymatgen with grid density = 8800 / numb
   0.00000000  0.00000000  0.00000000       0.001
   0.07692308  0.00000000  0.00000000       0.003
   0.15384615  0.00000000  0.00000000       0.003
   0.23076923  0.00000000  0.00000000       0.003
   0.30769231  0.00000000  0.00000000       0.003
   0.38461538  0.00000000  0.00000000       0.003
   0.46153846  0.00000000  0.00000000       0.003
   0.00000000  0.07692308  0.00000000       0.003
   0.07692308  0.07692308  0.00000000       0.006
   0.15384615  0.07692308  0.00000000       0.006
   0.23076923  0.07692308  0.00000000       0.006
   0.30769231  0.07692308  0.00000000       0.006
   0.38461538  0.07692308  0.00000000       0.006
   0.46153846  0.07692308  0.00000000       0.006
   0.00000000  0.15384615  0.00000000       0.003
   0.07692308  0.15384615  0.00000000       0.006
   0.15384615  0.15384615  0.00000000       0.006
   0.23076923  0.15384615  0.00000000       0.006
   0.30769231  0.15384615  0.00000000       0.006
   0.38461538  0.15384615  0.00000000       0.006
   0.46153846  0.15384615  0.00000000       0.006
   0.00000000  0.23076923  0.00000000       0.003
   0.07692308  0.23076923  0.00000000       0.006
   0.15384615  0.23076923  0.00000000       0.006
   0.23076923  0.23076923  0.00000000       0.006
   0.30769231  0.23076923  0.00000000       0.006
   0.38461538  0.23076923  0.00000000       0.006
   0.46153846  0.23076923  0.00000000       0.006
   0.00000000  0.30769231  0.00000000       0.003
   0.07692308  0.30769231  0.00000000       0.006
   0.15384615  0.30769231  0.00000000       0.006
   0.23076923  0.30769231  0.00000000       0.006
   0.30769231  0.30769231  0.00000000       0.006
   0.38461538  0.30769231  0.00000000       0.006
   0.46153846  0.30769231  0.00000000       0.006
   0.00000000  0.38461538  0.00000000       0.003
   0.07692308  0.38461538  0.00000000       0.006
   0.15384615  0.38461538  0.00000000       0.006
   0.23076923  0.38461538  0.00000000       0.006
   0.30769231  0.38461538  0.00000000       0.006
   0.38461538  0.38461538  0.00000000       0.006
   0.46153846  0.38461538  0.00000000       0.006
   0.00000000  0.46153846  0.00000000       0.003
   0.07692308  0.46153846  0.00000000       0.006
   0.15384615  0.46153846  0.00000000       0.006
   0.23076923  0.46153846  0.00000000       0.006
   0.30769231  0.46153846  0.00000000       0.006
   0.38461538  0.46153846  0.00000000       0.006
   0.46153846  0.46153846  0.00000000       0.006
   0.00000000  0.00000000  0.25000000       0.003
   0.07692308  0.00000000  0.25000000       0.006
   0.15384615  0.00000000  0.25000000       0.006
   0.23076923  0.00000000  0.25000000       0.006
   0.30769231  0.00000000  0.25000000       0.006
   0.38461538  0.00000000  0.25000000       0.006
   0.46153846  0.00000000  0.25000000       0.006
   0.00000000  0.07692308  0.25000000       0.006
   0.07692308  0.07692308  0.25000000       0.012
   0.15384615  0.07692308  0.25000000       0.012
   0.23076923  0.07692308  0.25000000       0.012
   0.30769231  0.07692308  0.25000000       0.012
   0.38461538  0.07692308  0.25000000       0.012
   0.46153846  0.07692308  0.25000000       0.012
   0.00000000  0.15384615  0.25000000       0.006
   0.07692308  0.15384615  0.25000000       0.012
   0.15384615  0.15384615  0.25000000       0.012
   0.23076923  0.15384615  0.25000000       0.012
   0.30769231  0.15384615  0.25000000       0.012
   0.38461538  0.15384615  0.25000000       0.012
   0.46153846  0.15384615  0.25000000       0.012
   0.00000000  0.23076923  0.25000000       0.006
   0.07692308  0.23076923  0.25000000       0.012
   0.15384615  0.23076923  0.25000000       0.012
   0.23076923  0.23076923  0.25000000       0.012
   0.30769231  0.23076923  0.25000000       0.012
   0.38461538  0.23076923  0.25000000       0.012
   0.46153846  0.23076923  0.25000000       0.012
   0.00000000  0.30769231  0.25000000       0.006
   0.07692308  0.30769231  0.25000000       0.012
   0.15384615  0.30769231  0.25000000       0.012
   0.23076923  0.30769231  0.25000000       0.012
   0.30769231  0.30769231  0.25000000       0.012
   0.38461538  0.30769231  0.25000000       0.012
   0.46153846  0.30769231  0.25000000       0.012
   0.00000000  0.38461538  0.25000000       0.006
   0.07692308  0.38461538  0.25000000       0.012
   0.15384615  0.38461538  0.25000000       0.012
   0.23076923  0.38461538  0.25000000       0.012
   0.30769231  0.38461538  0.25000000       0.012
   0.38461538  0.38461538  0.25000000       0.012
   0.46153846  0.38461538  0.25000000       0.012
   0.00000000  0.46153846  0.25000000       0.006
   0.07692308  0.46153846  0.25000000       0.012
   0.15384615  0.46153846  0.25000000       0.012
   0.23076923  0.46153846  0.25000000       0.012
   0.30769231  0.46153846  0.25000000       0.012
   0.38461538  0.46153846  0.25000000       0.012
   0.46153846  0.46153846  0.25000000       0.012
   0.00000000  0.00000000  0.50000000       0.001
   0.07692308  0.00000000  0.50000000       0.003
   0.15384615  0.00000000  0.50000000       0.003
   0.23076923  0.00000000  0.50000000       0.003
   0.30769231  0.00000000  0.50000000       0.003
   0.38461538  0.00000000  0.50000000       0.003
   0.46153846  0.00000000  0.50000000       0.003
   0.00000000  0.07692308  0.50000000       0.003
   0.07692308  0.07692308  0.50000000       0.006
   0.15384615  0.07692308  0.50000000       0.006
   0.23076923  0.07692308  0.50000000       0.006
   0.30769231  0.07692308  0.50000000       0.006
   0.38461538  0.07692308  0.50000000       0.006
   0.46153846  0.07692308  0.50000000       0.006
   0.00000000  0.15384615  0.50000000       0.003
   0.07692308  0.15384615  0.50000000       0.006
   0.15384615  0.15384615  0.50000000       0.006
   0.23076923  0.15384615  0.50000000       0.006
   0.30769231  0.15384615  0.50000000       0.006
   0.38461538  0.15384615  0.50000000       0.006
   0.46153846  0.15384615  0.50000000       0.006
   0.00000000  0.23076923  0.50000000       0.003
   0.07692308  0.23076923  0.50000000       0.006
   0.15384615  0.23076923  0.50000000       0.006
   0.23076923  0.23076923  0.50000000       0.006
   0.30769231  0.23076923  0.50000000       0.006
   0.38461538  0.23076923  0.50000000       0.006
   0.46153846  0.23076923  0.50000000       0.006
   0.00000000  0.30769231  0.50000000       0.003
   0.07692308  0.30769231  0.50000000       0.006
   0.15384615  0.30769231  0.50000000       0.006
   0.23076923  0.30769231  0.50000000       0.006
   0.30769231  0.30769231  0.50000000       0.006
   0.38461538  0.30769231  0.50000000       0.006
   0.46153846  0.30769231  0.50000000       0.006
   0.00000000  0.38461538  0.50000000       0.003
   0.07692308  0.38461538  0.50000000       0.006
   0.15384615  0.38461538  0.50000000       0.006
   0.23076923  0.38461538  0.50000000       0.006
   0.30769231  0.38461538  0.50000000       0.006
   0.38461538  0.38461538  0.50000000       0.006
   0.46153846  0.38461538  0.50000000       0.006
   0.00000000  0.46153846  0.50000000       0.003
   0.07692308  0.46153846  0.50000000       0.006
   0.15384615  0.46153846  0.50000000       0.006
   0.23076923  0.46153846  0.50000000       0.006
   0.30769231  0.46153846  0.50000000       0.006
   0.38461538  0.46153846  0.50000000       0.006
   0.46153846  0.46153846  0.50000000       0.006
 
 position of ions in fractional coordinates (direct lattice) 
   0.00000000  0.50000000  0.16665423
   0.00000000  0.50000000  0.49927069
   0.00000000  0.50000000  0.83407234
   0.50000000  0.50000000  0.00347403
   0.50000000  0.50000000  0.32988513
   0.50000000  0.50000000  0.66664051
   0.50000000  0.00000000  0.16665575
   0.50000000  0.00000000  0.49774588
   0.50000000  0.00000000  0.83560046
   0.00000000  0.00000000  0.00576643
   0.00000000  0.00000000  0.32759593
   0.00000000  0.00000000  0.66663864
 
 position of ions in cartesian coordinates  (Angst):
   0.00000000  1.83209632  1.92820616
   0.00000000  1.83209632  5.77661211
   0.00000000  1.83209632  9.65030091
   1.95777445  1.83209632  0.04019484
   1.95777445  1.83209632  3.81680411
   1.95777445  1.83209632  7.71309777
   1.95777445  0.00000000  1.92822375
   1.95777445  0.00000000  5.75896993
   1.95777445  0.00000000  9.66798138
   0.00000000  0.00000000  0.06671822
   0.00000000  0.00000000  3.79031793
   0.00000000  0.00000000  7.71307615
 


--------------------------------------------------------------------------------------------------------


 k-point     1 :   0.0000 0.0000 0.0000  plane waves:    4457
 k-point     2 :   0.0769 0.0000 0.0000  plane waves:    4479
 k-point     3 :   0.1538 0.0000 0.0000  plane waves:    4477
 k-point     4 :   0.2308 0.0000 0.0000  plane waves:    4485
 k-point     5 :   0.3077 0.0000 0.0000  plane waves:    4472
 k-point     6 :   0.3846 0.0000 0.0000  plane waves:    4474
 k-point     7 :   0.4615 0.0000 0.0000  plane waves:    4450
 k-point     8 :   0.0000 0.0769 0.0000  plane waves:    4461
 k-point     9 :   0.0769 0.0769 0.0000  plane waves:    4465
 k-point    10 :   0.1538 0.0769 0.0000  plane waves:    4478
 k-point    11 :   0.2308 0.0769 0.0000  plane waves:    4473
 k-point    12 :   0.3077 0.0769 0.0000  plane waves:    4477
 k-point    13 :   0.3846 0.0769 0.0000  plane waves:    4471
 k-point    14 :   0.4615 0.0769 0.0000  plane waves:    4463
 k-point    15 :   0.0000 0.1538 0.0000  plane waves:    4453
 k-point    16 :   0.0769 0.1538 0.0000  plane waves:    4465
 k-point    17 :   0.1538 0.1538 0.0000  plane waves:    4454
 k-point    18 :   0.2308 0.1538 0.0000  plane waves:    4459
 k-point    19 :   0.3077 0.1538 0.0000  plane waves:    4472
 k-point    20 :   0.3846 0.1538 0.0000  plane waves:    4468
 k-point    21 :   0.4615 0.1538 0.0000  plane waves:    4476
 k-point    22 :   0.0000 0.2308 0.0000  plane waves:    4452
 k-point    23 :   0.0769 0.2308 0.0000  plane waves:    4451
 k-point    24 :   0.1538 0.2308 0.0000  plane waves:    4465
 k-point    25 :   0.2308 0.2308 0.0000  plane waves:    4460
 k-point    26 :   0.3077 0.2308 0.0000  plane waves:    4469
 k-point    27 :   0.3846 0.2308 0.0000  plane waves:    4479
 k-point    28 :   0.4615 0.2308 0.0000  plane waves:    4476
 k-point    29 :   0.0000 0.3077 0.0000  plane waves:    4474
 k-point    30 :   0.0769 0.3077 0.0000  plane waves:    4478
 k-point    31 :   0.1538 0.3077 0.0000  plane waves:    4479
 k-point    32 :   0.2308 0.3077 0.0000  plane waves:    4467
 k-point    33 :   0.3077 0.3077 0.0000  plane waves:    4469
 k-point    34 :   0.3846 0.3077 0.0000  plane waves:    4463
 k-point    35 :   0.4615 0.3077 0.0000  plane waves:    4472
 k-point    36 :   0.0000 0.3846 0.0000  plane waves:    4480
 k-point    37 :   0.0769 0.3846 0.0000  plane waves:    4493
 k-point    38 :   0.1538 0.3846 0.0000  plane waves:    4475
 k-point    39 :   0.2308 0.3846 0.0000  plane waves:    4481
 k-point    40 :   0.3077 0.3846 0.0000  plane waves:    4479
 k-point    41 :   0.3846 0.3846 0.0000  plane waves:    4467
 k-point    42 :   0.4615 0.3846 0.0000  plane waves:    4464
 k-point    43 :   0.0000 0.4615 0.0000  plane waves:    4518
 k-point    44 :   0.0769 0.4615 0.0000  plane waves:    4503
 k-point    45 :   0.1538 0.4615 0.0000  plane waves:    4489
 k-point    46 :   0.2308 0.4615 0.0000  plane waves:    4473
 k-point    47 :   0.3077 0.4615 0.0000  plane waves:    4450
 k-point    48 :   0.3846 0.4615 0.0000  plane waves:    4458
 k-point    49 :   0.4615 0.4615 0.0000  plane waves:    4459
 k-point    50 :   0.0000 0.0000 0.2500  plane waves:    4457
 k-point    51 :   0.0769 0.0000 0.2500  plane waves:    4464
 k-point    52 :   0.1538 0.0000 0.2500  plane waves:    4472
 k-point    53 :   0.2308 0.0000 0.2500  plane waves:    4466
 k-point    54 :   0.3077 0.0000 0.2500  plane waves:    4470
 k-point    55 :   0.3846 0.0000 0.2500  plane waves:    4474
 k-point    56 :   0.4615 0.0000 0.2500  plane waves:    4461
 k-point    57 :   0.0000 0.0769 0.2500  plane waves:    4453
 k-point    58 :   0.0769 0.0769 0.2500  plane waves:    4457
 k-point    59 :   0.1538 0.0769 0.2500  plane waves:    4471
 k-point    60 :   0.2308 0.0769 0.2500  plane waves:    4471
 k-point    61 :   0.3077 0.0769 0.2500  plane waves:    4463
 k-point    62 :   0.3846 0.0769 0.2500  plane waves:    4469
 k-point    63 :   0.4615 0.0769 0.2500  plane waves:    4473
 k-point    64 :   0.0000 0.1538 0.2500  plane waves:    4459
 k-point    65 :   0.0769 0.1538 0.2500  plane waves:    4464
 k-point    66 :   0.1538 0.1538 0.2500  plane waves:    4461
 k-point    67 :   0.2308 0.1538 0.2500  plane waves:    4451
 k-point    68 :   0.3077 0.1538 0.2500  plane waves:    4465
 k-point    69 :   0.3846 0.1538 0.2500  plane waves:    4472
 k-point    70 :   0.4615 0.1538 0.2500  plane waves:    4470
 k-point    71 :   0.0000 0.2308 0.2500  plane waves:    4462
 k-point    72 :   0.0769 0.2308 0.2500  plane waves:    4456
 k-point    73 :   0.1538 0.2308 0.2500  plane waves:    4468
 k-point    74 :   0.2308 0.2308 0.2500  plane waves:    4462
 k-point    75 :   0.3077 0.2308 0.2500  plane waves:    4463
 k-point    76 :   0.3846 0.2308 0.2500  plane waves:    4472
 k-point    77 :   0.4615 0.2308 0.2500  plane waves:    4480
 k-point    78 :   0.0000 0.3077 0.2500  plane waves:    4477
 k-point    79 :   0.0769 0.3077 0.2500  plane waves:    4487
 k-point    80 :   0.1538 0.3077 0.2500  plane waves:    4470
 k-point    81 :   0.2308 0.3077 0.2500  plane waves:    4475
 k-point    82 :   0.3077 0.3077 0.2500  plane waves:    4457
 k-point    83 :   0.3846 0.3077 0.2500  plane waves:    4464
 k-point    84 :   0.4615 0.3077 0.2500  plane waves:    4472
 k-point    85 :   0.0000 0.3846 0.2500  plane waves:    4499
 k-point    86 :   0.0769 0.3846 0.2500  plane waves:    4489
 k-point    87 :   0.1538 0.3846 0.2500  plane waves:    4478
 k-point    88 :   0.2308 0.3846 0.2500  plane waves:    4468
 k-point    89 :   0.3077 0.3846 0.2500  plane waves:    4472
 k-point    90 :   0.3846 0.3846 0.2500  plane waves:    4470
 k-point    91 :   0.4615 0.3846 0.2500  plane waves:    4469
 k-point    92 :   0.0000 0.4615 0.2500  plane waves:    4506
 k-point    93 :   0.0769 0.4615 0.2500  plane waves:    4500
 k-point    94 :   0.1538 0.4615 0.2500  plane waves:    4485
 k-point    95 :   0.2308 0.4615 0.2500  plane waves:    4477
 k-point    96 :   0.3077 0.4615 0.2500  plane waves:    4474
 k-point    97 :   0.3846 0.4615 0.2500  plane waves:    4468
 k-point    98 :   0.4615 0.4615 0.2500  plane waves:    4465
 k-point    99 :   0.0000 0.0000 0.5000  plane waves:    4432
 k-point   100 :   0.0769 0.0000 0.5000  plane waves:    4446
 k-point   101 :   0.1538 0.0000 0.5000  plane waves:    4478
 k-point   102 :   0.2308 0.0000 0.5000  plane waves:    4476
 k-point   103 :   0.3077 0.0000 0.5000  plane waves:    4464
 k-point   104 :   0.3846 0.0000 0.5000  plane waves:    4462
 k-point   105 :   0.4615 0.0000 0.5000  plane waves:    4474
 k-point   106 :   0.0000 0.0769 0.5000  plane waves:    4452
 k-point   107 :   0.0769 0.0769 0.5000  plane waves:    4452
 k-point   108 :   0.1538 0.0769 0.5000  plane waves:    4456
 k-point   109 :   0.2308 0.0769 0.5000  plane waves:    4458
 k-point   110 :   0.3077 0.0769 0.5000  plane waves:    4456
 k-point   111 :   0.3846 0.0769 0.5000  plane waves:    4460
 k-point   112 :   0.4615 0.0769 0.5000  plane waves:    4484
 k-point   113 :   0.0000 0.1538 0.5000  plane waves:    4476
 k-point   114 :   0.0769 0.1538 0.5000  plane waves:    4460
 k-point   115 :   0.1538 0.1538 0.5000  plane waves:    4464
 k-point   116 :   0.2308 0.1538 0.5000  plane waves:    4454
 k-point   117 :   0.3077 0.1538 0.5000  plane waves:    4458
 k-point   118 :   0.3846 0.1538 0.5000  plane waves:    4460
 k-point   119 :   0.4615 0.1538 0.5000  plane waves:    4468
 k-point   120 :   0.0000 0.2308 0.5000  plane waves:    4472
 k-point   121 :   0.0769 0.2308 0.5000  plane waves:    4462
 k-point   122 :   0.1538 0.2308 0.5000  plane waves:    4456
 k-point   123 :   0.2308 0.2308 0.5000  plane waves:    4466
 k-point   124 :   0.3077 0.2308 0.5000  plane waves:    4454
 k-point   125 :   0.3846 0.2308 0.5000  plane waves:    4478
 k-point   126 :   0.4615 0.2308 0.5000  plane waves:    4476
 k-point   127 :   0.0000 0.3077 0.5000  plane waves:    4486
 k-point   128 :   0.0769 0.3077 0.5000  plane waves:    4478
 k-point   129 :   0.1538 0.3077 0.5000  plane waves:    4464
 k-point   130 :   0.2308 0.3077 0.5000  plane waves:    4464
 k-point   131 :   0.3077 0.3077 0.5000  plane waves:    4464
 k-point   132 :   0.3846 0.3077 0.5000  plane waves:    4476
 k-point   133 :   0.4615 0.3077 0.5000  plane waves:    4474
 k-point   134 :   0.0000 0.3846 0.5000  plane waves:    4506
 k-point   135 :   0.0769 0.3846 0.5000  plane waves:    4494
 k-point   136 :   0.1538 0.3846 0.5000  plane waves:    4474
 k-point   137 :   0.2308 0.3846 0.5000  plane waves:    4460
 k-point   138 :   0.3077 0.3846 0.5000  plane waves:    4462
 k-point   139 :   0.3846 0.3846 0.5000  plane waves:    4468
 k-point   140 :   0.4615 0.3846 0.5000  plane waves:    4458
 k-point   141 :   0.0000 0.4615 0.5000  plane waves:    4496
 k-point   142 :   0.0769 0.4615 0.5000  plane waves:    4498
 k-point   143 :   0.1538 0.4615 0.5000  plane waves:    4488
 k-point   144 :   0.2308 0.4615 0.5000  plane waves:    4476
 k-point   145 :   0.3077 0.4615 0.5000  plane waves:    4466
 k-point   146 :   0.3846 0.4615 0.5000  plane waves:    4464
 k-point   147 :   0.4615 0.4615 0.5000  plane waves:    4456

 maximum and minimum number of plane-waves per node :      4518     4432

 maximum number of plane-waves:      4518
 maximum index in each direction: 
   IXMAX=    7   IYMAX=    6   IZMAX=   21
   IXMIN=   -7   IYMIN=   -7   IZMIN=  -22


 serial   3D FFT for wavefunctions
 parallel 3D FFT for charge:
    minimum data exchange during FFTs selected (reduces bandwidth)


 total amount of memory used by VASP MPI-rank0   322022. kBytes
=======================================================================

   base      :      30000. kBytes
   nonl-proj :     193247. kBytes
   fftplans  :        986. kBytes
   grid      :       7702. kBytes
   one-center:        373. kBytes
   wavefun   :      89714. kBytes
 
     INWAV:  cpu time      0.0000: real time      0.0000
 Broyden mixing: mesh for mixing (old mesh)
   NGX = 15   NGY = 13   NGZ = 43
  (NGX  = 60   NGY  = 56   NGZ  =180)
  gives a total of   8385 points

 initial charge density was supplied:
 charge density of overlapping atoms calculated
 number of electron     156.0000000 magnetization      20.1310000
 keeping initial charge density in first step


--------------------------------------------------------------------------------------------------------


 Maximum index for augmentation-charges         1093 (set IRDMAX)


--------------------------------------------------------------------------------------------------------


 First call to EWALD:  gamma=   0.323
 Maximum number of real-space cells 4x 4x 2
 Maximum number of reciprocal cells 2x 2x 5

    FEWALD:  cpu time      0.0025: real time      0.0025


--------------------------------------- Ionic step        1  -------------------------------------------




--------------------------------------- Iteration      1(   1)  ---------------------------------------


    POTLOK:  cpu time      0.0494: real time      0.0520
    SETDIJ:  cpu time      0.0180: real time      0.0185
     EDDAV:  cpu time     11.4423: real time     11.5294
 BZINTS: Fermi energy:   22.330378;  156.000000 electrons
         Band energy: 0.416501E+03;  BLOECHL correction:   -0.061431
       DOS:  cpu time      0.2305: real time      0.2332
    --------------------------------------------
      LOOP:  cpu time     11.7402: real time     11.8331

 eigenvalue-minimisations  : 75264
 total energy-change (2. order) : 0.1773158E+04  (-0.8506669E+04)
 number of electron     156.0000000 magnetization      20.1310000
 augmentation part      156.0000000 magnetization      20.1310000

 Free energy of the ion-electron system (eV)
  ---------------------------------------------------
  alpha Z        PSCENC =      1025.24174436
  Ewald energy   TEWEN  =    -17709.46198107
  -Hartree energ DENC   =     -6194.21749979
  -exchange      EXHF   =         0.00000000
  -V(xc)+E(xc)   XCENC  =       654.88234886
  PAW double counting   =     20093.59594906   -20817.48615490
  entropy T*S    EENTRO =         0.00000000
  eigenvalues    EBANDS =       416.50065452
  atomic energy  EATOM  =     24304.10294433
  Solvation  Ediel_sol  =         0.00000000
  ---------------------------------------------------
  free energy    TOTEN  =      1773.15800537 eV

  energy without entropy =     1773.15800537  energy(sigma->0) =     1773.15800537


--------------------------------------------------------------------------------------------------------




--------------------------------------- Iteration      1(   2)  ---------------------------------------


     EDDAV:  cpu time     11.2867: real time     11.3771
 BZINTS: Fermi energy:   11.392302;  156.000000 electrons
         Band energy:-0.135056E+04;  BLOECHL correction:   -0.019822
       DOS:  cpu time      0.2323: real time      0.2351
    --------------------------------------------
      LOOP:  cpu time     11.5190: real time     11.6122

 eigenvalue-minimisations  : 75296
 total energy-change (2. order) :-0.1767064E+04  (-0.1676159E+04)
 number of electron     156.0000000 magnetization      20.1310000
 augmentation part      156.0000000 magnetization      20.1310000

 Free energy of the ion-electron system (eV)
  ---------------------------------------------------
  alpha Z        PSCENC =      1025.24174436
  Ewald energy   TEWEN  =    -17709.46198107
  -Hartree energ DENC   =     -6194.21749979
  -exchange      EXHF   =         0.00000000
  -V(xc)+E(xc)   XCENC  =       654.88234886
  PAW double counting   =     20093.59594906   -20817.48615490
  entropy T*S    EENTRO =         0.00000000
  eigenvalues    EBANDS =     -1350.56303979
  atomic energy  EATOM  =     24304.10294433
  Solvation  Ediel_sol  =         0.00000000
  ---------------------------------------------------
  free energy    TOTEN  =         6.09431106 eV

  energy without entropy =        6.09431106  energy(sigma->0) =        6.09431106


--------------------------------------------------------------------------------------------------------




--------------------------------------- Iteration      1(   3)  ---------------------------------------


     EDDAV:  cpu time     13.5573: real time     13.6627
 BZINTS: Fermi energy:   10.809657;  156.000000 electrons
         Band energy:-0.145958E+04;  BLOECHL correction:   -0.024677
       DOS:  cpu time      0.2316: real time      0.2336
    --------------------------------------------
      LOOP:  cpu time     13.7889: real time     13.8962

 eigenvalue-minimisations  : 88576
 total energy-change (2. order) :-0.1090196E+03  (-0.1074216E+03)
 number of electron     156.0000000 magnetization      20.1310000
 augmentation part      156.0000000 magnetization      20.1310000

 Free energy of the ion-electron system (eV)
  ---------------------------------------------------
  alpha Z        PSCENC =      1025.24174436
  Ewald energy   TEWEN  =    -17709.46198107
  -Hartree energ DENC   =     -6194.21749979
  -exchange      EXHF   =         0.00000000
  -V(xc)+E(xc)   XCENC  =       654.88234886
  PAW double counting   =     20093.59594906   -20817.48615490
  entropy T*S    EENTRO =         0.00000000
  eigenvalues    EBANDS =     -1459.58264143
  atomic energy  EATOM  =     24304.10294433
  Solvation  Ediel_sol  =         0.00000000
  ---------------------------------------------------
  free energy    TOTEN  =      -102.92529058 eV

  energy without entropy =     -102.92529058  energy(sigma->0) =     -102.92529058


--------------------------------------------------------------------------------------------------------




--------------------------------------- Iteration      1(   4)  ---------------------------------------


     EDDAV:  cpu time     11.7810: real time     11.8765
 BZINTS: Fermi energy:   10.804651;  156.000000 electrons
         Band energy:-0.146123E+04;  BLOECHL correction:   -0.024762
       DOS:  cpu time      0.2297: real time      0.2317
    --------------------------------------------
      LOOP:  cpu time     12.0106: real time     12.1082

 eigenvalue-minimisations  : 79616
 total energy-change (2. order) :-0.1647526E+01  (-0.1647078E+01)
 number of electron     156.0000000 magnetization      20.1310000
 augmentation part      156.0000000 magnetization      20.1310000

 Free energy of the ion-electron system (eV)
  ---------------------------------------------------
  alpha Z        PSCENC =      1025.24174436
  Ewald energy   TEWEN  =    -17709.46198107
  -Hartree energ DENC   =     -6194.21749979
  -exchange      EXHF   =         0.00000000
  -V(xc)+E(xc)   XCENC  =       654.88234886
  PAW double counting   =     20093.59594906   -20817.48615490
  entropy T*S    EENTRO =         0.00000000
  eigenvalues    EBANDS =     -1461.23016742
  atomic energy  EATOM  =     24304.10294433
  Solvation  Ediel_sol  =         0.00000000
  ---------------------------------------------------
  free energy    TOTEN  =      -104.57281657 eV

  energy without entropy =     -104.57281657  energy(sigma->0) =     -104.57281657


--------------------------------------------------------------------------------------------------------




--------------------------------------- Iteration      1(   5)  ---------------------------------------


     EDDAV:  cpu time     14.2680: real time     14.3772
 BZINTS: Fermi energy:   10.804603;  156.000000 electrons
         Band energy:-0.146126E+04;  BLOECHL correction:   -0.024762
       DOS:  cpu time      0.2309: real time      0.2333
    CHARGE:  cpu time      0.3182: real time      0.3228
    MIXING:  cpu time      0.0075: real time      0.0080
    --------------------------------------------
      LOOP:  cpu time     14.8246: real time     14.9413

 eigenvalue-minimisations  : 92992
 total energy-change (2. order) :-0.3399785E-01  (-0.3399619E-01)
 number of electron     155.9999938 magnetization      19.6079287
 augmentation part       79.3093501 magnetization      14.1350014

 Broyden mixing:
  rms(total) = 0.36520E+01    rms(broyden)= 0.36516E+01
  rms(prec ) = 0.42086E+01
  weight for this iteration     100.00

 Free energy of the ion-electron system (eV)
  ---------------------------------------------------
  alpha Z        PSCENC =      1025.24174436
  Ewald energy   TEWEN  =    -17709.46198107
  -Hartree energ DENC   =     -6194.21749979
  -exchange      EXHF   =         0.00000000
  -V(xc)+E(xc)   XCENC  =       654.88234886
  PAW double counting   =     20093.59594906   -20817.48615490
  entropy T*S    EENTRO =         0.00000000
  eigenvalues    EBANDS =     -1461.26416527
  atomic energy  EATOM  =     24304.10294433
  Solvation  Ediel_sol  =         0.00000000
  ---------------------------------------------------
  free energy    TOTEN  =      -104.60681442 eV

  energy without entropy =     -104.60681442  energy(sigma->0) =     -104.60681442


--------------------------------------------------------------------------------------------------------




--------------------------------------- Iteration      1(   6)  ---------------------------------------


    POTLOK:  cpu time      0.0454: real time      0.0462
    SETDIJ:  cpu time      0.0083: real time      0.0083
     EDDAV:  cpu time     13.7226: real time     13.8175
 BZINTS: Fermi energy:    8.228350;  156.000000 electrons
         Band energy:-0.191707E+04;  BLOECHL correction:   -0.021296
       DOS:  cpu time      0.2385: real time      0.2411
    CHARGE:  cpu time      0.2740: real time      0.2757
    MIXING:  cpu time      0.0039: real time      0.0039
    --------------------------------------------
      LOOP:  cpu time     14.2926: real time     14.3927

 eigenvalue-minimisations  : 89504
 total energy-change (2. order) :-0.1135706E+02  (-0.1918103E+02)
[...]
    113      22.6630      0.00000
    114      23.0351      0.00000
    115      23.3155      0.00000
    116      23.4361      0.00000
    117      23.6148      0.00000
    118      24.1547      0.00000
    119      24.4144      0.00000
    120      25.9417      0.00000
    121      25.9651      0.00000
    122      26.1206      0.00000
    123      26.2853      0.00000
    124      26.4995      0.00000
    125      26.7137      0.00000
    126      27.7096      0.00000
    127      27.7774      0.00000
    128      27.9230      0.00000


--------------------------------------------------------------------------------------------------------


 soft charge-density along one line, spin component           1
         0         1         2         3         4         5         6         7         8         9
 total charge-density along one line
 
 soft charge-density along one line, spin component           2
         0         1         2         3         4         5         6         7         8         9
 total charge-density along one line
 
 pseudopotential strength for first ion, spin component:           1
-43.883   0.000   0.000   7.155  -0.000  -0.000  -0.000   0.000
  0.000 -43.929  -0.000  -0.000   7.173   0.000   0.000   0.000
  0.000  -0.000 -43.873  -0.000   0.000   7.152   0.000   0.000
  7.155  -0.000  -0.000   5.787  -0.000  -0.000   0.000  -0.000
 -0.000   7.173   0.000  -0.000   5.782   0.000  -0.000  -0.000
 -0.000   0.000   7.152  -0.000   0.000   5.787  -0.000  -0.000
 -0.000   0.000   0.000   0.000  -0.000  -0.000  -1.252  -0.000
  0.000   0.000   0.000  -0.000  -0.000  -0.000  -0.000  -1.309
 -0.000   0.000   0.000   0.000  -0.000  -0.000  -0.000   0.000
  0.000  -0.000   0.000  -0.000   0.000  -0.000   0.000   0.000
 -0.000  -0.000  -0.000   0.000  -0.000   0.000   0.000  -0.000
 -0.000   0.000   0.000   0.000  -0.000  -0.000  -1.779  -0.000
  0.000   0.000   0.000  -0.000  -0.000  -0.000  -0.000  -1.835
 -0.000   0.000   0.000   0.000  -0.000  -0.000  -0.000   0.000
  0.000  -0.000   0.000  -0.000   0.000  -0.000   0.000   0.000
 -0.000  -0.000  -0.000   0.000  -0.000   0.000   0.000  -0.000
 -0.000  -0.000   0.000  -0.000  -0.000   0.000  -0.000  -0.000
 -0.000  -0.000   0.000  -0.000  -0.000   0.000  -0.000  -0.000
 pseudopotential strength for first ion, spin component:           2
-46.077   0.000   0.000   8.076  -0.000  -0.000  -0.000   0.000
  0.000 -46.205  -0.000  -0.000   8.127   0.000  -0.000   0.000
  0.000  -0.000 -46.016  -0.000   0.000   8.051   0.000  -0.000
  8.076  -0.000  -0.000   5.521  -0.000  -0.000   0.000  -0.000
 -0.000   8.127   0.000  -0.000   5.508   0.000   0.000  -0.000
 -0.000   0.000   8.051  -0.000   0.000   5.527  -0.000   0.000
 -0.000  -0.000   0.000   0.000   0.000  -0.000  -2.913  -0.000
  0.000   0.000  -0.000  -0.000  -0.000   0.000  -0.000  -3.019
 -0.000   0.000   0.000   0.000  -0.000  -0.000  -0.000  -0.000
 -0.000  -0.000   0.000   0.000   0.000  -0.000   0.000  -0.000
 -0.000  -0.000  -0.000   0.000   0.000   0.000  -0.000   0.000
 -0.000  -0.000   0.000   0.000   0.000  -0.000  -3.413  -0.000
  0.000   0.000  -0.000  -0.000  -0.000   0.000  -0.000  -3.517
 -0.000   0.000   0.000   0.000  -0.000  -0.000  -0.000  -0.000
 -0.000  -0.000   0.000   0.000   0.000  -0.000   0.000  -0.000
 -0.000  -0.000  -0.000   0.000   0.000   0.000  -0.000   0.000
 -0.000  -0.000   0.000  -0.000  -0.000   0.000  -0.000  -0.000
 -0.000  -0.000  -0.000  -0.000  -0.000   0.000  -0.000  -0.000
 total augmentation occupancy for first ion, spin component:           1
  1.991   0.000   0.000  -0.030   0.000   0.000   0.000   0.000   0.000   0.000   0.000   0.000  -0.000   0.000   0.000   0.000
  0.000   1.991   0.000   0.000  -0.031   0.000   0.000   0.000  -0.000   0.000  -0.000   0.000   0.000   0.000   0.000   0.000
  0.000   0.000   1.991   0.000   0.000  -0.030   0.000   0.000   0.000   0.000   0.000   0.000   0.000   0.000  -0.000   0.000
 -0.030   0.000   0.000   0.188   0.000   0.000   0.000   0.000   0.000   0.000   0.000   0.000  -0.000   0.000   0.000   0.000
  0.000  -0.031   0.000   0.000   0.189   0.000   0.000   0.000   0.000   0.000  -0.000   0.000   0.000  -0.000   0.000   0.000
  0.000   0.000  -0.030   0.000   0.000   0.164   0.000   0.000   0.000   0.000   0.000   0.000   0.000   0.000  -0.000   0.000
  0.000   0.000   0.000   0.000   0.000   0.000   2.830   0.000   0.000   0.000   0.000  -1.350   0.000   0.000   0.000   0.000
  0.000   0.000   0.000   0.000   0.000   0.000   0.000   2.863   0.000   0.000   0.000   0.000  -1.758   0.000   0.000   0.000
  0.000  -0.000   0.000   0.000   0.000   0.000   0.000   0.000   3.358   0.000   0.313   0.000   0.000  -1.859   0.000  -0.263
  0.000   0.000   0.000   0.000   0.000   0.000   0.000   0.000   0.000   2.821   0.000   0.000   0.000   0.000  -1.497   0.000
  0.000  -0.000   0.000   0.000  -0.000   0.000   0.000   0.000   0.313   0.000   3.097   0.000   0.000  -0.258   0.000  -1.722
  0.000   0.000   0.000   0.000   0.000   0.000  -1.350   0.000   0.000   0.000   0.000   1.339   0.000   0.000   0.000   0.000
 -0.000   0.000   0.000  -0.000   0.000   0.000   0.000  -1.758   0.000   0.000   0.000   0.000   2.007   0.000   0.000   0.000
  0.000   0.000   0.000   0.000  -0.000   0.000   0.000   0.000  -1.859   0.000  -0.258   0.000   0.000   1.635   0.000   0.156
  0.000   0.000  -0.000   0.000   0.000  -0.000   0.000   0.000   0.000  -1.497   0.000   0.000   0.000   0.000   1.448   0.000
  0.000   0.000   0.000   0.000   0.000   0.000   0.000   0.000  -0.263   0.000  -1.722   0.000   0.000   0.156   0.000   1.577
  0.000   0.000   0.000   0.000  -0.000   0.000   0.000   0.000  -0.130   0.000   0.169   0.000   0.000   0.107   0.000  -0.162
  0.000  -0.000   0.000   0.000   0.000   0.000   0.000   0.000   0.012   0.000  -0.007   0.000   0.000  -0.007   0.000   0.007
 total augmentation occupancy for first ion, spin component:           2
  0.002   0.000   0.000   0.007   0.000   0.000   0.000   0.000   0.000   0.000   0.000   0.000  -0.000   0.000   0.000   0.000
  0.000   0.002   0.000   0.000   0.007   0.000   0.000   0.000  -0.000   0.000  -0.000   0.000   0.000   0.000   0.000   0.000
  0.000   0.000   0.002   0.000   0.000   0.007   0.000   0.000   0.000   0.000   0.000   0.000   0.000   0.000  -0.000   0.000
  0.007   0.000   0.000  -0.029   0.000   0.000   0.000  -0.000   0.000   0.000   0.000   0.000   0.000   0.000   0.000   0.000
  0.000   0.007   0.000   0.000  -0.028   0.000   0.000   0.000   0.000   0.000   0.000   0.000   0.000  -0.000   0.000  -0.000
  0.000   0.000   0.007   0.000   0.000  -0.037   0.000   0.000   0.000  -0.000   0.000   0.000   0.000   0.000  -0.000   0.000
  0.000   0.000   0.000   0.000   0.000   0.000  -1.441   0.000   0.000   0.000   0.000   0.491   0.000   0.000   0.000   0.000
  0.000   0.000   0.000  -0.000   0.000   0.000   0.000  -1.850   0.000   0.000   0.000   0.000   0.725   0.000   0.000   0.000
  0.000  -0.000   0.000   0.000   0.000   0.000   0.000   0.000  -2.572   0.000  -0.364   0.000   0.000   1.092   0.000   0.176
  0.000   0.000   0.000   0.000   0.000  -0.000   0.000   0.000   0.000  -2.115   0.000   0.000   0.000   0.000   0.778   0.000
  0.000  -0.000   0.000   0.000   0.000   0.000   0.000   0.000  -0.364   0.000  -2.462   0.000   0.000   0.181   0.000   1.027
  0.000   0.000   0.000   0.000   0.000   0.000   0.491   0.000   0.000   0.000   0.000   0.022   0.000   0.000   0.000   0.000
 -0.000   0.000   0.000   0.000   0.000   0.000   0.000   0.725   0.000   0.000   0.000   0.000  -0.077   0.000   0.000   0.000
  0.000   0.000   0.000   0.000  -0.000   0.000   0.000   0.000   1.092   0.000   0.181   0.000   0.000  -0.354   0.000  -0.103
  0.000   0.000  -0.000   0.000   0.000  -0.000   0.000   0.000   0.000   0.778   0.000   0.000   0.000   0.000  -0.118   0.000
  0.000   0.000   0.000   0.000  -0.000   0.000   0.000   0.000   0.176   0.000   1.027   0.000   0.000  -0.103   0.000  -0.334
  0.000   0.000   0.000   0.000  -0.000   0.000   0.000   0.000   0.022   0.000  -0.014   0.000   0.000   0.003   0.000  -0.014
  0.000  -0.000   0.000   0.000   0.000   0.000   0.000   0.000  -0.009   0.000   0.001   0.000   0.000   0.003   0.000   0.000


------------------------ aborting loop because EDIFF is reached ----------------------------------------





 total charge

# of ion       s       p       d       tot
------------------------------------------
    1        0.351   6.335   5.945  12.631
    2        0.331   6.287   5.974  12.592
    3        0.331   6.287   5.974  12.592
    4        0.334   6.300   5.983  12.617
    5        0.334   6.300   5.983  12.617
    6        0.331   6.291   5.973  12.595
    7        0.336   6.304   6.011  12.651
    8        0.322   6.281   5.990  12.592
    9        0.322   6.281   5.989  12.592
   10        0.735   0.645   7.992   9.372
   11        0.735   0.645   7.992   9.372
   12        0.727   0.625   8.007   9.359
--------------------------------------------------
tot          5.189  58.580  77.813 141.582



 magnetization (x)

# of ion       s       p       d       tot
------------------------------------------
    1       -0.039  -0.061  -2.606  -2.705
    2        0.007  -0.018   2.933   2.922
    3        0.007  -0.018   2.933   2.923
    4        0.008   0.003   2.708   2.719
    5        0.008   0.003   2.709   2.720
    6        0.002  -0.016   2.892   2.879
    7        0.013   0.011   2.494   2.519
    8       -0.002  -0.012   2.809   2.796
    9       -0.002  -0.012   2.810   2.796
   10       -0.027  -0.063   0.220   0.129
   11       -0.027  -0.063   0.220   0.130
   12       -0.041  -0.102   0.449   0.307
--------------------------------------------------
tot         -0.093  -0.344  20.571  20.134
 
    CHARGE:  cpu time      0.2696: real time      0.2718
    FORLOC:  cpu time      0.0015: real time      0.0015
    FORNL :  cpu time      1.3513: real time      1.3577
    STRESS:  cpu time      8.2223: real time      8.2887
    FORCOR:  cpu time      0.0218: real time      0.0220
    FORHAR:  cpu time      0.0029: real time      0.0030
    MIXING:  cpu time      0.0031: real time      0.0031
    OFIELD:  cpu time      0.0019: real time      0.0019

  FORCE on cell =-STRESS in cart. coord.  units (eV):
  Direction    XX          YY          ZZ          XY          YZ          ZX
  --------------------------------------------------------------------------------------
  Alpha Z  1025.24174  1025.24174  1025.24174
  Ewald   -5923.47731 -5865.81286 -5920.19426     0.00000     0.00000     0.00000
  Hartree  1933.55675  1975.17931  1931.90438    -0.00000    -0.00000    -0.00000
  E(xc)    -941.96900  -942.07300  -941.98525     0.00000     0.00000    -0.00000
  Local     999.53130   894.40731   993.98530     0.00000    -0.00000     0.00000
  n-local  -232.26553  -229.85987  -230.14874    12.89934     0.11098     0.07661
  augment  1439.29637  1442.75904  1441.04417     0.00000    -0.00000    -0.00000
  Kinetic  1689.28587  1689.20662  1689.21897     5.85026    -0.07223    -0.35857
  Fock        0.00000     0.00000     0.00000     0.00000     0.00000     0.00000
  -------------------------------------------------------------------------------------
  Total     -10.79982   -10.95171   -10.93368     0.00000     0.00000     0.00000
  in kB    -104.23626  -105.70229  -105.52823     0.00000     0.00000     0.00000
  external pressure =     -105.16 kB  Pullay stress =        0.00 kB


 VOLUME and BASIS-vectors are now :
 -----------------------------------------------------------------------------
  energy-cutoff  :      520.00
  volume of cell :      166.00
      direct lattice vectors                 reciprocal lattice vectors
     3.915548902  0.000000000  0.000000000     0.255392034  0.000000000  0.000000000
     0.000000000  3.664192645  0.000000000     0.000000000  0.272911415  0.000000000
     0.000000000  0.000000000 11.570100652     0.000000000  0.000000000  0.086429672

  length of vectors
     3.915548902  3.664192645 11.570100652     0.255392034  0.272911415  0.086429672


 FORCES acting on ions
    electron-ion (+dipol)            ewald-force                    non-local-force                 convergence-correction
 -----------------------------------------------------------------------------------------------
   -.345E-13 0.117E-11 -.206E+00   -.221E-13 -.369E-13 0.213E+00   -.614E-22 0.115E-22 0.221E-02   -.149E-12 -.204E-13 -.720E-02
   -.315E-13 0.319E-12 -.401E+02   -.654E-13 -.145E-13 0.402E+02   -.790E-19 -.295E-18 -.115E+00   -.143E-12 -.210E-13 0.167E-01
   -.353E-13 0.268E-11 0.403E+02   -.115E-13 0.191E-13 -.404E+02   0.619E-19 -.881E-18 0.112E+00   -.158E-12 -.324E-14 -.965E-02
   0.642E-12 -.436E-11 0.990E+02   0.258E-13 -.116E-13 -.996E+02   0.485E-18 -.697E-18 0.521E+00   0.246E-12 -.270E-14 0.253E-01
   0.668E-12 -.472E-11 -.984E+02   0.298E-13 -.452E-13 0.990E+02   -.567E-18 0.256E-18 -.524E+00   0.252E-12 -.524E-14 -.304E-01
   0.651E-12 -.347E-11 -.608E+00   0.881E-13 0.218E-13 0.601E+00   0.194E-20 -.251E-21 0.223E-02   0.239E-12 0.399E-14 0.503E-02
   0.663E-12 -.664E-13 -.209E+00   0.210E-13 0.223E-13 0.215E+00   0.226E-22 -.207E-21 0.211E-02   0.277E-12 0.239E-14 -.660E-02
   0.664E-12 -.441E-12 -.473E+02   0.172E-13 0.784E-15 0.477E+02   -.178E-19 -.489E-20 -.456E+00   0.268E-12 0.864E-15 0.150E-01
   0.669E-12 0.685E-13 0.475E+02   0.309E-13 -.724E-14 -.479E+02   0.152E-18 -.308E-20 0.454E+00   0.266E-12 0.364E-14 -.870E-02
   -.216E-13 -.439E-12 0.811E+02   -.441E-13 -.192E-13 -.811E+02   -.362E-20 0.287E-18 0.357E-01   -.892E-13 0.667E-14 0.124E-01
   -.176E-13 -.130E-12 -.806E+02   -.382E-13 0.534E-13 0.807E+02   -.248E-19 -.365E-18 -.406E-01   -.802E-13 0.640E-15 -.166E-01
   -.190E-13 -.367E-13 -.437E+00   -.726E-13 0.121E-13 0.432E+00   -.992E-21 -.562E-21 0.488E-02   -.866E-13 0.233E-14 0.379E-02
 -----------------------------------------------------------------------------------------------
   0.380E-11 -.943E-11 0.182E-02   -.410E-13 -.511E-14 -.142E-13   0.786E-20 -.170E-17 -.106E-02   0.842E-12 -.321E-13 -.909E-03
 
 
 POSITION                                       TOTAL-FORCE (eV/Angst)
 -----------------------------------------------------------------------------------
      0.00000      1.83210      1.92821        -0.000000     -0.000000      0.002312
      0.00000      1.83210      5.77661        -0.000000     -0.000000     -0.007885
      0.00000      1.83210      9.65030        -0.000000      0.000000      0.005514
      1.95777      1.83210      0.04019         0.000000      0.000000     -0.008982
      1.95777      1.83210      3.81680        -0.000000     -0.000000      0.008834
      1.95777      1.83210      7.71310         0.000000      0.000000      0.000793
      1.95777      0.00000      1.92822         0.000000     -0.000000      0.001066
      1.95777      0.00000      5.75897         0.000000     -0.000000      0.000007
      1.95777      0.00000      9.66798        -0.000000     -0.000000     -0.002070
      0.00000      0.00000      0.06672        -0.000000     -0.000000     -0.003633
      0.00000      0.00000      3.79032        -0.000000     -0.000000      0.000298
      0.00000      0.00000      7.71308        -0.000000     -0.000000      0.003747
 -----------------------------------------------------------------------------------
    total drift:                                0.000000     -0.000000     -0.000145


--------------------------------------------------------------------------------------------------------



  FREE ENERGIE OF THE ION-ELECTRON SYSTEM (eV)
  ---------------------------------------------------
  free  energy   TOTEN  =       -92.94010453 eV

  energy  without entropy=      -92.94010453  energy(sigma->0) =      -92.94010453
 


--------------------------------------------------------------------------------------------------------


    POTLOK:  cpu time      0.0395: real time      0.0403


--------------------------------------------------------------------------------------------------------


     LOOP+:  cpu time    440.6052: real time    444.1978
 -----------------------------------------------------------------------------
|                                                                             |
|           W    W    AA    RRRRR   N    N  II  N    N   GGGG   !!!           |
|           W    W   A  A   R    R  NN   N  II  NN   N  G    G  !!!           |
|           W    W  A    A  R    R  N N  N  II  N N  N  G       !!!           |
|           W WW W  AAAAAA  RRRRR   N  N N  II  N  N N  G  GGG   !            |
|           WW  WW  A    A  R   R   N   NN  II  N   NN  G    G                |
|           W    W  A    A  R    R  N    N  II  N    N   GGGG   !!!           |
|                                                                             |
|     Tetrahedron method does not include variations of the Fermi             |
|     occupations, so forces and stress will be inaccurate. We suggest        |
|     using a different smearing scheme ISMEAR = 1 or 2 for metals in         |
|     relaxations.                                                            |
|                                                                             |
 -----------------------------------------------------------------------------

    4ORBIT:  cpu time      0.0000: real time      0.0000



 total charge

# of ion       s       p       d       tot
------------------------------------------
    1        0.351   6.335   5.945  12.631
    2        0.331   6.287   5.974  12.592
    3        0.331   6.287   5.974  12.592
    4        0.334   6.300   5.983  12.617
    5        0.334   6.300   5.983  12.617
    6        0.331   6.291   5.973  12.595
    7        0.336   6.304   6.011  12.651
    8        0.322   6.281   5.990  12.592
    9        0.322   6.281   5.989  12.592
   10        0.735   0.645   7.992   9.372
   11        0.735   0.645   7.992   9.372
   12        0.727   0.625   8.007   9.359
--------------------------------------------------
tot          5.189  58.580  77.813 141.582



 magnetization (x)

# of ion       s       p       d       tot
------------------------------------------
    1       -0.039  -0.061  -2.606  -2.705
    2        0.007  -0.018   2.933   2.922
    3        0.007  -0.018   2.933   2.923
    4        0.008   0.003   2.708   2.719
    5        0.008   0.003   2.709   2.720
    6        0.002  -0.016   2.892   2.879
    7        0.013   0.011   2.494   2.519
    8       -0.002  -0.012   2.809   2.796
    9       -0.002  -0.012   2.810   2.796
   10       -0.027  -0.063   0.220   0.129
   11       -0.027  -0.063   0.220   0.130
   12       -0.041  -0.102   0.449   0.307
--------------------------------------------------
tot         -0.093  -0.344  20.571  20.134
 
 BZINTS: Fermi energy:    9.027756;  156.000000 electrons
         Band energy:-0.175474E+04;  BLOECHL correction:   -0.021268

 total amount of memory used by VASP MPI-rank0   322022. kBytes
=======================================================================

   base      :      30000. kBytes
   nonl-proj :     193247. kBytes
   fftplans  :        986. kBytes
   grid      :       7702. kBytes
   one-center:        373. kBytes
   wavefun   :      89714. kBytes
 
  
  
 General timing and accounting informations for this job:
 ========================================================
  
                  Total CPU time used (sec):      469.396
                            User time (sec):      459.320
                          System time (sec):       10.077
                         Elapsed time (sec):      479.284
  
                   Maximum memory used (kb):     1128432.
                   Average memory used (kb):          N/A
  
                          Minor page faults:       232635
                          Major page faults:          113
                 Voluntary context switches:         7357
