  16  16   1   0
  0.1993750E+02  0.7505792E-09  0.7505792E-09  0.5752341E-09  0.5000000E-15
  1.000000000000000E-004
  CAR 
 unknown system                          
     11.05820829    -54.19841849  301      3.59335072      1.00000000
    -54.198  0.0000E+00  0.0000E+00  0.0000E+00  0.0000E+00
    -53.981  0.0000E+00  0.0000E+00  0.0000E+00  0.0000E+00
    -53.763  0.0000E+00  0.0000E+00  0.0000E+00  0.0000E+00
    -53.546  0.0000E+00  0.0000E+00  0.0000E+00  0.0000E+00
    -53.328  0.0000E+00  0.0000E+00  0.0000E+00  0.0000E+00
    -53.111  0.0000E+00  0.0000E+00  0.0000E+00  0.0000E+00
    -52.893  0.0000E+00  0.0000E+00  0.0000E+00  0.0000E+00
    -52.676  0.0000E+00  0.0000E+00  0.0000E+00  0.0000E+00
    -52.458  0.0000E+00  0.0000E+00  0.0000E+00  0.0000E+00
    -52.241  0.0000E+00  0.0000E+00  0.0000E+00  0.0000E+00
    -52.023  0.0000E+00  0.0000E+00  0.0000E+00  0.0000E+00
    -51.806  0.0000E+00  0.0000E+00  0.0000E+00  0.0000E+00
    -51.588  0.0000E+00  0.0000E+00  0.0000E+00  0.0000E+00
    -51.371  0.4136E-05  0.4136E-05  0.8996E-06  0.8996E-06
    -51.153  0.1830E+00  0.1830E+00  0.3981E-01  0.3981E-01
    -50.936  0.2800E+00  0.2800E+00  0.1007E+00  0.1007E+00
    -50.718  0.9260E-01  0.9260E-01  0.1209E+00  0.1209E+00
    -50.501  0.1560E-02  0.1560E-02  0.1212E+00  0.1212E+00
    -50.283  0.0000E+00  0.0000E+00  0.1212E+00  0.1212E+00
    -50.065  0.0000E+00  0.0000E+00  0.1212E+00  0.1212E+00
    -49.848  0.0000E+00  0.0000E+00  0.1212E+00  0.1212E+00
    -49.630  0.0000E+00  0.0000E+00  0.1212E+00  0.1212E+00
    -49.413  0.0000E+00  0.0000E+00  0.1212E+00  0.1212E+00
    -49.195  0.0000E+00  0.0000E+00  0.1212E+00  0.1212E+00
    -48.978  0.0000E+00  0.0000E+00  0.1212E+00  0.1212E+00
    -48.760  0.0000E+00  0.0000E+00  0.1212E+00  0.1212E+00
    -48.543  0.9951E-07  0.9951E-07  0.1212E+00  0.1212E+00
    -48.325  0.1926E+00  0.1926E+00  0.1631E+00  0.1631E+00
    -48.108  0.1096E+00  0.1096E+00  0.1870E+00  0.1870E+00
    -47.890  0.2550E+00  0.2550E+00  0.2424E+00  0.2424E+00
    -47.673  0.5550E-04  0.5550E-04  0.2424E+00  0.2424E+00
    -47.455  0.0000E+00  0.0000E+00  0.2424E+00  0.2424E+00
    -47.238  0.0000E+00  0.0000E+00  0.2424E+00  0.2424E+00
    -47.020  0.0000E+00  0.0000E+00  0.2424E+00  0.2424E+00
    -46.803  0.0000E+00  0.0000E+00  0.2424E+00  0.2424E+00
    -46.585  0.0000E+00  0.0000E+00  0.2424E+00  0.2424E+00
    -46.368  0.0000E+00  0.0000E+00  0.2424E+00  0.2424E+00
    -46.150  0.0000E+00  0.0000E+00  0.2424E+00  0.2424E+00
    -45.933  0.0000E+00  0.0000E+00  0.2424E+00  0.2424E+00
    -45.715  0.0000E+00  0.0000E+00  0.2424E+00  0.2424E+00
    -45.498  0.0000E+00  0.0000E+00  0.2424E+00  0.2424E+00
    -45.280  0.0000E+00  0.0000E+00  0.2424E+00  0.2424E+00
    -45.062  0.0000E+00  0.0000E+00  0.2424E+00  0.2424E+00
    -44.845  0.0000E+00  0.0000E+00  0.2424E+00  0.2424E+00
    -44.627  0.0000E+00  0.0000E+00  0.2424E+00  0.2424E+00
    -44.410  0.0000E+00  0.0000E+00  0.2424E+00  0.2424E+00
    -44.192  0.0000E+00  0.0000E+00  0.2424E+00  0.2424E+00
    -43.975  0.0000E+00  0.0000E+00  0.2424E+00  0.2424E+00
    -43.757  0.0000E+00  0.0000E+00  0.2424E+00  0.2424E+00
    -43.540  0.0000E+00  0.0000E+00  0.2424E+00  0.2424E+00
    -43.322  0.0000E+00  0.0000E+00  0.2424E+00  0.2424E+00
    -43.105  0.0000E+00  0.0000E+00  0.2424E+00  0.2424E+00
    -42.887  0.0000E+00  0.0000E+00  0.2424E+00  0.2424E+00
    -42.670  0.0000E+00  0.0000E+00  0.2424E+00  0.2424E+00
    -42.452  0.0000E+00  0.0000E+00  0.2424E+00  0.2424E+00
    -42.235  0.0000E+00  0.0000E+00  0.2424E+00  0.2424E+00
    -42.017  0.0000E+00  0.0000E+00  0.2424E+00  0.2424E+00
    -41.800  0.0000E+00  0.0000E+00  0.2424E+00  0.2424E+00
    -41.582  0.0000E+00  0.0000E+00  0.2424E+00  0.2424E+00
    -41.365  0.0000E+00  0.0000E+00  0.2424E+00  0.2424E+00
    -41.147  0.0000E+00  0.0000E+00  0.2424E+00  0.2424E+00
    -40.930  0.0000E+00  0.0000E+00  0.2424E+00  0.2424E+00
    -40.712  0.0000E+00  0.0000E+00  0.2424E+00  0.2424E+00
    -40.495  0.0000E+00  0.0000E+00  0.2424E+00  0.2424E+00
    -40.277  0.0000E+00  0.0000E+00  0.2424E+00  0.2424E+00
    -40.059  0.0000E+00  0.0000E+00  0.2424E+00  0.2424E+00
    -39.842  0.0000E+00  0.0000E+00  0.2424E+00  0.2424E+00
    -39.624  0.0000E+00  0.0000E+00  0.2424E+00  0.2424E+00
    -39.407  0.0000E+00  0.0000E+00  0.2424E+00  0.2424E+00
    -39.189  0.0000E+00  0.0000E+00  0.2424E+00  0.2424E+00
    -38.972  0.0000E+00  0.0000E+00  0.2424E+00  0.2424E+00
    -38.754  0.0000E+00  0.0000E+00  0.2424E+00  0.2424E+00
    -38.537  0.0000E+00  0.0000E+00  0.2424E+00  0.2424E+00
    -38.319  0.0000E+00  0.0000E+00  0.2424E+00  0.2424E+00
    -38.102  0.0000E+00  0.0000E+00  0.2424E+00  0.2424E+00
    -37.884  0.0000E+00  0.0000E+00  0.2424E+00  0.2424E+00
    -37.667  0.0000E+00  0.0000E+00  0.2424E+00  0.2424E+00
    -37.449  0.0000E+00  0.0000E+00  0.2424E+00  0.2424E+00
    -37.232  0.0000E+00  0.0000E+00  0.2424E+00  0.2424E+00
    -37.014  0.0000E+00  0.0000E+00  0.2424E+00  0.2424E+00
    -36.797  0.0000E+00  0.0000E+00  0.2424E+00  0.2424E+00
    -36.579  0.0000E+00  0.0000E+00  0.2424E+00  0.2424E+00
    -36.362  0.0000E+00  0.0000E+00  0.2424E+00  0.2424E+00
    -36.144  0.0000E+00  0.0000E+00  0.2424E+00  0.2424E+00
    -35.927  0.0000E+00  0.0000E+00  0.2424E+00  0.2424E+00
    -35.709  0.0000E+00  0.0000E+00  0.2424E+00  0.2424E+00
    -35.492  0.0000E+00  0.0000E+00  0.2424E+00  0.2424E+00
    -35.274  0.0000E+00  0.0000E+00  0.2424E+00  0.2424E+00
    -35.056  0.0000E+00  0.0000E+00  0.2424E+00  0.2424E+00
    -34.839  0.0000E+00  0.0000E+00  0.2424E+00  0.2424E+00
    -34.621  0.0000E+00  0.0000E+00  0.2424E+00  0.2424E+00
    -34.404  0.0000E+00  0.0000E+00  0.2424E+00  0.2424E+00
    -34.186  0.0000E+00  0.0000E+00  0.2424E+00  0.2424E+00
    -33.969  0.0000E+00  0.0000E+00  0.2424E+00  0.2424E+00
    -33.751  0.0000E+00  0.0000E+00  0.2424E+00  0.2424E+00
    -33.534  0.0000E+00  0.0000E+00  0.2424E+00  0.2424E+00
    -33.316  0.0000E+00  0.0000E+00  0.2424E+00  0.2424E+00
    -33.099  0.0000E+00  0.0000E+00  0.2424E+00  0.2424E+00
    -32.881  0.0000E+00  0.0000E+00  0.2424E+00  0.2424E+00
    -32.664  0.0000E+00  0.0000E+00  0.2424E+00  0.2424E+00
    -32.446  0.0000E+00  0.0000E+00  0.2424E+00  0.2424E+00
    -32.229  0.0000E+00  0.0000E+00  0.2424E+00  0.2424E+00
    -32.011  0.0000E+00  0.0000E+00  0.2424E+00  0.2424E+00
    -31.794  0.0000E+00  0.0000E+00  0.2424E+00  0.2424E+00
    -31.576  0.0000E+00  0.0000E+00  0.2424E+00  0.2424E+00
    -31.359  0.0000E+00  0.0000E+00  0.2424E+00  0.2424E+00
    -31.141  0.0000E+00  0.0000E+00  0.2424E+00  0.2424E+00
    -30.924  0.0000E+00  0.0000E+00  0.2424E+00  0.2424E+00
    -30.706  0.0000E+00  0.0000E+00  0.2424E+00  0.2424E+00
    -30.489  0.0000E+00  0.0000E+00  0.2424E+00  0.2424E+00
    -30.271  0.0000E+00  0.0000E+00  0.2424E+00  0.2424E+00
    -30.053  0.0000E+00  0.0000E+00  0.2424E+00  0.2424E+00
    -29.836  0.0000E+00  0.0000E+00  0.2424E+00  0.2424E+00
    -29.618  0.0000E+00  0.0000E+00  0.2424E+00  0.2424E+00
    -29.401  0.0000E+00  0.0000E+00  0.2424E+00  0.2424E+00
    -29.183  0.0000E+00  0.0000E+00  0.2424E+00  0.2424E+00
    -28.966  0.0000E+00  0.0000E+00  0.2424E+00  0.2424E+00
    -28.748  0.0000E+00  0.0000E+00  0.2424E+00  0.2424E+00
    -28.531  0.0000E+00  0.0000E+00  0.2424E+00  0.2424E+00
    -28.313  0.0000E+00  0.0000E+00  0.2424E+00  0.2424E+00
    -28.096  0.0000E+00  0.0000E+00  0.2424E+00  0.2424E+00
    -27.878  0.0000E+00  0.0000E+00  0.2424E+00  0.2424E+00
    -27.661  0.0000E+00  0.0000E+00  0.2424E+00  0.2424E+00
    -27.443  0.0000E+00  0.0000E+00  0.2424E+00  0.2424E+00
    -27.226  0.0000E+00  0.0000E+00  0.2424E+00  0.2424E+00
    -27.008  0.0000E+00  0.0000E+00  0.2424E+00  0.2424E+00
    -26.791  0.0000E+00  0.0000E+00  0.2424E+00  0.2424E+00
    -26.573  0.0000E+00  0.0000E+00  0.2424E+00  0.2424E+00
    -26.356  0.0000E+00  0.0000E+00  0.2424E+00  0.2424E+00
    -26.138  0.0000E+00  0.0000E+00  0.2424E+00  0.2424E+00
    -25.921  0.0000E+00  0.0000E+00  0.2424E+00  0.2424E+00
    -25.703  0.0000E+00  0.0000E+00  0.2424E+00  0.2424E+00
    -25.486  0.0000E+00  0.0000E+00  0.2424E+00  0.2424E+00
    -25.268  0.0000E+00  0.0000E+00  0.2424E+00  0.2424E+00
    -25.050  0.0000E+00  0.0000E+00  0.2424E+00  0.2424E+00
    -24.833  0.0000E+00  0.0000E+00  0.2424E+00  0.2424E+00
    -24.615  0.0000E+00  0.0000E+00  0.2424E+00  0.2424E+00
    -24.398  0.0000E+00  0.0000E+00  0.2424E+00  0.2424E+00
    -24.180  0.0000E+00  0.0000E+00  0.2424E+00  0.2424E+00
    -23.963  0.0000E+00  0.0000E+00  0.2424E+00  0.2424E+00
    -23.745  0.0000E+00  0.0000E+00  0.2424E+00  0.2424E+00
    -23.528  0.0000E+00  0.0000E+00  0.2424E+00  0.2424E+00
    -23.310  0.0000E+00  0.0000E+00  0.2424E+00  0.2424E+00
    -23.093  0.0000E+00  0.0000E+00  0.2424E+00  0.2424E+00
    -22.875  0.0000E+00  0.0000E+00  0.2424E+00  0.2424E+00
    -22.658  0.0000E+00  0.0000E+00  0.2424E+00  0.2424E+00
    -22.440  0.0000E+00  0.0000E+00  0.2424E+00  0.2424E+00
    -22.223  0.0000E+00  0.0000E+00  0.2424E+00  0.2424E+00
    -22.005  0.0000E+00  0.0000E+00  0.2424E+00  0.2424E+00
    -21.788  0.0000E+00  0.0000E+00  0.2424E+00  0.2424E+00
    -21.570  0.0000E+00  0.0000E+00  0.2424E+00  0.2424E+00
    -21.353  0.0000E+00  0.0000E+00  0.2424E+00  0.2424E+00
    -21.135  0.0000E+00  0.0000E+00  0.2424E+00  0.2424E+00
    -20.918  0.0000E+00  0.0000E+00  0.2424E+00  0.2424E+00
    -20.700  0.0000E+00  0.0000E+00  0.2424E+00  0.2424E+00
    -20.482  0.0000E+00  0.0000E+00  0.2424E+00  0.2424E+00
    -20.265  0.0000E+00  0.0000E+00  0.2424E+00  0.2424E+00
    -20.047  0.0000E+00  0.0000E+00  0.2424E+00  0.2424E+00
    -19.830  0.0000E+00  0.0000E+00  0.2424E+00  0.2424E+00
    -19.612  0.0000E+00  0.0000E+00  0.2424E+00  0.2424E+00
    -19.395  0.0000E+00  0.0000E+00  0.2424E+00  0.2424E+00
    -19.177  0.0000E+00  0.0000E+00  0.2424E+00  0.2424E+00
    -18.960  0.0000E+00  0.0000E+00  0.2424E+00  0.2424E+00
    -18.742  0.0000E+00  0.0000E+00  0.2424E+00  0.2424E+00
    -18.525  0.0000E+00  0.0000E+00  0.2424E+00  0.2424E+00
    -18.307  0.0000E+00  0.0000E+00  0.2424E+00  0.2424E+00
    -18.090  0.0000E+00  0.0000E+00  0.2424E+00  0.2424E+00
    -17.872  0.0000E+00  0.0000E+00  0.2424E+00  0.2424E+00
    -17.655  0.0000E+00  0.0000E+00  0.2424E+00  0.2424E+00
    -17.437  0.0000E+00  0.0000E+00  0.2424E+00  0.2424E+00
    -17.220  0.0000E+00  0.0000E+00  0.2424E+00  0.2424E+00
    -17.002  0.0000E+00  0.0000E+00  0.2424E+00  0.2424E+00
    -16.785  0.0000E+00  0.0000E+00  0.2424E+00  0.2424E+00
    -16.567  0.0000E+00  0.0000E+00  0.2424E+00  0.2424E+00
    -16.350  0.0000E+00  0.0000E+00  0.2424E+00  0.2424E+00
    -16.132  0.0000E+00  0.0000E+00  0.2424E+00  0.2424E+00
    -15.915  0.0000E+00  0.0000E+00  0.2424E+00  0.2424E+00
    -15.697  0.0000E+00  0.0000E+00  0.2424E+00  0.2424E+00
    -15.479  0.0000E+00  0.0000E+00  0.2424E+00  0.2424E+00
    -15.262  0.0000E+00  0.0000E+00  0.2424E+00  0.2424E+00
    -15.044  0.0000E+00  0.0000E+00  0.2424E+00  0.2424E+00
    -14.827  0.0000E+00  0.0000E+00  0.2424E+00  0.2424E+00
    -14.609  0.0000E+00  0.0000E+00  0.2424E+00  0.2424E+00
    -14.392  0.0000E+00  0.0000E+00  0.2424E+00  0.2424E+00
    -14.174  0.0000E+00  0.0000E+00  0.2424E+00  0.2424E+00
    -13.957  0.0000E+00  0.0000E+00  0.2424E+00  0.2424E+00
    -13.739  0.0000E+00  0.0000E+00  0.2424E+00  0.2424E+00
    -13.522  0.0000E+00  0.0000E+00  0.2424E+00  0.2424E+00
    -13.304  0.0000E+00  0.0000E+00  0.2424E+00  0.2424E+00
    -13.087  0.0000E+00  0.0000E+00  0.2424E+00  0.2424E+00
    -12.869  0.0000E+00  0.0000E+00  0.2424E+00  0.2424E+00
    -12.652  0.0000E+00  0.0000E+00  0.2424E+00  0.2424E+00
    -12.434  0.0000E+00  0.0000E+00  0.2424E+00  0.2424E+00
    -12.217  0.0000E+00  0.0000E+00  0.2424E+00  0.2424E+00
    -11.999  0.0000E+00  0.0000E+00  0.2424E+00  0.2424E+00
    -11.782  0.0000E+00  0.0000E+00  0.2424E+00  0.2424E+00
    -11.564  0.0000E+00  0.0000E+00  0.2424E+00  0.2424E+00
    -11.347  0.0000E+00  0.0000E+00  0.2424E+00  0.2424E+00
    -11.129  0.0000E+00  0.0000E+00  0.2424E+00  0.2424E+00
    -10.912  0.0000E+00  0.0000E+00  0.2424E+00  0.2424E+00
    -10.694  0.6113E-07  0.6113E-07  0.2424E+00  0.2424E+00
    -10.476  0.2679E-02  0.2679E-02  0.2430E+00  0.2430E+00
    -10.259  0.1324E-01  0.1324E-01  0.2459E+00  0.2459E+00
    -10.041  0.2290E-01  0.2290E-01  0.2509E+00  0.2509E+00
     -9.824  0.3171E-01  0.3171E-01  0.2578E+00  0.2578E+00
     -9.606  0.4303E-01  0.4303E-01  0.2671E+00  0.2671E+00
     -9.389  0.8598E-01  0.8598E-01  0.2858E+00  0.2858E+00
     -9.171  0.8333E-01  0.8333E-01  0.3040E+00  0.3040E+00
     -8.954  0.7868E-01  0.7868E-01  0.3211E+00  0.3211E+00
     -8.736  0.9938E-02  0.9938E-02  0.3232E+00  0.3232E+00
     -8.519  0.7644E-05  0.7644E-05  0.3232E+00  0.3232E+00
     -8.301  0.0000E+00  0.0000E+00  0.3232E+00  0.3232E+00
     -8.084  0.0000E+00  0.0000E+00  0.3232E+00  0.3232E+00
     -7.866  0.0000E+00  0.0000E+00  0.3232E+00  0.3232E+00
     -7.649  0.0000E+00  0.0000E+00  0.3232E+00  0.3232E+00
     -7.431  0.0000E+00  0.0000E+00  0.3232E+00  0.3232E+00
     -7.214  0.0000E+00  0.0000E+00  0.3232E+00  0.3232E+00
     -6.996  0.0000E+00  0.0000E+00  0.3232E+00  0.3232E+00
     -6.779  0.0000E+00  0.0000E+00  0.3232E+00  0.3232E+00
     -6.561  0.0000E+00  0.0000E+00  0.3232E+00  0.3232E+00
     -6.344  0.0000E+00  0.0000E+00  0.3232E+00  0.3232E+00
     -6.126  0.0000E+00  0.0000E+00  0.3232E+00  0.3232E+00
     -5.909  0.0000E+00  0.0000E+00  0.3232E+00  0.3232E+00
     -5.691  0.0000E+00  0.0000E+00  0.3232E+00  0.3232E+00
     -5.473  0.0000E+00  0.0000E+00  0.3232E+00  0.3232E+00
     -5.256  0.0000E+00  0.0000E+00  0.3232E+00  0.3232E+00
     -5.038  0.0000E+00  0.0000E+00  0.3232E+00  0.3232E+00
     -4.821  0.0000E+00  0.0000E+00  0.3232E+00  0.3232E+00
     -4.603  0.0000E+00  0.0000E+00  0.3232E+00  0.3232E+00
     -4.386  0.0000E+00  0.0000E+00  0.3232E+00  0.3232E+00
     -4.168  0.0000E+00  0.0000E+00  0.3232E+00  0.3232E+00
     -3.951  0.0000E+00  0.0000E+00  0.3232E+00  0.3232E+00
     -3.733  0.0000E+00  0.0000E+00  0.3232E+00  0.3232E+00
     -3.516  0.0000E+00  0.0000E+00  0.3232E+00  0.3232E+00
     -3.298  0.0000E+00  0.0000E+00  0.3232E+00  0.3232E+00
     -3.081  0.0000E+00  0.0000E+00  0.3232E+00  0.3232E+00
     -2.863  0.0000E+00  0.0000E+00  0.3232E+00  0.3232E+00
     -2.646  0.1271E-12  0.1271E-12  0.3232E+00  0.3232E+00
     -2.428  0.1177E-03  0.1177E-03  0.3233E+00  0.3233E+00
     -2.211  0.3433E-02  0.3433E-02  0.3240E+00  0.3240E+00
     -1.993  0.1365E-01  0.1365E-01  0.3270E+00  0.3270E+00
     -1.776  0.5141E-01  0.5141E-01  0.3382E+00  0.3382E+00
     -1.558  0.7864E-01  0.7864E-01  0.3553E+00  0.3553E+00
     -1.341  0.6211E-01  0.6211E-01  0.3688E+00  0.3688E+00
     -1.123  0.5403E-01  0.5403E-01  0.3805E+00  0.3805E+00
     -0.906  0.6289E-01  0.6289E-01  0.3942E+00  0.3942E+00
     -0.688  0.7094E-01  0.7094E-01  0.4096E+00  0.4096E+00
     -0.470  0.6855E-01  0.6855E-01  0.4245E+00  0.4245E+00
     -0.253  0.9303E-01  0.9303E-01  0.4448E+00  0.4448E+00
     -0.035  0.1178E+00  0.1178E+00  0.4704E+00  0.4704E+00
      0.182  0.1013E+00  0.1013E+00  0.4924E+00  0.4924E+00
      0.400  0.1176E+00  0.1176E+00  0.5180E+00  0.5180E+00
      0.617  0.9165E-01  0.9165E-01  0.5380E+00  0.5380E+00
      0.835  0.7167E-01  0.7167E-01  0.5536E+00  0.5536E+00
      1.052  0.8480E-01  0.8480E-01  0.5720E+00  0.5720E+00
      1.270  0.1152E+00  0.1152E+00  0.5971E+00  0.5971E+00
      1.487  0.1205E+00  0.1205E+00  0.6233E+00  0.6233E+00
      1.705  0.1879E+00  0.1879E+00  0.6641E+00  0.6641E+00
      1.922  0.1667E+00  0.1667E+00  0.7004E+00  0.7004E+00
      2.140  0.8226E-01  0.8226E-01  0.7183E+00  0.7183E+00
      2.357  0.7898E-01  0.7898E-01  0.7355E+00  0.7355E+00
      2.575  0.5959E-01  0.5959E-01  0.7484E+00  0.7484E+00
      2.792  0.6135E-01  0.6135E-01  0.7618E+00  0.7618E+00
      3.010  0.4065E-01  0.4065E-01  0.7706E+00  0.7706E+00
      3.227  0.4401E-01  0.4401E-01  0.7802E+00  0.7802E+00
      3.445  0.6601E-01  0.6601E-01  0.7946E+00  0.7946E+00
      3.662  0.8358E-01  0.8358E-01  0.8127E+00  0.8127E+00
      3.880  0.7606E-01  0.7606E-01  0.8293E+00  0.8293E+00
      4.098  0.1498E+00  0.1498E+00  0.8619E+00  0.8619E+00
      4.315  0.1003E+00  0.1003E+00  0.8837E+00  0.8837E+00
      4.533  0.1034E+00  0.1034E+00  0.9062E+00  0.9062E+00
      4.750  0.8577E-01  0.8577E-01  0.9249E+00  0.9249E+00
      4.968  0.9870E-01  0.9870E-01  0.9463E+00  0.9463E+00
      5.185  0.5951E-01  0.5951E-01  0.9593E+00  0.9593E+00
      5.403  0.1139E-01  0.1139E-01  0.9617E+00  0.9617E+00
      5.620  0.1227E-01  0.1227E-01  0.9644E+00  0.9644E+00
      5.838  0.1527E-01  0.1527E-01  0.9677E+00  0.9677E+00
      6.055  0.8861E-02  0.8861E-02  0.9697E+00  0.9697E+00
      6.273  0.6591E-02  0.6591E-02  0.9711E+00  0.9711E+00
      6.490  0.6333E-02  0.6333E-02  0.9725E+00  0.9725E+00
      6.708  0.8652E-02  0.8652E-02  0.9744E+00  0.9744E+00
      6.925  0.1570E-01  0.1570E-01  0.9778E+00  0.9778E+00
      7.143  0.2156E-01  0.2156E-01  0.9825E+00  0.9825E+00
      7.360  0.3565E-01  0.3564E-01  0.9902E+00  0.9902E+00
      7.578  0.4586E-01  0.4600E-01  0.1000E+01  0.1000E+01
      7.795  0.3070E-01  0.3078E-01  0.1007E+01  0.1007E+01
      8.013  0.1249E-01  0.1234E-01  0.1010E+01  0.1010E+01
      8.230  0.2344E-02  0.2284E-02  0.1010E+01  0.1010E+01
      8.448  0.2869E-08  0.3817E-07  0.1010E+01  0.1010E+01
      8.665  0.0000E+00  0.0000E+00  0.1010E+01  0.1010E+01
      8.883  0.0000E+00  0.0000E+00  0.1010E+01  0.1010E+01
      9.101  0.0000E+00  0.0000E+00  0.1010E+01  0.1010E+01
      9.318  0.0000E+00  0.0000E+00  0.1010E+01  0.1010E+01
      9.536  0.0000E+00  0.0000E+00  0.1010E+01  0.1010E+01
      9.753  0.0000E+00  0.0000E+00  0.1010E+01  0.1010E+01
      9.971  0.0000E+00  0.0000E+00  0.1010E+01  0.1010E+01
     10.188  0.0000E+00  0.0000E+00  0.1010E+01  0.1010E+01
     10.406  0.0000E+00  0.0000E+00  0.1010E+01  0.1010E+01
     10.623  0.0000E+00  0.0000E+00  0.1010E+01  0.1010E+01
     10.841  0.0000E+00  0.0000E+00  0.1010E+01  0.1010E+01
     11.058  0.0000E+00  0.0000E+00  0.1010E+01  0.1010E+01
     11.05820829    -54.19841849  301      3.59335072      1.00000000
    -54.198  0.0000E+00  0.0000E+00  0.0000E+00  0.0000E+00  0.0000E+00  0.0000E+00  0.0000E+00  0.0000E+00  0.0000E+00  0.0000E+00  0.0000E+00  0.0000E+00  0.0000E+00  0.0000E+00  0.0000E+00  0.0000E+00  0.0000E+00  0.0000E+00
    -53.981  0.0000E+00  0.0000E+00  0.0000E+00  0.0000E+00  0.0000E+00  0.0000E+00  0.0000E+00  0.0000E+00  0.0000E+00  0.0000E+00  0.0000E+00  0.0000E+00  0.0000E+00  0.0000E+00  0.0000E+00  0.0000E+00  0.0000E+00  0.0000E+00
    -53.763  0.0000E+00  0.0000E+00  0.0000E+00  0.0000E+00  0.0000E+00  0.0000E+00  0.0000E+00  0.0000E+00  0.0000E+00  0.0000E+00  0.0000E+00  0.0000E+00  0.0000E+00  0.0000E+00  0.0000E+00  0.0000E+00  0.0000E+00  0.0000E+00
    -53.546  0.0000E+00  0.0000E+00  0.0000E+00  0.0000E+00  0.0000E+00  0.0000E+00  0.0000E+00  0.0000E+00  0.0000E+00  0.0000E+00  0.0000E+00  0.0000E+00  0.0000E+00  0.0000E+00  0.0000E+00  0.0000E+00  0.0000E+00  0.0000E+00
    -53.328  0.0000E+00  0.0000E+00  0.0000E+00  0.0000E+00  0.0000E+00  0.0000E+00  0.0000E+00  0.0000E+00  0.0000E+00  0.0000E+00  0.0000E+00  0.0000E+00  0.0000E+00  0.0000E+00  0.0000E+00  0.0000E+00  0.0000E+00  0.0000E+00
    -53.111  0.0000E+00  0.0000E+00  0.0000E+00  0.0000E+00  0.0000E+00  0.0000E+00  0.0000E+00  0.0000E+00  0.0000E+00  0.0000E+00  0.0000E+00  0.0000E+00  0.0000E+00  0.0000E+00  0.0000E+00  0.0000E+00  0.0000E+00  0.0000E+00
    -52.893  0.0000E+00  0.0000E+00  0.0000E+00  0.0000E+00  0.0000E+00  0.0000E+00  0.0000E+00  0.0000E+00  0.0000E+00  0.0000E+00  0.0000E+00  0.0000E+00  0.0000E+00  0.0000E+00  0.0000E+00  0.0000E+00  0.0000E+00  0.0000E+00
    -52.676  0.0000E+00  0.0000E+00  0.0000E+00  0.0000E+00  0.0000E+00  0.0000E+00  0.0000E+00  0.0000E+00  0.0000E+00  0.0000E+00  0.0000E+00  0.0000E+00  0.0000E+00  0.0000E+00  0.0000E+00  0.0000E+00  0.0000E+00  0.0000E+00
    -52.458  0.0000E+00  0.0000E+00  0.0000E+00  0.0000E+00  0.0000E+00  0.0000E+00  0.0000E+00  0.0000E+00  0.0000E+00  0.0000E+00  0.0000E+00  0.0000E+00  0.0000E+00  0.0000E+00  0.0000E+00  0.0000E+00  0.0000E+00  0.0000E+00
    -52.241  0.0000E+00  0.0000E+00  0.0000E+00  0.0000E+00  0.0000E+00  0.0000E+00  0.0000E+00  0.0000E+00  0.0000E+00  0.0000E+00  0.0000E+00  0.0000E+00  0.0000E+00  0.0000E+00  0.0000E+00  0.0000E+00  0.0000E+00  0.0000E+00
    -52.023  0.0000E+00  0.0000E+00  0.0000E+00  0.0000E+00  0.0000E+00  0.0000E+00  0.0000E+00  0.0000E+00  0.0000E+00  0.0000E+00  0.0000E+00  0.0000E+00  0.0000E+00  0.0000E+00  0.0000E+00  0.0000E+00  0.0000E+00  0.0000E+00
    -51.806  0.0000E+00  0.0000E+00  0.0000E+00  0.0000E+00  0.0000E+00  0.0000E+00  0.0000E+00  0.0000E+00  0.0000E+00  0.0000E+00  0.0000E+00  0.0000E+00  0.0000E+00  0.0000E+00  0.0000E+00  0.0000E+00  0.0000E+00  0.0000E+00
    -51.588  0.0000E+00  0.0000E+00  0.0000E+00  0.0000E+00  0.0000E+00  0.0000E+00  0.0000E+00  0.0000E+00  0.0000E+00  0.0000E+00  0.0000E+00  0.0000E+00  0.0000E+00  0.0000E+00  0.0000E+00  0.0000E+00  0.0000E+00  0.0000E+00
    -51.371  0.8004E-15  0.2419E-10  0.2794E-04  0.1213E-08  0.7398E-04  0.8958E-10  0.2195E-14  0.5532E-12  0.4361E-10  0.3613E-13  0.6407E-15  0.4651E-11  0.1187E-14  0.7264E-11  0.1078E-09  0.2872E-14  0.1207E-14  0.2796E-10
    -51.153  0.1091E-06  0.1214E-05  0.1367E+01  0.6041E-04  0.3121E+01  0.3899E-05  0.2271E-01  0.3989E-07  0.2273E-05  0.2776E-08  0.2969E-10  0.1989E-06  0.5015E-07  0.3700E-06  0.5187E-05  0.1528E-09  0.1503E-06  0.1361E-05
    -50.936  0.6608E-04  0.2241E-05  0.3210E+01  0.1268E-03  0.1457E+01  0.2298E-06  0.2235E+01  0.1063E-05  0.5432E-05  0.8096E-07  0.4341E-09  0.1421E-07  0.3031E-04  0.8707E-06  0.2424E-05  0.2166E-09  0.9091E-04  0.2746E-05
    -50.718  0.7054E-04  0.3273E-08  0.1890E-02  0.1352E-06  0.7308E-03  0.7254E-09  0.2284E+01  0.5234E-06  0.2904E-08  0.4530E-07  0.3394E-09  0.3415E-10  0.3230E-04  0.1222E-08  0.1171E-08  0.7282E-10  0.9688E-04  0.1703E-08
    -50.501  0.2013E-06  0.5839E-11  0.2601E-12  0.1927E-09  0.1046E-13  0.1996E-11  0.3856E-01  0.6838E-08  0.1509E-12  0.6145E-09  0.1315E-11  0.7355E-12  0.9221E-07  0.2810E-11  0.8636E-13  0.1963E-11  0.2764E-06  0.6719E-12
    -50.283  0.0000E+00  0.0000E+00  0.0000E+00  0.0000E+00  0.0000E+00  0.0000E+00  0.0000E+00  0.0000E+00  0.0000E+00  0.0000E+00  0.0000E+00  0.0000E+00  0.0000E+00  0.0000E+00  0.0000E+00  0.0000E+00  0.0000E+00  0.0000E+00
    -50.065  0.0000E+00  0.0000E+00  0.0000E+00  0.0000E+00  0.0000E+00  0.0000E+00  0.0000E+00  0.0000E+00  0.0000E+00  0.0000E+00  0.0000E+00  0.0000E+00  0.0000E+00  0.0000E+00  0.0000E+00  0.0000E+00  0.0000E+00  0.0000E+00
    -49.848  0.0000E+00  0.0000E+00  0.0000E+00  0.0000E+00  0.0000E+00  0.0000E+00  0.0000E+00  0.0000E+00  0.0000E+00  0.0000E+00  0.0000E+00  0.0000E+00  0.0000E+00  0.0000E+00  0.0000E+00  0.0000E+00  0.0000E+00  0.0000E+00
    -49.630  0.0000E+00  0.0000E+00  0.0000E+00  0.0000E+00  0.0000E+00  0.0000E+00  0.0000E+00  0.0000E+00  0.0000E+00  0.0000E+00  0.0000E+00  0.0000E+00  0.0000E+00  0.0000E+00  0.0000E+00  0.0000E+00  0.0000E+00  0.0000E+00
    -49.413  0.0000E+00  0.0000E+00  0.0000E+00  0.0000E+00  0.0000E+00  0.0000E+00  0.0000E+00  0.0000E+00  0.0000E+00  0.0000E+00  0.0000E+00  0.0000E+00  0.0000E+00  0.0000E+00  0.0000E+00  0.0000E+00  0.0000E+00  0.0000E+00
    -49.195  0.0000E+00  0.0000E+00  0.0000E+00  0.0000E+00  0.0000E+00  0.0000E+00  0.0000E+00  0.0000E+00  0.0000E+00  0.0000E+00  0.0000E+00  0.0000E+00  0.0000E+00  0.0000E+00  0.0000E+00  0.0000E+00  0.0000E+00  0.0000E+00
    -48.978  0.0000E+00  0.0000E+00  0.0000E+00  0.0000E+00  0.0000E+00  0.0000E+00  0.0000E+00  0.0000E+00  0.0000E+00  0.0000E+00  0.0000E+00  0.0000E+00  0.0000E+00  0.0000E+00  0.0000E+00  0.0000E+00  0.0000E+00  0.0000E+00
    -48.760  0.0000E+00  0.0000E+00  0.0000E+00  0.0000E+00  0.0000E+00  0.0000E+00  0.0000E+00  0.0000E+00  0.0000E+00  0.0000E+00  0.0000E+00  0.0000E+00  0.0000E+00  0.0000E+00  0.0000E+00  0.0000E+00  0.0000E+00  0.0000E+00
    -48.543  0.1420E-11  0.8132E-14  0.6968E-10  0.1151E-05  0.1275E-11  0.1298E-05  0.5126E-13  0.3439E-08  0.1022E-14  0.2255E-11  0.1517E-12  0.6914E-16  0.4313E-12  0.3762E-14  0.3706E-16  0.2523E-11  0.1590E-11  0.1128E-13
    -48.325  0.2404E-05  0.7287E-05  0.1191E-03  0.1949E+01  0.2130E-05  0.2164E+01  0.4960E-06  0.6322E+00  0.3600E-07  0.3944E-05  0.2519E-06  0.2858E-09  0.7307E-06  0.3349E-05  0.8810E-10  0.4379E-05  0.2675E-05  0.1007E-04
    -48.108  0.3088E-06  0.1098E-03  0.1504E-04  0.2552E+00  0.2506E-06  0.2749E+00  0.1103E-05  0.2171E+01  0.9546E-07  0.5244E-06  0.2902E-07  0.2431E-08  0.9684E-07  0.5044E-04  0.7363E-10  0.5661E-06  0.3440E-06  0.1516E-03
    -47.890  0.2333E-05  0.4963E-04  0.9672E-04  0.2375E+01  0.7077E-06  0.2141E+01  0.5247E-06  0.1776E+01  0.4798E-07  0.4908E-05  0.4470E-07  0.1215E-08  0.9182E-06  0.2278E-04  0.1056E-09  0.4435E-05  0.2821E-05  0.6848E-04
    -47.673  0.8861E-10  0.4898E-08  0.3712E-08  0.9103E-04  0.2697E-10  0.8107E-04  0.2588E-09  0.1200E-02  0.2713E-10  0.1817E-09  0.1698E-11  0.2125E-12  0.3491E-10  0.2252E-08  0.3542E-13  0.1632E-09  0.1077E-09  0.6764E-08
    -47.455  0.0000E+00  0.0000E+00  0.0000E+00  0.0000E+00  0.0000E+00  0.0000E+00  0.0000E+00  0.0000E+00  0.0000E+00  0.0000E+00  0.0000E+00  0.0000E+00  0.0000E+00  0.0000E+00  0.0000E+00  0.0000E+00  0.0000E+00  0.0000E+00
    -47.238  0.0000E+00  0.0000E+00  0.0000E+00  0.0000E+00  0.0000E+00  0.0000E+00  0.0000E+00  0.0000E+00  0.0000E+00  0.0000E+00  0.0000E+00  0.0000E+00  0.0000E+00  0.0000E+00  0.0000E+00  0.0000E+00  0.0000E+00  0.0000E+00
    -47.020  0.0000E+00  0.0000E+00  0.0000E+00  0.0000E+00  0.0000E+00  0.0000E+00  0.0000E+00  0.0000E+00  0.0000E+00  0.0000E+00  0.0000E+00  0.0000E+00  0.0000E+00  0.0000E+00  0.0000E+00  0.0000E+00  0.0000E+00  0.0000E+00
    -46.803  0.0000E+00  0.0000E+00  0.0000E+00  0.0000E+00  0.0000E+00  0.0000E+00  0.0000E+00  0.0000E+00  0.0000E+00  0.0000E+00  0.0000E+00  0.0000E+00  0.0000E+00  0.0000E+00  0.0000E+00  0.0000E+00  0.0000E+00  0.0000E+00
    -46.585  0.0000E+00  0.0000E+00  0.0000E+00  0.0000E+00  0.0000E+00  0.0000E+00  0.0000E+00  0.0000E+00  0.0000E+00  0.0000E+00  0.0000E+00  0.0000E+00  0.0000E+00  0.0000E+00  0.0000E+00  0.0000E+00  0.0000E+00  0.0000E+00
    -46.368  0.0000E+00  0.0000E+00  0.0000E+00  0.0000E+00  0.0000E+00  0.0000E+00  0.0000E+00  0.0000E+00  0.0000E+00  0.0000E+00  0.0000E+00  0.0000E+00  0.0000E+00  0.0000E+00  0.0000E+00  0.0000E+00  0.0000E+00  0.0000E+00
    -46.150  0.0000E+00  0.0000E+00  0.0000E+00  0.0000E+00  0.0000E+00  0.0000E+00  0.0000E+00  0.0000E+00  0.0000E+00  0.0000E+00  0.0000E+00  0.0000E+00  0.0000E+00  0.0000E+00  0.0000E+00  0.0000E+00  0.0000E+00  0.0000E+00
    -45.933  0.0000E+00  0.0000E+00  0.0000E+00  0.0000E+00  0.0000E+00  0.0000E+00  0.0000E+00  0.0000E+00  0.0000E+00  0.0000E+00  0.0000E+00  0.0000E+00  0.0000E+00  0.0000E+00  0.0000E+00  0.0000E+00  0.0000E+00  0.0000E+00
    -45.715  0.0000E+00  0.0000E+00  0.0000E+00  0.0000E+00  0.0000E+00  0.0000E+00  0.0000E+00  0.0000E+00  0.0000E+00  0.0000E+00  0.0000E+00  0.0000E+00  0.0000E+00  0.0000E+00  0.0000E+00  0.0000E+00  0.0000E+00  0.0000E+00
    -45.498  0.0000E+00  0.0000E+00  0.0000E+00  0.0000E+00  0.0000E+00  0.0000E+00  0.0000E+00  0.0000E+00  0.0000E+00  0.0000E+00  0.0000E+00  0.0000E+00  0.0000E+00  0.0000E+00  0.0000E+00  0.0000E+00  0.0000E+00  0.0000E+00
    -45.280  0.0000E+00  0.0000E+00  0.0000E+00  0.0000E+00  0.0000E+00  0.0000E+00  0.0000E+00  0.0000E+00  0.0000E+00  0.0000E+00  0.0000E+00  0.0000E+00  0.0000E+00  0.0000E+00  0.0000E+00  0.0000E+00  0.0000E+00  0.0000E+00
    -45.062  0.0000E+00  0.0000E+00  0.0000E+00  0.0000E+00  0.0000E+00  0.0000E+00  0.0000E+00  0.0000E+00  0.0000E+00  0.0000E+00  0.0000E+00  0.0000E+00  0.0000E+00  0.0000E+00  0.0000E+00  0.0000E+00  0.0000E+00  0.0000E+00
    -44.845  0.0000E+00  0.0000E+00  0.0000E+00  0.0000E+00  0.0000E+00  0.0000E+00  0.0000E+00  0.0000E+00  0.0000E+00  0.0000E+00  0.0000E+00  0.0000E+00  0.0000E+00  0.0000E+00  0.0000E+00  0.0000E+00  0.0000E+00  0.0000E+00
    -44.627  0.0000E+00  0.0000E+00  0.0000E+00  0.0000E+00  0.0000E+00  0.0000E+00  0.0000E+00  0.0000E+00  0.0000E+00  0.0000E+00  0.0000E+00  0.0000E+00  0.0000E+00  0.0000E+00  0.0000E+00  0.0000E+00  0.0000E+00  0.0000E+00
    -44.410  0.0000E+00  0.0000E+00  0.0000E+00  0.0000E+00  0.0000E+00  0.0000E+00  0.0000E+00  0.0000E+00  0.0000E+00  0.0000E+00  0.0000E+00  0.0000E+00  0.0000E+00  0.0000E+00  0.0000E+00  0.0000E+00  0.0000E+00  0.0000E+00
    -44.192  0.0000E+00  0.0000E+00  0.0000E+00  0.0000E+00  0.0000E+00  0.0000E+00  0.0000E+00  0.0000E+00  0.0000E+00  0.0000E+00  0.0000E+00  0.0000E+00  0.0000E+00  0.0000E+00  0.0000E+00  0.0000E+00  0.0000E+00  0.0000E+00
    -43.975  0.0000E+00  0.0000E+00  0.0000E+00  0.0000E+00  0.0000E+00  0.0000E+00  0.0000E+00  0.0000E+00  0.0000E+00  0.0000E+00  0.0000E+00  0.0000E+00  0.0000E+00  0.0000E+00  0.0000E+00  0.0000E+00  0.0000E+00  0.0000E+00
    -43.757  0.0000E+00  0.0000E+00  0.0000E+00  0.0000E+00  0.0000E+00  0.0000E+00  0.0000E+00  0.0000E+00  0.0000E+00  0.0000E+00  0.0000E+00  0.0000E+00  0.0000E+00  0.0000E+00  0.0000E+00  0.0000E+00  0.0000E+00  0.0000E+00
    -43.540  0.0000E+00  0.0000E+00  0.0000E+00  0.0000E+00  0.0000E+00  0.0000E+00  0.0000E+00  0.0000E+00  0.0000E+00  0.0000E+00  0.0000E+00  0.0000E+00  0.0000E+00  0.0000E+00  0.0000E+00  0.0000E+00  0.0000E+00  0.0000E+00
    -43.322  0.0000E+00  0.0000E+00  0.0000E+00  0.0000E+00  0.0000E+00  0.0000E+00  0.0000E+00  0.0000E+00  0.0000E+00  0.0000E+00  0.0000E+00  0.0000E+00  0.0000E+00  0.0000E+00  0.0000E+00  0.0000E+00  0.0000E+00  0.0000E+00