  16  16   1   0
  0.1993750E+02  0.7544747E-09  0.7544747E-09  0.5693926E-09  0.5000000E-15
  1.000000000000000E-004
  CAR 
 unknown system                          
     11.18519816    -54.21199540  301      3.58362636      1.00000000
    -54.212  0.0000E+00  0.0000E+00  0.0000E+00  0.0000E+00
    -53.994  0.0000E+00  0.0000E+00  0.0000E+00  0.0000E+00
    -53.776  0.0000E+00  0.0000E+00  0.0000E+00  0.0000E+00
    -53.558  0.0000E+00  0.0000E+00  0.0000E+00  0.0000E+00
    -53.340  0.0000E+00  0.0000E+00  0.0000E+00  0.0000E+00
    -53.122  0.0000E+00  0.0000E+00  0.0000E+00  0.0000E+00
    -52.904  0.0000E+00  0.0000E+00  0.0000E+00  0.0000E+00
    -52.686  0.0000E+00  0.0000E+00  0.0000E+00  0.0000E+00
    -52.468  0.0000E+00  0.0000E+00  0.0000E+00  0.0000E+00
    -52.250  0.0000E+00  0.0000E+00  0.0000E+00  0.0000E+00
    -52.032  0.0000E+00  0.0000E+00  0.0000E+00  0.0000E+00
    -51.814  0.0000E+00  0.0000E+00  0.0000E+00  0.0000E+00
    -51.596  0.0000E+00  0.0000E+00  0.0000E+00  0.0000E+00
    -51.378  0.0000E+00  0.0000E+00  0.0000E+00  0.0000E+00
    -51.160  0.1835E+02  0.1835E+02  0.4000E+01  0.4000E+01
    -50.942  0.3425E+02  0.3425E+02  0.9980E+01  0.9980E+01
    -50.724  0.9175E+01  0.9175E+01  0.1200E+02  0.1200E+02
    -50.506  0.0000E+00  0.0000E+00  0.1200E+02  0.1200E+02
    -50.288  0.0000E+00  0.0000E+00  0.1200E+02  0.1200E+02
    -50.070  0.0000E+00  0.0000E+00  0.1200E+02  0.1200E+02
    -49.852  0.0000E+00  0.0000E+00  0.1200E+02  0.1200E+02
    -49.634  0.0000E+00  0.0000E+00  0.1200E+02  0.1200E+02
    -49.416  0.0000E+00  0.0000E+00  0.1200E+02  0.1200E+02
    -49.198  0.0000E+00  0.0000E+00  0.1200E+02  0.1200E+02
    -48.980  0.0000E+00  0.0000E+00  0.1200E+02  0.1200E+02
    -48.762  0.0000E+00  0.0000E+00  0.1200E+02  0.1200E+02
    -48.544  0.0000E+00  0.0000E+00  0.1200E+02  0.1200E+02
    -48.326  0.3466E+02  0.3466E+02  0.1666E+02  0.1666E+02
    -48.108  0.1411E+02  0.1411E+02  0.1848E+02  0.1848E+02
    -47.890  0.2490E+02  0.2490E+02  0.2400E+02  0.2400E+02
    -47.672  0.0000E+00  0.0000E+00  0.2400E+02  0.2400E+02
    -47.454  0.0000E+00  0.0000E+00  0.2400E+02  0.2400E+02
    -47.236  0.0000E+00  0.0000E+00  0.2400E+02  0.2400E+02
    -47.018  0.0000E+00  0.0000E+00  0.2400E+02  0.2400E+02
    -46.800  0.0000E+00  0.0000E+00  0.2400E+02  0.2400E+02
    -46.582  0.0000E+00  0.0000E+00  0.2400E+02  0.2400E+02
    -46.364  0.0000E+00  0.0000E+00  0.2400E+02  0.2400E+02
    -46.146  0.0000E+00  0.0000E+00  0.2400E+02  0.2400E+02
    -45.928  0.0000E+00  0.0000E+00  0.2400E+02  0.2400E+02
    -45.710  0.0000E+00  0.0000E+00  0.2400E+02  0.2400E+02
    -45.492  0.0000E+00  0.0000E+00  0.2400E+02  0.2400E+02
    -45.274  0.0000E+00  0.0000E+00  0.2400E+02  0.2400E+02
    -45.056  0.0000E+00  0.0000E+00  0.2400E+02  0.2400E+02
    -44.838  0.0000E+00  0.0000E+00  0.2400E+02  0.2400E+02
    -44.620  0.0000E+00  0.0000E+00  0.2400E+02  0.2400E+02
    -44.402  0.0000E+00  0.0000E+00  0.2400E+02  0.2400E+02
    -44.184  0.0000E+00  0.0000E+00  0.2400E+02  0.2400E+02
    -43.966  0.0000E+00  0.0000E+00  0.2400E+02  0.2400E+02
    -43.748  0.0000E+00  0.0000E+00  0.2400E+02  0.2400E+02
    -43.530  0.0000E+00  0.0000E+00  0.2400E+02  0.2400E+02
    -43.312  0.0000E+00  0.0000E+00  0.2400E+02  0.2400E+02
    -43.094  0.0000E+00  0.0000E+00  0.2400E+02  0.2400E+02
    -42.876  0.0000E+00  0.0000E+00  0.2400E+02  0.2400E+02
    -42.658  0.0000E+00  0.0000E+00  0.2400E+02  0.2400E+02
    -42.441  0.0000E+00  0.0000E+00  0.2400E+02  0.2400E+02
    -42.223  0.0000E+00  0.0000E+00  0.2400E+02  0.2400E+02
    -42.005  0.0000E+00  0.0000E+00  0.2400E+02  0.2400E+02
    -41.787  0.0000E+00  0.0000E+00  0.2400E+02  0.2400E+02
    -41.569  0.0000E+00  0.0000E+00  0.2400E+02  0.2400E+02
    -41.351  0.0000E+00  0.0000E+00  0.2400E+02  0.2400E+02
    -41.133  0.0000E+00  0.0000E+00  0.2400E+02  0.2400E+02
    -40.915  0.0000E+00  0.0000E+00  0.2400E+02  0.2400E+02
    -40.697  0.0000E+00  0.0000E+00  0.2400E+02  0.2400E+02
    -40.479  0.0000E+00  0.0000E+00  0.2400E+02  0.2400E+02
    -40.261  0.0000E+00  0.0000E+00  0.2400E+02  0.2400E+02
    -40.043  0.0000E+00  0.0000E+00  0.2400E+02  0.2400E+02
    -39.825  0.0000E+00  0.0000E+00  0.2400E+02  0.2400E+02
    -39.607  0.0000E+00  0.0000E+00  0.2400E+02  0.2400E+02
    -39.389  0.0000E+00  0.0000E+00  0.2400E+02  0.2400E+02
    -39.171  0.0000E+00  0.0000E+00  0.2400E+02  0.2400E+02
    -38.953  0.0000E+00  0.0000E+00  0.2400E+02  0.2400E+02
    -38.735  0.0000E+00  0.0000E+00  0.2400E+02  0.2400E+02
    -38.517  0.0000E+00  0.0000E+00  0.2400E+02  0.2400E+02
    -38.299  0.0000E+00  0.0000E+00  0.2400E+02  0.2400E+02
    -38.081  0.0000E+00  0.0000E+00  0.2400E+02  0.2400E+02
    -37.863  0.0000E+00  0.0000E+00  0.2400E+02  0.2400E+02
    -37.645  0.0000E+00  0.0000E+00  0.2400E+02  0.2400E+02
    -37.427  0.0000E+00  0.0000E+00  0.2400E+02  0.2400E+02
    -37.209  0.0000E+00  0.0000E+00  0.2400E+02  0.2400E+02
    -36.991  0.0000E+00  0.0000E+00  0.2400E+02  0.2400E+02
    -36.773  0.0000E+00  0.0000E+00  0.2400E+02  0.2400E+02
    -36.555  0.0000E+00  0.0000E+00  0.2400E+02  0.2400E+02
    -36.337  0.0000E+00  0.0000E+00  0.2400E+02  0.2400E+02
    -36.119  0.0000E+00  0.0000E+00  0.2400E+02  0.2400E+02
    -35.901  0.0000E+00  0.0000E+00  0.2400E+02  0.2400E+02
    -35.683  0.0000E+00  0.0000E+00  0.2400E+02  0.2400E+02
    -35.465  0.0000E+00  0.0000E+00  0.2400E+02  0.2400E+02
    -35.247  0.0000E+00  0.0000E+00  0.2400E+02  0.2400E+02
    -35.029  0.0000E+00  0.0000E+00  0.2400E+02  0.2400E+02
    -34.811  0.0000E+00  0.0000E+00  0.2400E+02  0.2400E+02
    -34.593  0.0000E+00  0.0000E+00  0.2400E+02  0.2400E+02
    -34.375  0.0000E+00  0.0000E+00  0.2400E+02  0.2400E+02
    -34.157  0.0000E+00  0.0000E+00  0.2400E+02  0.2400E+02
    -33.939  0.0000E+00  0.0000E+00  0.2400E+02  0.2400E+02
    -33.721  0.0000E+00  0.0000E+00  0.2400E+02  0.2400E+02
    -33.503  0.0000E+00  0.0000E+00  0.2400E+02  0.2400E+02
    -33.285  0.0000E+00  0.0000E+00  0.2400E+02  0.2400E+02
    -33.067  0.0000E+00  0.0000E+00  0.2400E+02  0.2400E+02
    -32.849  0.0000E+00  0.0000E+00  0.2400E+02  0.2400E+02
    -32.631  0.0000E+00  0.0000E+00  0.2400E+02  0.2400E+02
    -32.413  0.0000E+00  0.0000E+00  0.2400E+02  0.2400E+02
    -32.195  0.0000E+00  0.0000E+00  0.2400E+02  0.2400E+02
    -31.977  0.0000E+00  0.0000E+00  0.2400E+02  0.2400E+02
    -31.759  0.0000E+00  0.0000E+00  0.2400E+02  0.2400E+02
    -31.541  0.0000E+00  0.0000E+00  0.2400E+02  0.2400E+02
    -31.323  0.0000E+00  0.0000E+00  0.2400E+02  0.2400E+02
    -31.105  0.0000E+00  0.0000E+00  0.2400E+02  0.2400E+02
    -30.887  0.0000E+00  0.0000E+00  0.2400E+02  0.2400E+02
    -30.669  0.0000E+00  0.0000E+00  0.2400E+02  0.2400E+02
    -30.451  0.0000E+00  0.0000E+00  0.2400E+02  0.2400E+02
    -30.233  0.0000E+00  0.0000E+00  0.2400E+02  0.2400E+02
    -30.015  0.0000E+00  0.0000E+00  0.2400E+02  0.2400E+02
    -29.797  0.0000E+00  0.0000E+00  0.2400E+02  0.2400E+02
    -29.579  0.0000E+00  0.0000E+00  0.2400E+02  0.2400E+02
    -29.361  0.0000E+00  0.0000E+00  0.2400E+02  0.2400E+02
    -29.143  0.0000E+00  0.0000E+00  0.2400E+02  0.2400E+02
    -28.925  0.0000E+00  0.0000E+00  0.2400E+02  0.2400E+02
    -28.707  0.0000E+00  0.0000E+00  0.2400E+02  0.2400E+02
    -28.489  0.0000E+00  0.0000E+00  0.2400E+02  0.2400E+02
    -28.271  0.0000E+00  0.0000E+00  0.2400E+02  0.2400E+02
    -28.053  0.0000E+00  0.0000E+00  0.2400E+02  0.2400E+02
    -27.835  0.0000E+00  0.0000E+00  0.2400E+02  0.2400E+02
    -27.617  0.0000E+00  0.0000E+00  0.2400E+02  0.2400E+02
    -27.399  0.0000E+00  0.0000E+00  0.2400E+02  0.2400E+02
    -27.181  0.0000E+00  0.0000E+00  0.2400E+02  0.2400E+02
    -26.963  0.0000E+00  0.0000E+00  0.2400E+02  0.2400E+02
    -26.745  0.0000E+00  0.0000E+00  0.2400E+02  0.2400E+02
    -26.527  0.0000E+00  0.0000E+00  0.2400E+02  0.2400E+02
    -26.309  0.0000E+00  0.0000E+00  0.2400E+02  0.2400E+02
    -26.091  0.0000E+00  0.0000E+00  0.2400E+02  0.2400E+02
    -25.873  0.0000E+00  0.0000E+00  0.2400E+02  0.2400E+02
    -25.655  0.0000E+00  0.0000E+00  0.2400E+02  0.2400E+02
    -25.437  0.0000E+00  0.0000E+00  0.2400E+02  0.2400E+02
    -25.219  0.0000E+00  0.0000E+00  0.2400E+02  0.2400E+02
    -25.001  0.0000E+00  0.0000E+00  0.2400E+02  0.2400E+02
    -24.783  0.0000E+00  0.0000E+00  0.2400E+02  0.2400E+02
    -24.565  0.0000E+00  0.0000E+00  0.2400E+02  0.2400E+02
    -24.347  0.0000E+00  0.0000E+00  0.2400E+02  0.2400E+02
    -24.129  0.0000E+00  0.0000E+00  0.2400E+02  0.2400E+02
    -23.911  0.0000E+00  0.0000E+00  0.2400E+02  0.2400E+02
    -23.693  0.0000E+00  0.0000E+00  0.2400E+02  0.2400E+02
    -23.475  0.0000E+00  0.0000E+00  0.2400E+02  0.2400E+02
    -23.257  0.0000E+00  0.0000E+00  0.2400E+02  0.2400E+02
    -23.039  0.0000E+00  0.0000E+00  0.2400E+02  0.2400E+02
    -22.821  0.0000E+00  0.0000E+00  0.2400E+02  0.2400E+02
    -22.603  0.0000E+00  0.0000E+00  0.2400E+02  0.2400E+02
    -22.385  0.0000E+00  0.0000E+00  0.2400E+02  0.2400E+02
    -22.167  0.0000E+00  0.0000E+00  0.2400E+02  0.2400E+02
    -21.949  0.0000E+00  0.0000E+00  0.2400E+02  0.2400E+02
    -21.731  0.0000E+00  0.0000E+00  0.2400E+02  0.2400E+02
    -21.513  0.0000E+00  0.0000E+00  0.2400E+02  0.2400E+02
    -21.295  0.0000E+00  0.0000E+00  0.2400E+02  0.2400E+02
    -21.077  0.0000E+00  0.0000E+00  0.2400E+02  0.2400E+02
    -20.859  0.0000E+00  0.0000E+00  0.2400E+02  0.2400E+02
    -20.641  0.0000E+00  0.0000E+00  0.2400E+02  0.2400E+02
    -20.423  0.0000E+00  0.0000E+00  0.2400E+02  0.2400E+02
    -20.205  0.0000E+00  0.0000E+00  0.2400E+02  0.2400E+02
    -19.987  0.0000E+00  0.0000E+00  0.2400E+02  0.2400E+02
    -19.769  0.0000E+00  0.0000E+00  0.2400E+02  0.2400E+02
    -19.551  0.0000E+00  0.0000E+00  0.2400E+02  0.2400E+02
    -19.333  0.0000E+00  0.0000E+00  0.2400E+02  0.2400E+02
    -19.116  0.0000E+00  0.0000E+00  0.2400E+02  0.2400E+02
    -18.898  0.0000E+00  0.0000E+00  0.2400E+02  0.2400E+02
    -18.680  0.0000E+00  0.0000E+00  0.2400E+02  0.2400E+02
    -18.462  0.0000E+00  0.0000E+00  0.2400E+02  0.2400E+02
    -18.244  0.0000E+00  0.0000E+00  0.2400E+02  0.2400E+02
    -18.026  0.0000E+00  0.0000E+00  0.2400E+02  0.2400E+02
    -17.808  0.0000E+00  0.0000E+00  0.2400E+02  0.2400E+02
    -17.590  0.0000E+00  0.0000E+00  0.2400E+02  0.2400E+02
    -17.372  0.0000E+00  0.0000E+00  0.2400E+02  0.2400E+02
    -17.154  0.0000E+00  0.0000E+00  0.2400E+02  0.2400E+02
    -16.936  0.0000E+00  0.0000E+00  0.2400E+02  0.2400E+02
    -16.718  0.0000E+00  0.0000E+00  0.2400E+02  0.2400E+02
    -16.500  0.0000E+00  0.0000E+00  0.2400E+02  0.2400E+02
    -16.282  0.0000E+00  0.0000E+00  0.2400E+02  0.2400E+02
    -16.064  0.0000E+00  0.0000E+00  0.2400E+02  0.2400E+02
    -15.846  0.0000E+00  0.0000E+00  0.2400E+02  0.2400E+02
    -15.628  0.0000E+00  0.0000E+00  0.2400E+02  0.2400E+02
    -15.410  0.0000E+00  0.0000E+00  0.2400E+02  0.2400E+02
    -15.192  0.0000E+00  0.0000E+00  0.2400E+02  0.2400E+02
    -14.974  0.0000E+00  0.0000E+00  0.2400E+02  0.2400E+02
    -14.756  0.0000E+00  0.0000E+00  0.2400E+02  0.2400E+02
    -14.538  0.0000E+00  0.0000E+00  0.2400E+02  0.2400E+02
    -14.320  0.0000E+00  0.0000E+00  0.2400E+02  0.2400E+02
    -14.102  0.0000E+00  0.0000E+00  0.2400E+02  0.2400E+02
    -13.884  0.0000E+00  0.0000E+00  0.2400E+02  0.2400E+02
    -13.666  0.0000E+00  0.0000E+00  0.2400E+02  0.2400E+02
    -13.448  0.0000E+00  0.0000E+00  0.2400E+02  0.2400E+02
    -13.230  0.0000E+00  0.0000E+00  0.2400E+02  0.2400E+02
    -13.012  0.0000E+00  0.0000E+00  0.2400E+02  0.2400E+02
    -12.794  0.0000E+00  0.0000E+00  0.2400E+02  0.2400E+02
    -12.576  0.0000E+00  0.0000E+00  0.2400E+02  0.2400E+02
    -12.358  0.0000E+00  0.0000E+00  0.2400E+02  0.2400E+02
    -12.140  0.0000E+00  0.0000E+00  0.2400E+02  0.2400E+02
    -11.922  0.0000E+00  0.0000E+00  0.2400E+02  0.2400E+02
    -11.704  0.0000E+00  0.0000E+00  0.2400E+02  0.2400E+02
    -11.486  0.0000E+00  0.0000E+00  0.2400E+02  0.2400E+02
    -11.268  0.0000E+00  0.0000E+00  0.2400E+02  0.2400E+02
    -11.050  0.0000E+00  0.0000E+00  0.2400E+02  0.2400E+02
    -10.832  0.0000E+00  0.0000E+00  0.2400E+02  0.2400E+02
    -10.614  0.0000E+00  0.0000E+00  0.2400E+02  0.2400E+02
    -10.396  0.1408E+01  0.1408E+01  0.2412E+02  0.2412E+02
    -10.178  0.2123E+01  0.2123E+01  0.2448E+02  0.2448E+02
     -9.960  0.3693E+01  0.3693E+01  0.2506E+02  0.2506E+02
     -9.742  0.4523E+01  0.4523E+01  0.2580E+02  0.2580E+02
     -9.524  0.1057E+02  0.1057E+02  0.2700E+02  0.2700E+02
     -9.306  0.1426E+02  0.1426E+02  0.2896E+02  0.2896E+02
     -9.088  0.1254E+02  0.1254E+02  0.3087E+02  0.3087E+02
     -8.870  0.4157E+01  0.4157E+01  0.3197E+02  0.3197E+02
     -8.652  0.3814E-01  0.3814E-01  0.3200E+02  0.3200E+02
     -8.434  0.0000E+00  0.0000E+00  0.3200E+02  0.3200E+02
     -8.216  0.0000E+00  0.0000E+00  0.3200E+02  0.3200E+02
     -7.998  0.0000E+00  0.0000E+00  0.3200E+02  0.3200E+02
     -7.780  0.0000E+00  0.0000E+00  0.3200E+02  0.3200E+02
     -7.562  0.0000E+00  0.0000E+00  0.3200E+02  0.3200E+02
     -7.344  0.0000E+00  0.0000E+00  0.3200E+02  0.3200E+02
     -7.126  0.0000E+00  0.0000E+00  0.3200E+02  0.3200E+02
     -6.908  0.0000E+00  0.0000E+00  0.3200E+02  0.3200E+02
     -6.690  0.0000E+00  0.0000E+00  0.3200E+02  0.3200E+02
     -6.472  0.0000E+00  0.0000E+00  0.3200E+02  0.3200E+02
     -6.254  0.0000E+00  0.0000E+00  0.3200E+02  0.3200E+02
     -6.036  0.0000E+00  0.0000E+00  0.3200E+02  0.3200E+02
     -5.818  0.0000E+00  0.0000E+00  0.3200E+02  0.3200E+02
     -5.600  0.0000E+00  0.0000E+00  0.3200E+02  0.3200E+02
     -5.382  0.0000E+00  0.0000E+00  0.3200E+02  0.3200E+02
     -5.164  0.0000E+00  0.0000E+00  0.3200E+02  0.3200E+02
     -4.946  0.0000E+00  0.0000E+00  0.3200E+02  0.3200E+02
     -4.728  0.0000E+00  0.0000E+00  0.3200E+02  0.3200E+02
     -4.510  0.0000E+00  0.0000E+00  0.3200E+02  0.3200E+02
     -4.292  0.0000E+00  0.0000E+00  0.3200E+02  0.3200E+02
     -4.074  0.0000E+00  0.0000E+00  0.3200E+02  0.3200E+02
     -3.856  0.0000E+00  0.0000E+00  0.3200E+02  0.3200E+02
     -3.638  0.0000E+00  0.0000E+00  0.3200E+02  0.3200E+02
     -3.420  0.0000E+00  0.0000E+00  0.3200E+02  0.3200E+02
     -3.202  0.0000E+00  0.0000E+00  0.3200E+02  0.3200E+02
     -2.984  0.0000E+00  0.0000E+00  0.3200E+02  0.3200E+02
     -2.766  0.0000E+00  0.0000E+00  0.3200E+02  0.3200E+02
     -2.548  0.0000E+00  0.0000E+00  0.3200E+02  0.3200E+02
     -2.330  0.2769E+00  0.2769E+00  0.3201E+02  0.3201E+02
     -2.112  0.7111E+00  0.7111E+00  0.3211E+02  0.3211E+02
     -1.894  0.5900E+01  0.5900E+01  0.3275E+02  0.3275E+02
     -1.676  0.9781E+01  0.9781E+01  0.3419E+02  0.3419E+02
     -1.458  0.8491E+01  0.8491E+01  0.3583E+02  0.3583E+02
     -1.240  0.6656E+01  0.6656E+01  0.3706E+02  0.3706E+02
     -1.022  0.9510E+01  0.9510E+01  0.3837E+02  0.3837E+02
     -0.804  0.6751E+01  0.6751E+01  0.3962E+02  0.3962E+02
     -0.586  0.1021E+02  0.1021E+02  0.4136E+02  0.4136E+02
     -0.368  0.1339E+02  0.1339E+02  0.4296E+02  0.4296E+02
     -0.150  0.1830E+02  0.1830E+02  0.4526E+02  0.4526E+02
      0.068  0.1425E+02  0.1425E+02  0.4761E+02  0.4761E+02
      0.286  0.1544E+02  0.1544E+02  0.4985E+02  0.4985E+02
      0.504  0.1420E+02  0.1420E+02  0.5232E+02  0.5232E+02
      0.722  0.9631E+01  0.9631E+01  0.5404E+02  0.5404E+02
      0.940  0.1009E+02  0.1009E+02  0.5556E+02  0.5556E+02
      1.158  0.2010E+02  0.2010E+02  0.5782E+02  0.5782E+02
      1.376  0.1619E+02  0.1619E+02  0.6013E+02  0.6013E+02
      1.594  0.2618E+02  0.2618E+02  0.6349E+02  0.6349E+02
      1.812  0.2900E+02  0.2900E+02  0.6789E+02  0.6789E+02
      2.030  0.1380E+02  0.1380E+02  0.7027E+02  0.7027E+02
      2.248  0.1154E+02  0.1154E+02  0.7196E+02  0.7196E+02
      2.466  0.8819E+01  0.8819E+01  0.7349E+02  0.7349E+02
      2.684  0.8582E+01  0.8582E+01  0.7482E+02  0.7482E+02
      2.902  0.3744E+01  0.3744E+01  0.7586E+02  0.7586E+02
      3.120  0.5884E+01  0.5884E+01  0.7676E+02  0.7676E+02
      3.338  0.7648E+01  0.7648E+01  0.7782E+02  0.7782E+02
      3.556  0.1570E+02  0.1570E+02  0.7972E+02  0.7972E+02
      3.774  0.8961E+01  0.8961E+01  0.8115E+02  0.8115E+02
      3.992  0.2538E+02  0.2538E+02  0.8374E+02  0.8374E+02
      4.209  0.1640E+02  0.1640E+02  0.8646E+02  0.8646E+02
      4.427  0.1601E+02  0.1601E+02  0.8868E+02  0.8868E+02
      4.645  0.1228E+02  0.1228E+02  0.9076E+02  0.9076E+02
      4.863  0.1395E+02  0.1395E+02  0.9260E+02  0.9260E+02
      5.081  0.9411E+01  0.9415E+01  0.9483E+02  0.9483E+02
      5.299  0.1410E+01  0.1407E+01  0.9511E+02  0.9511E+02
      5.517  0.1680E+01  0.1679E+01  0.9535E+02  0.9535E+02
      5.735  0.1563E+01  0.1564E+01  0.9567E+02  0.9567E+02
      5.953  0.9152E+00  0.9446E+00  0.9593E+02  0.9593E+02
      6.171  0.4693E+00  0.4603E+00  0.9605E+02  0.9605E+02
      6.389  0.5842E+00  0.5734E+00  0.9616E+02  0.9616E+02
      6.607  0.8685E+00  0.8662E+00  0.9632E+02  0.9632E+02
      6.825  0.1450E+01  0.1463E+01  0.9658E+02  0.9658E+02
      7.043  0.2176E+01  0.2313E+01  0.9698E+02  0.9699E+02
      7.261  0.3351E+01  0.3345E+01  0.9757E+02  0.9756E+02
      7.479  0.4612E+01  0.5191E+01  0.9845E+02  0.9844E+02
      7.697  0.3408E+01  0.3533E+01  0.9939E+02  0.9938E+02
      7.915  0.1509E+01  0.1487E+01  0.9981E+02  0.9983E+02
      8.133  0.2150E+00  0.3627E+00  0.1000E+03  0.9998E+02
      8.351  0.0000E+00  0.2080E-01  0.1000E+03  0.1000E+03
      8.569  0.0000E+00  0.0000E+00  0.1000E+03  0.1000E+03
      8.787  0.0000E+00  0.0000E+00  0.1000E+03  0.1000E+03
      9.005  0.0000E+00  0.0000E+00  0.1000E+03  0.1000E+03
      9.223  0.0000E+00  0.0000E+00  0.1000E+03  0.1000E+03
      9.441  0.0000E+00  0.0000E+00  0.1000E+03  0.1000E+03
      9.659  0.0000E+00  0.0000E+00  0.1000E+03  0.1000E+03
      9.877  0.0000E+00  0.0000E+00  0.1000E+03  0.1000E+03
     10.095  0.0000E+00  0.0000E+00  0.1000E+03  0.1000E+03
     10.313  0.0000E+00  0.0000E+00  0.1000E+03  0.1000E+03
     10.531  0.0000E+00  0.0000E+00  0.1000E+03  0.1000E+03
     10.749  0.0000E+00  0.0000E+00  0.1000E+03  0.1000E+03
     10.967  0.0000E+00  0.0000E+00  0.1000E+03  0.1000E+03
     11.185  0.0000E+00  0.0000E+00  0.1000E+03  0.1000E+03
     11.18519816    -54.21199540  301      3.58362636      1.00000000
    -54.212  0.0000E+00  0.0000E+00  0.0000E+00  0.0000E+00  0.0000E+00  0.0000E+00  0.0000E+00  0.0000E+00  0.0000E+00  0.0000E+00  0.0000E+00  0.0000E+00  0.0000E+00  0.0000E+00  0.0000E+00  0.0000E+00  0.0000E+00  0.0000E+00
    -53.994  0.0000E+00  0.0000E+00  0.0000E+00  0.0000E+00  0.0000E+00  0.0000E+00  0.0000E+00  0.0000E+00  0.0000E+00  0.0000E+00  0.0000E+00  0.0000E+00  0.0000E+00  0.0000E+00  0.0000E+00  0.0000E+00  0.0000E+00  0.0000E+00
    -53.776  0.0000E+00  0.0000E+00  0.0000E+00  0.0000E+00  0.0000E+00  0.0000E+00  0.0000E+00  0.0000E+00  0.0000E+00  0.0000E+00  0.0000E+00  0.0000E+00  0.0000E+00  0.0000E+00  0.0000E+00  0.0000E+00  0.0000E+00  0.0000E+00
    -53.558  0.0000E+00  0.0000E+00  0.0000E+00  0.0000E+00  0.0000E+00  0.0000E+00  0.0000E+00  0.0000E+00  0.0000E+00  0.0000E+00  0.0000E+00  0.0000E+00  0.0000E+00  0.0000E+00  0.0000E+00  0.0000E+00  0.0000E+00  0.0000E+00
    -53.340  0.0000E+00  0.0000E+00  0.0000E+00  0.0000E+00  0.0000E+00  0.0000E+00  0.0000E+00  0.0000E+00  0.0000E+00  0.0000E+00  0.0000E+00  0.0000E+00  0.0000E+00  0.0000E+00  0.0000E+00  0.0000E+00  0.0000E+00  0.0000E+00
    -53.122  0.0000E+00  0.0000E+00  0.0000E+00  0.0000E+00  0.0000E+00  0.0000E+00  0.0000E+00  0.0000E+00  0.0000E+00  0.0000E+00  0.0000E+00  0.0000E+00  0.0000E+00  0.0000E+00  0.0000E+00  0.0000E+00  0.0000E+00  0.0000E+00
    -52.904  0.0000E+00  0.0000E+00  0.0000E+00  0.0000E+00  0.0000E+00  0.0000E+00  0.0000E+00  0.0000E+00  0.0000E+00  0.0000E+00  0.0000E+00  0.0000E+00  0.0000E+00  0.0000E+00  0.0000E+00  0.0000E+00  0.0000E+00  0.0000E+00
    -52.686  0.0000E+00  0.0000E+00  0.0000E+00  0.0000E+00  0.0000E+00  0.0000E+00  0.0000E+00  0.0000E+00  0.0000E+00  0.0000E+00  0.0000E+00  0.0000E+00  0.0000E+00  0.0000E+00  0.0000E+00  0.0000E+00  0.0000E+00  0.0000E+00
    -52.468  0.0000E+00  0.0000E+00  0.0000E+00  0.0000E+00  0.0000E+00  0.0000E+00  0.0000E+00  0.0000E+00  0.0000E+00  0.0000E+00  0.0000E+00  0.0000E+00  0.0000E+00  0.0000E+00  0.0000E+00  0.0000E+00  0.0000E+00  0.0000E+00
    -52.250  0.0000E+00  0.0000E+00  0.0000E+00  0.0000E+00  0.0000E+00  0.0000E+00  0.0000E+00  0.0000E+00  0.0000E+00  0.0000E+00  0.0000E+00  0.0000E+00  0.0000E+00  0.0000E+00  0.0000E+00  0.0000E+00  0.0000E+00  0.0000E+00
    -52.032  0.0000E+00  0.0000E+00  0.0000E+00  0.0000E+00  0.0000E+00  0.0000E+00  0.0000E+00  0.0000E+00  0.0000E+00  0.0000E+00  0.0000E+00  0.0000E+00  0.0000E+00  0.0000E+00  0.0000E+00  0.0000E+00  0.0000E+00  0.0000E+00
    -51.814  0.0000E+00  0.0000E+00  0.0000E+00  0.0000E+00  0.0000E+00  0.0000E+00  0.0000E+00  0.0000E+00  0.0000E+00  0.0000E+00  0.0000E+00  0.0000E+00  0.0000E+00  0.0000E+00  0.0000E+00  0.0000E+00  0.0000E+00  0.0000E+00
    -51.596  0.0000E+00  0.0000E+00  0.0000E+00  0.0000E+00  0.0000E+00  0.0000E+00  0.0000E+00  0.0000E+00  0.0000E+00  0.0000E+00  0.0000E+00  0.0000E+00  0.0000E+00  0.0000E+00  0.0000E+00  0.0000E+00  0.0000E+00  0.0000E+00
    -51.378  0.0000E+00  0.0000E+00  0.0000E+00  0.0000E+00  0.0000E+00  0.0000E+00  0.0000E+00  0.0000E+00  0.0000E+00  0.0000E+00  0.0000E+00  0.0000E+00  0.0000E+00  0.0000E+00  0.0000E+00  0.0000E+00  0.0000E+00  0.0000E+00
    -51.160  0.2515E-10  0.1238E-05  0.1401E+01  0.6152E-04  0.3167E+01  0.3963E-05  0.6988E-10  0.2919E-07  0.2328E-05  0.3453E-08  0.1005E-09  0.2164E-06  0.1015E-09  0.3743E-06  0.5230E-05  0.3355E-09  0.7879E-10  0.1361E-05
    -50.942  0.1669E-03  0.2199E-05  0.3168E+01  0.1250E-03  0.1402E+01  0.1423E-06  0.3957E+01  0.1644E-05  0.5326E-05  0.1257E-06  0.9484E-09  0.1095E-07  0.7645E-04  0.8639E-06  0.2327E-05  0.2527E-09  0.2294E-03  0.2690E-05
    -50.724  0.6910E-04  0.1881E-08  0.2297E-09  0.6075E-07  0.1650E-10  0.6199E-09  0.2288E+01  0.5130E-06  0.6927E-11  0.4355E-07  0.3477E-09  0.9241E-10  0.3162E-04  0.7297E-09  0.5379E-11  0.1696E-09  0.9487E-04  0.1133E-09
    -50.506  0.0000E+00  0.0000E+00  0.0000E+00  0.0000E+00  0.0000E+00  0.0000E+00  0.0000E+00  0.0000E+00  0.0000E+00  0.0000E+00  0.0000E+00  0.0000E+00  0.0000E+00  0.0000E+00  0.0000E+00  0.0000E+00  0.0000E+00  0.0000E+00
    -50.288  0.0000E+00  0.0000E+00  0.0000E+00  0.0000E+00  0.0000E+00  0.0000E+00  0.0000E+00  0.0000E+00  0.0000E+00  0.0000E+00  0.0000E+00  0.0000E+00  0.0000E+00  0.0000E+00  0.0000E+00  0.0000E+00  0.0000E+00  0.0000E+00
    -50.070  0.0000E+00  0.0000E+00  0.0000E+00  0.0000E+00  0.0000E+00  0.0000E+00  0.0000E+00  0.0000E+00  0.0000E+00  0.0000E+00  0.0000E+00  0.0000E+00  0.0000E+00  0.0000E+00  0.0000E+00  0.0000E+00  0.0000E+00  0.0000E+00
    -49.852  0.0000E+00  0.0000E+00  0.0000E+00  0.0000E+00  0.0000E+00  0.0000E+00  0.0000E+00  0.0000E+00  0.0000E+00  0.0000E+00  0.0000E+00  0.0000E+00  0.0000E+00  0.0000E+00  0.0000E+00  0.0000E+00  0.0000E+00  0.0000E+00
    -49.634  0.0000E+00  0.0000E+00  0.0000E+00  0.0000E+00  0.0000E+00  0.0000E+00  0.0000E+00  0.0000E+00  0.0000E+00  0.0000E+00  0.0000E+00  0.0000E+00  0.0000E+00  0.0000E+00  0.0000E+00  0.0000E+00  0.0000E+00  0.0000E+00
    -49.416  0.0000E+00  0.0000E+00  0.0000E+00  0.0000E+00  0.0000E+00  0.0000E+00  0.0000E+00  0.0000E+00  0.0000E+00  0.0000E+00  0.0000E+00  0.0000E+00  0.0000E+00  0.0000E+00  0.0000E+00  0.0000E+00  0.0000E+00  0.0000E+00
    -49.198  0.0000E+00  0.0000E+00  0.0000E+00  0.0000E+00  0.0000E+00  0.0000E+00  0.0000E+00  0.0000E+00  0.0000E+00  0.0000E+00  0.0000E+00  0.0000E+00  0.0000E+00  0.0000E+00  0.0000E+00  0.0000E+00  0.0000E+00  0.0000E+00
    -48.980  0.0000E+00  0.0000E+00  0.0000E+00  0.0000E+00  0.0000E+00  0.0000E+00  0.0000E+00  0.0000E+00  0.0000E+00  0.0000E+00  0.0000E+00  0.0000E+00  0.0000E+00  0.0000E+00  0.0000E+00  0.0000E+00  0.0000E+00  0.0000E+00
    -48.762  0.0000E+00  0.0000E+00  0.0000E+00  0.0000E+00  0.0000E+00  0.0000E+00  0.0000E+00  0.0000E+00  0.0000E+00  0.0000E+00  0.0000E+00  0.0000E+00  0.0000E+00  0.0000E+00  0.0000E+00  0.0000E+00  0.0000E+00  0.0000E+00
    -48.544  0.0000E+00  0.0000E+00  0.0000E+00  0.0000E+00  0.0000E+00  0.0000E+00  0.0000E+00  0.0000E+00  0.0000E+00  0.0000E+00  0.0000E+00  0.0000E+00  0.0000E+00  0.0000E+00  0.0000E+00  0.0000E+00  0.0000E+00  0.0000E+00
    -48.326  0.2654E-05  0.6875E-04  0.1321E-03  0.2164E+01  0.2311E-05  0.2404E+01  0.2671E-05  0.4053E+01  0.2139E-06  0.4441E-05  0.2547E-06  0.1648E-08  0.7998E-06  0.3164E-04  0.2228E-09  0.4949E-05  0.2967E-05  0.9512E-04
    -48.108  0.5038E-08  0.2159E-03  0.1855E-06  0.3584E-09  0.2062E-10  0.1697E-08  0.1430E-05  0.3515E+01  0.1292E-06  0.1017E-10  0.3569E-10  0.4181E-08  0.1383E-08  0.9933E-04  0.8891E-10  0.7987E-11  0.1367E-08  0.2986E-03
    -47.890  0.2336E-05  0.3977E-04  0.9775E-04  0.2406E+01  0.7331E-06  0.2166E+01  0.4736E-06  0.1636E+01  0.4331E-07  0.4965E-05  0.4215E-07  0.9060E-09  0.9173E-06  0.1828E-04  0.1174E-09  0.4489E-05  0.2811E-05  0.5492E-04
    -47.672  0.0000E+00  0.0000E+00  0.0000E+00  0.0000E+00  0.0000E+00  0.0000E+00  0.0000E+00  0.0000E+00  0.0000E+00  0.0000E+00  0.0000E+00  0.0000E+00  0.0000E+00  0.0000E+00  0.0000E+00  0.0000E+00  0.0000E+00  0.0000E+00
    -47.454  0.0000E+00  0.0000E+00  0.0000E+00  0.0000E+00  0.0000E+00  0.0000E+00  0.0000E+00  0.0000E+00  0.0000E+00  0.0000E+00  0.0000E+00  0.0000E+00  0.0000E+00  0.0000E+00  0.0000E+00  0.0000E+00  0.0000E+00  0.0000E+00
    -47.236  0.0000E+00  0.0000E+00  0.0000E+00  0.0000E+00  0.0000E+00  0.0000E+00  0.0000E+00  0.0000E+00  0.0000E+00  0.0000E+00  0.0000E+00  0.0000E+00  0.0000E+00  0.0000E+00  0.0000E+00  0.0000E+00  0.0000E+00  0.0000E+00
    -47.018  0.0000E+00  0.0000E+00  0.0000E+00  0.0000E+00  0.0000E+00  0.0000E+00  0.0000E+00  0.0000E+00  0.0000E+00  0.0000E+00  0.0000E+00  0.0000E+00  0.0000E+00  0.0000E+00  0.0000E+00  0.0000E+00  0.0000E+00  0.0000E+00
    -46.800  0.0000E+00  0.0000E+00  0.0000E+00  0.0000E+00  0.0000E+00  0.0000E+00  0.0000E+00  0.0000E+00  0.0000E+00  0.0000E+00  0.0000E+00  0.0000E+00  0.0000E+00  0.0000E+00  0.0000E+00  0.0000E+00  0.0000E+00  0.0000E+00
    -46.582  0.0000E+00  0.0000E+00  0.0000E+00  0.0000E+00  0.0000E+00  0.0000E+00  0.0000E+00  0.0000E+00  0.0000E+00  0.0000E+00  0.0000E+00  0.0000E+00  0.0000E+00  0.0000E+00  0.0000E+00  0.0000E+00  0.0000E+00  0.0000E+00
    -46.364  0.0000E+00  0.0000E+00  0.0000E+00  0.0000E+00  0.0000E+00  0.0000E+00  0.0000E+00  0.0000E+00  0.0000E+00  0.0000E+00  0.0000E+00  0.0000E+00  0.0000E+00  0.0000E+00  0.0000E+00  0.0000E+00  0.0000E+00  0.0000E+00
    -46.146  0.0000E+00  0.0000E+00  0.0000E+00  0.0000E+00  0.0000E+00  0.0000E+00  0.0000E+00  0.0000E+00  0.0000E+00  0.0000E+00  0.0000E+00  0.0000E+00  0.0000E+00  0.0000E+00  0.0000E+00  0.0000E+00  0.0000E+00  0.0000E+00
    -45.928  0.0000E+00  0.0000E+00  0.0000E+00  0.0000E+00  0.0000E+00  0.0000E+00  0.0000E+00  0.0000E+00  0.0000E+00  0.0000E+00  0.0000E+00  0.0000E+00  0.0000E+00  0.0000E+00  0.0000E+00  0.0000E+00  0.0000E+00  0.0000E+00
    -45.710  0.0000E+00  0.0000E+00  0.0000E+00  0.0000E+00  0.0000E+00  0.0000E+00  0.0000E+00  0.0000E+00  0.0000E+00  0.0000E+00  0.0000E+00  0.0000E+00  0.0000E+00  0.0000E+00  0.0000E+00  0.0000E+00  0.0000E+00  0.0000E+00
    -45.492  0.0000E+00  0.0000E+00  0.0000E+00  0.0000E+00  0.0000E+00  0.0000E+00  0.0000E+00  0.0000E+00  0.0000E+00  0.0000E+00  0.0000E+00  0.0000E+00  0.0000E+00  0.0000E+00  0.0000E+00  0.0000E+00  0.0000E+00  0.0000E+00
    -45.274  0.0000E+00  0.0000E+00  0.0000E+00  0.0000E+00  0.0000E+00  0.0000E+00  0.0000E+00  0.0000E+00  0.0000E+00  0.0000E+00  0.0000E+00  0.0000E+00  0.0000E+00  0.0000E+00  0.0000E+00  0.0000E+00  0.0000E+00  0.0000E+00
    -45.056  0.0000E+00  0.0000E+00  0.0000E+00  0.0000E+00  0.0000E+00  0.0000E+00  0.0000E+00  0.0000E+00  0.0000E+00  0.0000E+00  0.0000E+00  0.0000E+00  0.0000E+00  0.0000E+00  0.0000E+00  0.0000E+00  0.0000E+00  0.0000E+00
    -44.838  0.0000E+00  0.0000E+00  0.0000E+00  0.0000E+00  0.0000E+00  0.0000E+00  0.0000E+00  0.0000E+00  0.0000E+00  0.0000E+00  0.0000E+00  0.0000E+00  0.0000E+00  0.0000E+00  0.0000E+00  0.0000E+00  0.0000E+00  0.0000E+00
    -44.620  0.0000E+00  0.0000E+00  0.0000E+00  0.0000E+00  0.0000E+00  0.0000E+00  0.0000E+00  0.0000E+00  0.0000E+00  0.0000E+00  0.0000E+00  0.0000E+00  0.0000E+00  0.0000E+00  0.0000E+00  0.0000E+00  0.0000E+00  0.0000E+00
    -44.402  0.0000E+00  0.0000E+00  0.0000E+00  0.0000E+00  0.0000E+00  0.0000E+00  0.0000E+00  0.0000E+00  0.0000E+00  0.0000E+00  0.0000E+00  0.0000E+00  0.0000E+00  0.0000E+00  0.0000E+00  0.0000E+00  0.0000E+00  0.0000E+00
    -44.184  0.0000E+00  0.0000E+00  0.0000E+00  0.0000E+00  0.0000E+00  0.0000E+00  0.0000E+00  0.0000E+00  0.0000E+00  0.0000E+00  0.0000E+00  0.0000E+00  0.0000E+00  0.0000E+00  0.0000E+00  0.0000E+00  0.0000E+00  0.0000E+00
    -43.966  0.0000E+00  0.0000E+00  0.0000E+00  0.0000E+00  0.0000E+00  0.0000E+00  0.0000E+00  0.0000E+00  0.0000E+00  0.0000E+00  0.0000E+00  0.0000E+00  0.0000E+00  0.0000E+00  0.0000E+00  0.0000E+00  0.0000E+00  0.0000E+00
    -43.748  0.0000E+00  0.0000E+00  0.0000E+00  0.0000E+00  0.0000E+00  0.0000E+00  0.0000E+00  0.0000E+00  0.0000E+00  0.0000E+00  0.0000E+00  0.0000E+00  0.0000E+00  0.0000E+00  0.0000E+00  0.0000E+00  0.0000E+00  0.0000E+00
    -43.530  0.0000E+00  0.0000E+00  0.0000E+00  0.0000E+00  0.0000E+00  0.0000E+00  0.0000E+00  0.0000E+00  0.0000E+00  0.0000E+00  0.0000E+00  0.0000E+00  0.0000E+00  0.0000E+00  0.0000E+00  0.0000E+00  0.0000E+00  0.0000E+00
    -43.312  0.0000E+00  0.0000E+00  0.0000E+00  0.0000E+00  0.0000E+00  0.0000E+00  0.0000E+00  0.0000E+00  0.0000E+00  0.0000E+00  0.0000E+00  0.0000E+00  0.0000E+00  0.0000E+00  0.0000E+00  0.0000E+00  0.0000E+00  0.0000E+00