       N       E                     dE             d eps       ncg     rms          rms(c)
DAV:   1     0.201221795201E+04    0.20122E+04   -0.88966E+04 35340   0.195E+03
DAV:   2     0.122975527205E+03   -0.18892E+04   -0.18350E+04 32000   0.568E+02
DAV:   3    -0.851958386670E+02   -0.20817E+03   -0.18528E+03 45860   0.187E+02
DAV:   4    -0.997442605074E+02   -0.14548E+02   -0.14242E+02 47140   0.513E+01
DAV:   5    -0.100084072861E+03   -0.33981E+00   -0.33905E+00 44740   0.821E+00    0.276E+01
RMM:   6    -0.112940863703E+03   -0.12857E+02   -0.17263E+02 32068   0.851E+01    0.526E+01
RMM:   7    -0.909426233470E+02    0.21998E+02   -0.43911E+01 32024   0.511E+01    0.112E+01
RMM:   8    -0.915247659936E+02   -0.58214E+00   -0.30675E+00 41159   0.506E+00    0.518E+00
RMM:   9    -0.916124070937E+02   -0.87641E-01   -0.89125E-01 44556   0.288E+00    0.277E+00
RMM:  10    -0.916279160167E+02   -0.15509E-01   -0.28051E-01 45971   0.162E+00    0.145E+00
RMM:  11    -0.916314634532E+02   -0.35474E-02   -0.60514E-02 42228   0.102E+00    0.538E-01
RMM:  12    -0.916388484984E+02   -0.73850E-02   -0.17465E-02 42971   0.460E-01    0.303E-01
RMM:  13    -0.916387870501E+02    0.61448E-04   -0.42859E-03 37761   0.219E-01    0.131E-01
RMM:  14    -0.916388031586E+02   -0.16109E-04   -0.12728E-03 25773   0.133E-01
   1 F= -.98264191E+02 E0= -.98255335E+02  d E =-.982642E+02  mag=     0.0000
       N       E                     dE             d eps       ncg     rms          rms(c)
DAV:   1    -0.916681581396E+02   -0.29371E-01   -0.14258E+00 38020   0.400E+00    0.112E+00
RMM:   2    -0.916600163144E+02    0.81418E-02   -0.99257E-02 37341   0.165E+00    0.849E-01
RMM:   3    -0.916564518498E+02    0.35645E-02   -0.39211E-02 33713   0.117E+00    0.592E-01
RMM:   4    -0.916531100791E+02    0.33418E-02   -0.12203E-02 33280   0.623E-01    0.158E-01
RMM:   5    -0.916535630979E+02   -0.45302E-03   -0.46641E-03 32832   0.231E-01    0.109E-01
RMM:   6    -0.916535108061E+02    0.52292E-04   -0.78174E-04 24104   0.137E-01
   2 F= -.98278695E+02 E0= -.98269307E+02  d E =-.145042E-01  mag=     0.0000
       N       E                     dE             d eps       ncg     rms          rms(c)
DAV:   1    -0.916539720852E+02   -0.40899E-03   -0.22116E-02 38280   0.502E-01    0.153E-01
RMM:   2    -0.916538056508E+02    0.16643E-03   -0.15600E-03 28419   0.211E-01
   3 F= -.98278971E+02 E0= -.98269358E+02  d E =-.147799E-01  mag=     0.0000
