 vasp.6.4.1 05Apr23 (build Jun 01 2023 13:46:15) complex                        
  
 executed on             LinuxIFC date 2023.12.16  21:33:35
 running   20 mpi-ranks, on    5 nodes
 distrk:  each k-point on   20 cores,    1 groups
 distr:  one band on NCORE=   1 cores,   20 groups


--------------------------------------------------------------------------------------------------------


 INCAR:
   ALGO = Fast
   EDIFF = 0.0002
   ENCUT = 550
   IBRION = 2
   ISIF = 4
   ISMEAR = 0
   ISPIN = 2
   IVDW = 13
   LASPH = True
   LMAXMIX = 4
   LORBIT = 11
   LREAL = Auto
   LWAVE = False
   MAGMOM = 1*2.588 2*-2.588 2*2.588 2*-2.588 1*2.588 8*0.0
   NELM = 100
   NSW = 99
   PREC = Accurate
   SIGMA = 0.05

 POTCAR:   PAW_PBE Fe_pv 06Sep2000                
 POTCAR:   PAW_PBE Se 06Sep2000                   
 -----------------------------------------------------------------------------
|                                                                             |
|           W    W    AA    RRRRR   N    N  II  N    N   GGGG   !!!           |
|           W    W   A  A   R    R  NN   N  II  NN   N  G    G  !!!           |
|           W    W  A    A  R    R  N N  N  II  N N  N  G       !!!           |
|           W WW W  AAAAAA  RRRRR   N  N N  II  N  N N  G  GGG   !            |
|           WW  WW  A    A  R   R   N   NN  II  N   NN  G    G                |
|           W    W  A    A  R    R  N    N  II  N    N   GGGG   !!!           |
|                                                                             |
|     For optimal performance we recommend to set                             |
|       NCORE = 2 up to number-of-cores-per-socket                            |
|     NCORE specifies how many cores store one orbital (NPAR=cpu/NCORE).      |
|     This setting can greatly improve the performance of VASP for DFT.       |
|     The default, NCORE=1 might be grossly inefficient on modern             |
|     multi-core architectures or massively parallel machines. Do your        |
|     own testing! More info at https://www.vasp.at/wiki/index.php/NCORE      |
|     Unfortunately you need to use the default for GW and RPA                |
|     calculations (for HF NCORE is supported but not extensively tested      |
|     yet).                                                                   |
|                                                                             |
 -----------------------------------------------------------------------------

 POTCAR:   PAW_PBE Fe_pv 06Sep2000                
   VRHFIN =Fe:  3pd7s1                                                                              
   LEXCH  = PE                                                                                      
   EATOM  =  2456.8974 eV,  180.5769 Ry                                                             
                                                                                                    
   TITEL  = PAW_PBE Fe_pv 06Sep2000                                                                 
   LULTRA =        F    use ultrasoft PP ?                                                          
   IUNSCR =        1    unscreen: 0-lin 1-nonlin 2-no                                               
   RPACOR =    1.750    partial core radius                                                         
   POMASS =   55.847; ZVAL   =   14.000    mass and valenz                                          
   RCORE  =    2.200    outmost cutoff radius                                                       
   RWIGS  =    2.200; RWIGS  =    1.164    wigner-seitz radius (au A)                               
   ENMAX  =  293.238; ENMIN  =  219.929 eV                                                          
   RCLOC  =    1.701    cutoff for local pot                                                        
   LCOR   =        T    correct aug charges                                                         
   LPAW   =        T    paw PP                                                                      
   EAUG   =  578.342                                                                                
   DEXC   =    -.002                                                                                
   RMAX   =    2.693    core radius for proj-oper                                                   
   RAUG   =    1.300    factor for augmentation sphere                                              
   RDEP   =    2.296    radius for radial grids                                                     
   QCUT   =   -4.642; QGAM   =    9.285    optimization parameters                                  
                                                                                                    
   Description                                                                                      
     l     E      TYP  RCUT    TYP  RCUT                                                            
     1   .000     23  2.000                                                                         
     1  -.400     23  2.000                                                                         
     2   .000     23  2.200                                                                         
     2   .000     23  2.200                                                                         
     0   .000     23  2.000                                                                         
     0  2.000     23  2.000                                                                         
     3   .000      7   .000                                                                         
  local pseudopotential read in
  partial core-charges read in
  atomic valenz-charges read in
  non local Contribution for L=           1  read in
    real space projection operators read in
  non local Contribution for L=           1  read in
    real space projection operators read in
  non local Contribution for L=           2  read in
    real space projection operators read in
  non local Contribution for L=           2  read in
    real space projection operators read in
  non local Contribution for L=           0  read in
    real space projection operators read in
  non local Contribution for L=           0  read in
    real space projection operators read in
    PAW grid and wavefunctions read in
 
   number of l-projection  operators is LMAX  =           6
   number of lm-projection operators is LMMAX =          18
 
 POTCAR:   PAW_PBE Se 06Sep2000                   
   VRHFIN =Se: s2p4                                                                                 
   LEXCH  = PE                                                                                      
   EATOM  =   256.9644 eV,   18.8864 Ry                                                             
                                                                                                    
   TITEL  = PAW_PBE Se 06Sep2000                                                                    
   LULTRA =        F    use ultrasoft PP ?                                                          
   IUNSCR =        1    unscreen: 0-lin 1-nonlin 2-no                                               
   RPACOR =    1.900    partial core radius                                                         
   POMASS =   78.960; ZVAL   =    6.000    mass and valenz                                          
   RCORE  =    2.100    outmost cutoff radius                                                       
   RWIGS  =    2.200; RWIGS  =    1.164    wigner-seitz radius (au A)                               
   ENMAX  =  211.534; ENMIN  =  158.651 eV                                                          
   ICORE  =        3    local potential                                                             
   LCOR   =        T    correct aug charges                                                         
   LPAW   =        T    paw PP                                                                      
   EAUG   =  446.842                                                                                
   DEXC   =    -.031                                                                                
   RMAX   =    3.170    core radius for proj-oper                                                   
   RAUG   =    1.300    factor for augmentation sphere                                              
   RDEP   =    2.177    radius for radial grids                                                     
   QCUT   =   -3.943; QGAM   =    7.886    optimization parameters                                  
                                                                                                    
   Description                                                                                      
     l     E      TYP  RCUT    TYP  RCUT                                                            
     0   .000     23  2.100                                                                         
     0   .000     23  2.100                                                                         
     1   .000     23  2.100                                                                         
     1   .000     23  2.100                                                                         
     2   .000     23  2.100                                                                         
     3  -.100      7  2.100                                                                         
  local pseudopotential read in
  partial core-charges read in
  atomic valenz-charges read in
  non local Contribution for L=           0  read in
    real space projection operators read in
  non local Contribution for L=           0  read in
    real space projection operators read in
  non local Contribution for L=           1  read in
    real space projection operators read in
  non local Contribution for L=           1  read in
    real space projection operators read in
  non local Contribution for L=           2  read in
    real space projection operators read in
    PAW grid and wavefunctions read in
 
   number of l-projection  operators is LMAX  =           5
   number of lm-projection operators is LMMAX =          13
 
 Optimization of the real space projectors (new method)

 maximal supplied QI-value         = 17.01
 optimisation between [QCUT,QGAM] = [ 11.91, 23.98] = [ 39.69,161.04] Ry 
 Optimized for a Real-space Cutoff    1.45 Angstroem

   l    n(q)    QCUT    max X(q) W(low)/X(q) W(high)/X(q)  e(spline) 
   1     10    11.905     4.550    0.27E-05    0.11E-05    0.28E-07
   1     10    11.905     5.234    0.10E-04    0.61E-04    0.17E-06
   2      9    11.905     3.960    0.19E-04    0.73E-05    0.50E-07
   2      9    11.905    29.565    0.24E-03    0.51E-04    0.27E-06
   0     10    11.905    23.582    0.17E-04    0.10E-05    0.14E-07
   0     10    11.905    39.747    0.23E-04    0.68E-05    0.74E-07
 Optimization of the real space projectors (new method)

 maximal supplied QI-value         = 17.95
 optimisation between [QCUT,QGAM] = [ 11.85, 23.88] = [ 39.31,159.64] Ry 
 Optimized for a Real-space Cutoff    1.18 Angstroem

   l    n(q)    QCUT    max X(q) W(low)/X(q) W(high)/X(q)  e(spline) 
   0      8    11.849     6.499    0.17E-04    0.94E-05    0.89E-08
   0      8    11.849    52.623    0.21E-03    0.78E-04    0.81E-07
   1      8    11.849     4.229    0.79E-04    0.83E-04    0.23E-07
   1      8    11.849    29.991    0.12E-03    0.43E-03    0.14E-06
   2      7    11.849     3.719    0.22E-03    0.64E-04    0.38E-07
 PAW_PBE Fe_pv 06Sep2000                :
 energy of atom  1       EATOM=-2456.8974
 kinetic energy error for atom=    0.0060 (will be added to EATOM!!)
 PAW_PBE Se 06Sep2000                   :
 energy of atom  2       EATOM= -256.9644
 kinetic energy error for atom=    0.0007 (will be added to EATOM!!)
 
 
 POSCAR: Fe8 Se8
  positions in direct lattice
  velocities in cartesian coordinates
 exchange correlation table for  LEXCH =        8
   RHO(1)=    0.500       N(1)  =     2000
   RHO(2)=  100.500       N(2)  =     4000
 


--------------------------------------------------------------------------------------------------------


 ion  position               nearest neighbor table
   1  0.000  0.000  0.000-  11 2.29  14 2.29   5 2.41   8 2.41
   2  0.000  0.500  0.000-  12 2.29  13 2.29   6 2.41   7 2.41
   3  0.500  0.000  0.000-   9 2.29  16 2.29   6 2.41   7 2.41
   4  0.500  0.500  0.000-  10 2.29  15 2.29   5 2.41   8 2.41
   5  0.250  0.250  0.000-   9 2.29  13 2.29   1 2.41   4 2.41
   6  0.250  0.750  0.000-  10 2.29  14 2.29   2 2.41   3 2.41
   7  0.750  0.250  0.000-  11 2.29  15 2.29   2 2.41   3 2.41
   8  0.750  0.750  0.000-  12 2.29  16 2.29   1 2.41   4 2.41
   9  0.375  0.125  0.690-   3 2.29   5 2.29
  10  0.375  0.625  0.690-   4 2.29   6 2.29
  11  0.875  0.125  0.690-   1 2.29   7 2.29
  12  0.875  0.625  0.690-   2 2.29   8 2.29
  13  0.125  0.375  0.310-   2 2.29   5 2.29
  14  0.125  0.875  0.310-   1 2.29   6 2.29
  15  0.625  0.375  0.310-   4 2.29   7 2.29
  16  0.625  0.875  0.310-   3 2.29   8 2.29
 
  LATTYP: Found a base centered orthorhombic cell.
 ALAT       =     9.6344665917
 B/A-ratio  =     1.1948702252
 C/A-ratio  =     0.5970585394
  
  Lattice vectors:
  
 A1 = (   4.8172332958,  -5.7559686329,   0.0000000000)
 A2 = (   4.8172332958,   5.7559686329,   0.0000000000)
 A3 = (   0.0000000000,   0.0000000000,   5.7523405515)


Analysis of symmetry for initial positions (statically):
=====================================================================
 Subroutine PRICEL returns following result:
 
  LATTYP: Found a base centered orthorhombic cell.
 ALAT       =     4.8172332958
 B/A-ratio  =     1.1948702252
 C/A-ratio  =     1.1941170789
  
  Lattice vectors:
  
 A1 = (   2.4086166479,  -2.8779843165,   0.0000000000)
 A2 = (   2.4086166479,   2.8779843165,   0.0000000000)
 A3 = (   0.0000000000,   0.0000000000,   5.7523405515)
 
   4 primitive cells build up your supercell.
 

 Routine SETGRP: Setting up the symmetry group for a 
 base centered orthorhombic supercell.


 Subroutine GETGRP returns: Found  8 space group operations
 (whereof  4 operations were pure point group operations)
 out of a pool of  8 trial point group operations.


The static configuration has the point symmetry C_2h.
 The point group associated with its full space group is D_2h.


Analysis of symmetry for dynamics (positions and initial velocities):
=====================================================================
 Subroutine PRICEL returns following result:
 
  LATTYP: Found a base centered orthorhombic cell.
 ALAT       =     4.8172332958
 B/A-ratio  =     1.1948702252
 C/A-ratio  =     1.1941170789
  
  Lattice vectors:
  
 A1 = (   2.4086166479,  -2.8779843165,   0.0000000000)
 A2 = (   2.4086166479,   2.8779843165,   0.0000000000)
 A3 = (   0.0000000000,   0.0000000000,   5.7523405515)
 
   4 primitive cells build up your supercell.
 

 Routine SETGRP: Setting up the symmetry group for a 
 base centered orthorhombic supercell.


 Subroutine GETGRP returns: Found  8 space group operations
 (whereof  4 operations were pure point group operations)
 out of a pool of  8 trial point group operations.


The dynamic configuration has the point symmetry C_2h.
 The point group associated with its full space group is D_2h.


Analysis of structural, dynamic, and magnetic symmetry:
=====================================================================
 Subroutine PRICEL returns following result:
 
  LATTYP: Found a base centered orthorhombic cell.
 ALAT       =     4.8172332958
 B/A-ratio  =     1.1948702252
 C/A-ratio  =     1.1941170789
  
  Lattice vectors:
  
 A1 = (   2.4086166479,  -2.8779843165,   0.0000000000)
 A2 = (   2.4086166479,   2.8779843165,   0.0000000000)
 A3 = (   0.0000000000,   0.0000000000,   5.7523405515)
 
   4 primitive cells build up your supercell.
 

 Routine SETGRP: Setting up the symmetry group for a 
 base centered orthorhombic supercell.


 Subroutine GETGRP returns: Found  8 space group operations
 (whereof  4 operations were pure point group operations)
 out of a pool of  8 trial point group operations.


The overall configuration has the point symmetry C_2h.
 The point group associated with its full space group is D_2h.


 Subroutine INISYM returns: Found  8 space group operations
 (whereof  4 operations are pure point group operations),
 and found     4 'primitive' translations


----------------------------------------------------------------------------------------

                                     Primitive cell                                     

  volume of cell :      79.7500

  direct lattice vectors                    reciprocal lattice vectors
     2.408616648 -2.877984316  0.000000000     0.207588036 -0.173732705  0.000000000
     2.408616648  2.877984316  0.000000000     0.207588036  0.173732705  0.000000000
     0.000000000  0.000000000  5.752340552     0.000000000  0.000000000  0.173842281

  length of vectors
     3.752895933  3.752895933  5.752340552     0.270695115  0.270695115  0.173842281

  position of ions in fractional coordinates (direct lattice)
     0.000000000  0.000000000  0.000000000
     0.500000000  0.500000000  0.000000000
     0.750000000  0.250000000  0.689602781
     0.250000000  0.750000000  0.310397219

  ion indices of the primitive-cell ions
   primitive index   ion index
                 1           1
                 2           5
                 3          11
                 4          14

----------------------------------------------------------------------------------------

 
 
 KPOINTS: KPOINTS                                 

Automatic generation of k-mesh.
 Grid dimensions read from file:
 generate k-points for:    7    7    9

 Generating k-lattice:

  Cartesian coordinates                     Fractional coordinates (reciprocal lattice)
     0.014827717 -0.012409479  0.000000000     0.142857143  0.000000000  0.000000000
     0.014827717  0.012409479  0.000000000     0.000000000  0.142857143  0.000000000
     0.000000000  0.000000000  0.019315809     0.000000000  0.000000000  0.111111111

  Length of vectors
     0.019335365  0.019335365  0.019315809

  Shift w.r.t. Gamma in fractional coordinates (k-lattice)
     0.000000000  0.000000000  0.000000000

 
 Subroutine IBZKPT returns following result:
 ===========================================
 
 Found     80 irreducible k-points:
 
 Following reciprocal coordinates:
            Coordinates               Weight
  0.000000  0.000000  0.000000      1.000000
  0.142857  0.000000  0.000000      4.000000
  0.285714  0.000000  0.000000      4.000000
  0.428571 -0.000000  0.000000      4.000000
  0.142857  0.142857  0.000000      2.000000
  0.285714  0.142857  0.000000      4.000000
  0.428571  0.142857  0.000000      4.000000
 -0.428571  0.142857  0.000000      4.000000
 -0.285714  0.142857  0.000000      4.000000
 -0.142857  0.142857  0.000000      2.000000
  0.285714  0.285714  0.000000      2.000000
  0.428571  0.285714  0.000000      4.000000
 -0.428571  0.285714  0.000000      4.000000
 -0.285714  0.285714  0.000000      2.000000
  0.428571  0.428571  0.000000      2.000000
 -0.428571  0.428571  0.000000      2.000000
  0.000000  0.000000  0.111111      2.000000
  0.142857  0.000000  0.111111      8.000000
  0.285714  0.000000  0.111111      8.000000
  0.428571 -0.000000  0.111111      8.000000
  0.142857  0.142857  0.111111      4.000000
  0.285714  0.142857  0.111111      8.000000
  0.428571  0.142857  0.111111      8.000000
 -0.428571  0.142857  0.111111      8.000000
 -0.285714  0.142857  0.111111      8.000000
 -0.142857  0.142857  0.111111      4.000000
  0.285714  0.285714  0.111111      4.000000
  0.428571  0.285714  0.111111      8.000000
 -0.428571  0.285714  0.111111      8.000000
 -0.285714  0.285714  0.111111      4.000000
  0.428571  0.428571  0.111111      4.000000
 -0.428571  0.428571  0.111111      4.000000
  0.000000  0.000000  0.222222      2.000000
  0.142857  0.000000  0.222222      8.000000
  0.285714  0.000000  0.222222      8.000000
  0.428571 -0.000000  0.222222      8.000000
  0.142857  0.142857  0.222222      4.000000
  0.285714  0.142857  0.222222      8.000000
  0.428571  0.142857  0.222222      8.000000
 -0.428571  0.142857  0.222222      8.000000
 -0.285714  0.142857  0.222222      8.000000
 -0.142857  0.142857  0.222222      4.000000
  0.285714  0.285714  0.222222      4.000000
  0.428571  0.285714  0.222222      8.000000
 -0.428571  0.285714  0.222222      8.000000
 -0.285714  0.285714  0.222222      4.000000
  0.428571  0.428571  0.222222      4.000000
 -0.428571  0.428571  0.222222      4.000000
  0.000000  0.000000  0.333333      2.000000
  0.142857  0.000000  0.333333      8.000000
  0.285714  0.000000  0.333333      8.000000
  0.428571 -0.000000  0.333333      8.000000
  0.142857  0.142857  0.333333      4.000000
  0.285714  0.142857  0.333333      8.000000
  0.428571  0.142857  0.333333      8.000000
 -0.428571  0.142857  0.333333      8.000000
 -0.285714  0.142857  0.333333      8.000000
 -0.142857  0.142857  0.333333      4.000000
  0.285714  0.285714  0.333333      4.000000
  0.428571  0.285714  0.333333      8.000000
 -0.428571  0.285714  0.333333      8.000000
 -0.285714  0.285714  0.333333      4.000000
  0.428571  0.428571  0.333333      4.000000
 -0.428571  0.428571  0.333333      4.000000
  0.000000  0.000000  0.444444      2.000000
  0.142857  0.000000  0.444444      8.000000
  0.285714  0.000000  0.444444      8.000000
  0.428571 -0.000000  0.444444      8.000000
  0.142857  0.142857  0.444444      4.000000
  0.285714  0.142857  0.444444      8.000000
  0.428571  0.142857  0.444444      8.000000
 -0.428571  0.142857  0.444444      8.000000
 -0.285714  0.142857  0.444444      8.000000
 -0.142857  0.142857  0.444444      4.000000
  0.285714  0.285714  0.444444      4.000000
  0.428571  0.285714  0.444444      8.000000
 -0.428571  0.285714  0.444444      8.000000
 -0.285714  0.285714  0.444444      4.000000
  0.428571  0.428571  0.444444      4.000000
 -0.428571  0.428571  0.444444      4.000000
 
 Following cartesian coordinates:
            Coordinates               Weight
  0.000000  0.000000  0.000000      1.000000
  0.014828 -0.012409  0.000000      4.000000
  0.029655 -0.024819  0.000000      4.000000
  0.044483 -0.037228  0.000000      4.000000
  0.029655  0.000000  0.000000      2.000000
  0.044483 -0.012409  0.000000      4.000000
  0.059311 -0.024819  0.000000      4.000000
 -0.029655  0.049638  0.000000      4.000000
 -0.014828  0.037228  0.000000      4.000000
  0.000000  0.024819  0.000000      2.000000
  0.059311 -0.000000  0.000000      2.000000
  0.074139 -0.012409  0.000000      4.000000
 -0.014828  0.062047  0.000000      4.000000
 -0.000000  0.049638  0.000000      2.000000
  0.088966 -0.000000  0.000000      2.000000
  0.000000  0.074457  0.000000      2.000000
  0.000000  0.000000  0.019316      2.000000
  0.014828 -0.012409  0.019316      8.000000
  0.029655 -0.024819  0.019316      8.000000
  0.044483 -0.037228  0.019316      8.000000
  0.029655  0.000000  0.019316      4.000000
  0.044483 -0.012409  0.019316      8.000000
  0.059311 -0.024819  0.019316      8.000000
 -0.029655  0.049638  0.019316      8.000000
 -0.014828  0.037228  0.019316      8.000000
  0.000000  0.024819  0.019316      4.000000
  0.059311 -0.000000  0.019316      4.000000
  0.074139 -0.012409  0.019316      8.000000
 -0.014828  0.062047  0.019316      8.000000
 -0.000000  0.049638  0.019316      4.000000
  0.088966 -0.000000  0.019316      4.000000
  0.000000  0.074457  0.019316      4.000000
  0.000000  0.000000  0.038632      2.000000
  0.014828 -0.012409  0.038632      8.000000
  0.029655 -0.024819  0.038632      8.000000
  0.044483 -0.037228  0.038632      8.000000
  0.029655  0.000000  0.038632      4.000000
  0.044483 -0.012409  0.038632      8.000000
  0.059311 -0.024819  0.038632      8.000000
 -0.029655  0.049638  0.038632      8.000000
 -0.014828  0.037228  0.038632      8.000000
  0.000000  0.024819  0.038632      4.000000
  0.059311 -0.000000  0.038632      4.000000
  0.074139 -0.012409  0.038632      8.000000
 -0.014828  0.062047  0.038632      8.000000
 -0.000000  0.049638  0.038632      4.000000
  0.088966 -0.000000  0.038632      4.000000
  0.000000  0.074457  0.038632      4.000000
  0.000000  0.000000  0.057947      2.000000
  0.014828 -0.012409  0.057947      8.000000
  0.029655 -0.024819  0.057947      8.000000
  0.044483 -0.037228  0.057947      8.000000
  0.029655  0.000000  0.057947      4.000000
  0.044483 -0.012409  0.057947      8.000000
  0.059311 -0.024819  0.057947      8.000000
 -0.029655  0.049638  0.057947      8.000000
 -0.014828  0.037228  0.057947      8.000000
  0.000000  0.024819  0.057947      4.000000
  0.059311 -0.000000  0.057947      4.000000
  0.074139 -0.012409  0.057947      8.000000
 -0.014828  0.062047  0.057947      8.000000
 -0.000000  0.049638  0.057947      4.000000
  0.088966 -0.000000  0.057947      4.000000
  0.000000  0.074457  0.057947      4.000000
  0.000000  0.000000  0.077263      2.000000
  0.014828 -0.012409  0.077263      8.000000
  0.029655 -0.024819  0.077263      8.000000
  0.044483 -0.037228  0.077263      8.000000
  0.029655  0.000000  0.077263      4.000000
  0.044483 -0.012409  0.077263      8.000000
  0.059311 -0.024819  0.077263      8.000000
 -0.029655  0.049638  0.077263      8.000000
 -0.014828  0.037228  0.077263      8.000000
  0.000000  0.024819  0.077263      4.000000
  0.059311 -0.000000  0.077263      4.000000
  0.074139 -0.012409  0.077263      8.000000
 -0.014828  0.062047  0.077263      8.000000
 -0.000000  0.049638  0.077263      4.000000
  0.088966 -0.000000  0.077263      4.000000
  0.000000  0.074457  0.077263      4.000000
 


--------------------------------------------------------------------------------------------------------




 Dimension of arrays:
   k-points           NKPTS =     80   k-points in BZ     NKDIM =     80   number of bands    NBANDS=    100
   number of dos      NEDOS =    301   number of ions     NIONS =     16
   non local maximal  LDIM  =      6   non local SUM 2l+1 LMDIM =     18
   total plane-waves  NPLWV = 172800
   max r-space proj   IRMAX =   6938   max aug-charges    IRDMAX=  23820
   dimension x,y,z NGX =    60 NGY =   60 NGZ =   48
   dimension x,y,z NGXF=   120 NGYF=  120 NGZF=   96
   support grid    NGXF=   120 NGYF=  120 NGZF=   96
   ions per type =               8   8
   NGX,Y,Z   is equivalent  to a cutoff of  13.29, 13.29, 13.87 a.u.
   NGXF,Y,Z  is equivalent  to a cutoff of  26.58, 26.58, 27.74 a.u.

 SYSTEM =  unknown system                          
 POSCAR =  Fe8 Se8                                 

 Startparameter for this run:
   NWRITE =      2    write-flag & timer
   PREC   = accura    normal or accurate (medium, high low for compatibility)
   ISTART =      0    job   : 0-new  1-cont  2-samecut
   ICHARG =      2    charge: 1-file 2-atom 10-const
   ISPIN  =      2    spin polarized calculation?
   LNONCOLLINEAR =      F non collinear calculations
   LSORBIT =      F    spin-orbit coupling
   INIWAV =      1    electr: 0-lowe 1-rand  2-diag
   LASPH  =      T    aspherical Exc in radial PAW
 Electronic Relaxation 1
   ENCUT  =  550.0 eV  40.42 Ry    6.36 a.u.  14.35 14.35 11.00*2*pi/ulx,y,z
   ENINI  =  550.0     initial cutoff
   ENAUG  =  578.3 eV  augmentation charge cutoff
   NELM   =    100;   NELMIN=  2; NELMDL=  0     # of ELM steps 
   EDIFF  = 0.2E-03   stopping-criterion for ELM
   LREAL  =      T    real-space projection
   NLSPLINE    = F    spline interpolate recip. space projectors
   LCOMPAT=      F    compatible to vasp.4.4
   GGA_COMPAT  = T    GGA compatible to vasp.4.4-vasp.4.6
   LMAXPAW     = -100 max onsite density
   LMAXMIX     =    4 max onsite mixed and CHGCAR
   VOSKOWN=      0    Vosko Wilk Nusair interpolation
   ROPT   =   -0.00025  -0.00025
 Ionic relaxation
   EDIFFG = 0.2E-02   stopping-criterion for IOM
   NSW    =     99    number of steps for IOM
   NBLOCK =      1;   KBLOCK =     99    inner block; outer block 
   IBRION =      2    ionic relax: 0-MD 1-quasi-New 2-CG
   NFREE  =      1    steps in history (QN), initial steepest desc. (CG)
   ISIF   =      4    stress and relaxation
   IWAVPR =     11    prediction:  0-non 1-charg 2-wave 3-comb
   ISYM   =      2    0-nonsym 1-usesym 2-fastsym
   LCORR  =      T    Harris-Foulkes like correction to forces

   POTIM  = 0.5000    time-step for ionic-motion
   TEIN   =    0.0    initial temperature
   TEBEG  =    0.0;   TEEND  =   0.0 temperature during run
   SMASS  =  -3.00    Nose mass-parameter (am)
   estimated Nose-frequenzy (Omega)   =  0.10E-29 period in steps = 0.13E+47 mass=  -0.129E-26a.u.
   SCALEE = 1.0000    scale energy and forces
   NPACO  =    256;   APACO  = 10.0  distance and # of slots for P.C.
   PSTRESS=    0.0 pullay stress

  Mass of Ions in am
   POMASS =  55.85 78.96
  Ionic Valenz
   ZVAL   =  14.00  6.00
  Atomic Wigner-Seitz radii
   RWIGS  =  -1.00 -1.00
  virtual crystal weights 
   VCA    =   1.00  1.00
   NELECT =     160.0000    total number of electrons
   NUPDOWN=      -1.0000    fix difference up-down

 DOS related values:
   EMIN   =  10.00;   EMAX   =-10.00  energy-range for DOS
   EFERMI =   0.00;   METHOD = LEGACY      
   ISMEAR =     0;   SIGMA  =   0.05  broadening in eV -4-tet -1-fermi 0-gaus

 Electronic relaxation 2 (details)
   IALGO  =     68    algorithm
   LDIAG  =      T    sub-space diagonalisation (order eigenvalues)
   LSUBROT=      F    optimize rotation matrix (better conditioning)
   TURBO    =      0    0=normal 1=particle mesh
   IRESTART =      0    0=no restart 2=restart with 2 vectors
   NREBOOT  =      0    no. of reboots
   NMIN     =      0    reboot dimension
   EREF     =   0.00    reference energy to select bands
   IMIX   =      4    mixing-type and parameters
     AMIX     =   0.40;   BMIX     =  1.00
     AMIX_MAG =   1.60;   BMIX_MAG =  1.00
     AMIN     =   0.10
     WC   =   100.;   INIMIX=   1;  MIXPRE=   1;  MAXMIX= -45

 Intra band minimization:
   WEIMIN = 0.0010     energy-eigenvalue tresh-hold
   EBREAK =  0.50E-06  absolut break condition
   DEPER  =   0.30     relativ break condition  

   TIME   =   0.40     timestep for ELM

  volume/ion in A,a.u.               =      19.94       134.54
  Fermi-wavevector in a.u.,A,eV,Ry     =   1.300722  2.458009 23.019406  1.691879
  Thomas-Fermi vector in A             =   2.431903
 
 Write flags
   LWAVE        =      F    write WAVECAR
   LDOWNSAMPLE  =      F    k-point downsampling of WAVECAR
   LCHARG       =      T    write CHGCAR
   LVTOT        =      F    write LOCPOT, total local potential
   LVHAR        =      F    write LOCPOT, Hartree potential only
   LELF         =      F    write electronic localiz. function (ELF)
   LORBIT       =     11    0 simple, 1 ext, 2 COOP (PROOUT), +10 PAW based schemes


 Dipole corrections
   LMONO  =      F    monopole corrections only (constant potential shift)
   LDIPOL =      F    correct potential (dipole corrections)
   IDIPOL =      0    1-x, 2-y, 3-z, 4-all directions 
   EPSILON=  1.0000000 bulk dielectric constant

 Exchange correlation treatment:
   GGA     =    --    GGA type
   LEXCH   =     8    internal setting for exchange type
   LIBXC   =     F    Libxc                    
   VOSKOWN =     0    Vosko Wilk Nusair interpolation
   LHFCALC =     F    Hartree Fock is set to
   LHFONE  =     F    Hartree Fock one center treatment
   AEXX    =    0.0000 exact exchange contribution

 Linear response parameters
   LEPSILON=     F    determine dielectric tensor
   LRPA    =     F    only Hartree local field effects (RPA)
   LNABLA  =     F    use nabla operator in PAW spheres
   LVEL    =     F    velocity operator in full k-point grid
   CSHIFT  =0.1000    complex shift for real part using Kramers Kronig
   OMEGAMAX=  -1.0    maximum frequency
   DEG_THRESHOLD= 0.2000000E-02 threshold for treating states as degnerate
   RTIME   =   -0.100 relaxation time in fs
  (WPLASMAI=    0.000 imaginary part of plasma frequency in eV, 0.658/RTIME)
   DFIELD  = 0.0000000 0.0000000 0.0000000 field for delta impulse in time
 
  Optional k-point grid parameters
   LKPOINTS_OPT  =     F    use optional k-point grid
   KPOINTS_OPT_MODE=     1    mode for optional k-point grid
 
 Orbital magnetization related:
   ORBITALMAG=     F  switch on orbital magnetization
   LCHIMAG   =     F  perturbation theory with respect to B field
   DQ        =  0.001000  dq finite difference perturbation B field
   LLRAUG    =     F  two centre corrections for induced B field
   LBONE     =     F  B-component reconstruction in AE one-centre
   LVGVCALC  =     T  calculate vGv susceptibility
   LVGVAPPL  =     F  apply vGv susceptibility instead of pGv for G=0

 Random number generation:
   RANDOM_GENERATOR = DEFAULT
   PCG_SEED         = not used


--------------------------------------------------------------------------------------------------------


 conjugate gradient relaxation of ions
 charge density and potential will be updated during run
 spin polarized calculation
 RMM-DIIS sequential band-by-band and
  variant of blocked Davidson during initial phase
 perform sub-space diagonalisation
    before iterative eigenvector-optimisation
 modified Broyden-mixing scheme, WC =      100.0
 initial mixing is a Kerker type mixing with AMIX =  0.4000 and BMIX =      1.0000
 Hartree-type preconditioning will be used
 using additional bands           20
 real space projection scheme for non local part
 use partial core corrections
 calculate Harris-corrections to forces 
   (improved forces if not selfconsistent)
 use gradient corrections 
 use of overlap-Matrix (Vanderbilt PP)
 Gauss-broadening in eV      SIGMA  =   0.05


--------------------------------------------------------------------------------------------------------


  energy-cutoff  :      550.00
  volume of cell :      319.00
      direct lattice vectors                 reciprocal lattice vectors
     4.817233296 -5.755968633  0.000000000     0.103794018 -0.086866352  0.000000000
     4.817233296  5.755968633  0.000000000     0.103794018  0.086866352  0.000000000
     0.000000000  0.000000000  5.752340552     0.000000000  0.000000000  0.173842281

  length of vectors
     7.505791866  7.505791866  5.752340552     0.135347558  0.135347558  0.173842281


 
 k-points in units of 2pi/SCALE and weight: KPOINTS                                 
   0.00000000  0.00000000  0.00000000       0.002
   0.01482772 -0.01240948  0.00000000       0.009
   0.02965543 -0.02481896  0.00000000       0.009
   0.04448315 -0.03722844  0.00000000       0.009
   0.02965543 -0.00000000  0.00000000       0.005
   0.04448315 -0.01240948  0.00000000       0.009
   0.05931087 -0.02481896  0.00000000       0.009
  -0.02965543  0.04963792  0.00000000       0.009
  -0.01482772  0.03722844  0.00000000       0.009
  -0.00000000  0.02481896  0.00000000       0.005
   0.05931087  0.00000000  0.00000000       0.005
   0.07413858 -0.01240948  0.00000000       0.009
  -0.01482772  0.06204739  0.00000000       0.009
   0.00000000  0.04963792  0.00000000       0.005
   0.08896630 -0.00000000  0.00000000       0.005
  -0.00000000  0.07445687  0.00000000       0.005
   0.00000000  0.00000000  0.01931581       0.005
   0.01482772 -0.01240948  0.01931581       0.018
   0.02965543 -0.02481896  0.01931581       0.018
   0.04448315 -0.03722844  0.01931581       0.018
   0.02965543 -0.00000000  0.01931581       0.009
   0.04448315 -0.01240948  0.01931581       0.018
   0.05931087 -0.02481896  0.01931581       0.018
  -0.02965543  0.04963792  0.01931581       0.018
  -0.01482772  0.03722844  0.01931581       0.018
  -0.00000000  0.02481896  0.01931581       0.009
   0.05931087  0.00000000  0.01931581       0.009
   0.07413858 -0.01240948  0.01931581       0.018
  -0.01482772  0.06204739  0.01931581       0.018
   0.00000000  0.04963792  0.01931581       0.009
   0.08896630 -0.00000000  0.01931581       0.009
  -0.00000000  0.07445687  0.01931581       0.009
   0.00000000  0.00000000  0.03863162       0.005
   0.01482772 -0.01240948  0.03863162       0.018
   0.02965543 -0.02481896  0.03863162       0.018
   0.04448315 -0.03722844  0.03863162       0.018
   0.02965543 -0.00000000  0.03863162       0.009
   0.04448315 -0.01240948  0.03863162       0.018
   0.05931087 -0.02481896  0.03863162       0.018
  -0.02965543  0.04963792  0.03863162       0.018
  -0.01482772  0.03722844  0.03863162       0.018
  -0.00000000  0.02481896  0.03863162       0.009
   0.05931087  0.00000000  0.03863162       0.009
   0.07413858 -0.01240948  0.03863162       0.018
  -0.01482772  0.06204739  0.03863162       0.018
   0.00000000  0.04963792  0.03863162       0.009
   0.08896630 -0.00000000  0.03863162       0.009
  -0.00000000  0.07445687  0.03863162       0.009
   0.00000000  0.00000000  0.05794743       0.005
   0.01482772 -0.01240948  0.05794743       0.018
   0.02965543 -0.02481896  0.05794743       0.018
   0.04448315 -0.03722844  0.05794743       0.018
   0.02965543 -0.00000000  0.05794743       0.009
   0.04448315 -0.01240948  0.05794743       0.018
   0.05931087 -0.02481896  0.05794743       0.018
  -0.02965543  0.04963792  0.05794743       0.018
  -0.01482772  0.03722844  0.05794743       0.018
  -0.00000000  0.02481896  0.05794743       0.009
   0.05931087  0.00000000  0.05794743       0.009
   0.07413858 -0.01240948  0.05794743       0.018
  -0.01482772  0.06204739  0.05794743       0.018
   0.00000000  0.04963792  0.05794743       0.009
   0.08896630 -0.00000000  0.05794743       0.009
  -0.00000000  0.07445687  0.05794743       0.009
   0.00000000  0.00000000  0.07726324       0.005
   0.01482772 -0.01240948  0.07726324       0.018
   0.02965543 -0.02481896  0.07726324       0.018
   0.04448315 -0.03722844  0.07726324       0.018
   0.02965543 -0.00000000  0.07726324       0.009
   0.04448315 -0.01240948  0.07726324       0.018
   0.05931087 -0.02481896  0.07726324       0.018
  -0.02965543  0.04963792  0.07726324       0.018
  -0.01482772  0.03722844  0.07726324       0.018
  -0.00000000  0.02481896  0.07726324       0.009
   0.05931087  0.00000000  0.07726324       0.009
   0.07413858 -0.01240948  0.07726324       0.018
  -0.01482772  0.06204739  0.07726324       0.018
   0.00000000  0.04963792  0.07726324       0.009
   0.08896630 -0.00000000  0.07726324       0.009
  -0.00000000  0.07445687  0.07726324       0.009
 
 k-points in reciprocal lattice and weights: KPOINTS                                 
   0.00000000  0.00000000  0.00000000       0.002
   0.14285714  0.00000000  0.00000000       0.009
   0.28571429  0.00000000  0.00000000       0.009
   0.42857143 -0.00000000  0.00000000       0.009
   0.14285714  0.14285714  0.00000000       0.005
   0.28571429  0.14285714  0.00000000       0.009
   0.42857143  0.14285714  0.00000000       0.009
  -0.42857143  0.14285714  0.00000000       0.009
  -0.28571429  0.14285714  0.00000000       0.009
  -0.14285714  0.14285714  0.00000000       0.005
   0.28571429  0.28571429  0.00000000       0.005
   0.42857143  0.28571429  0.00000000       0.009
  -0.42857143  0.28571429  0.00000000       0.009
  -0.28571429  0.28571429  0.00000000       0.005
   0.42857143  0.42857143  0.00000000       0.005
  -0.42857143  0.42857143  0.00000000       0.005
   0.00000000  0.00000000  0.11111111       0.005
   0.14285714  0.00000000  0.11111111       0.018
   0.28571429  0.00000000  0.11111111       0.018
   0.42857143 -0.00000000  0.11111111       0.018
   0.14285714  0.14285714  0.11111111       0.009
   0.28571429  0.14285714  0.11111111       0.018
   0.42857143  0.14285714  0.11111111       0.018
  -0.42857143  0.14285714  0.11111111       0.018
  -0.28571429  0.14285714  0.11111111       0.018
  -0.14285714  0.14285714  0.11111111       0.009
   0.28571429  0.28571429  0.11111111       0.009
   0.42857143  0.28571429  0.11111111       0.018
  -0.42857143  0.28571429  0.11111111       0.018
  -0.28571429  0.28571429  0.11111111       0.009
   0.42857143  0.42857143  0.11111111       0.009
  -0.42857143  0.42857143  0.11111111       0.009
   0.00000000  0.00000000  0.22222222       0.005
   0.14285714  0.00000000  0.22222222       0.018
   0.28571429  0.00000000  0.22222222       0.018
   0.42857143 -0.00000000  0.22222222       0.018
   0.14285714  0.14285714  0.22222222       0.009
   0.28571429  0.14285714  0.22222222       0.018
   0.42857143  0.14285714  0.22222222       0.018
  -0.42857143  0.14285714  0.22222222       0.018
  -0.28571429  0.14285714  0.22222222       0.018
  -0.14285714  0.14285714  0.22222222       0.009
   0.28571429  0.28571429  0.22222222       0.009
   0.42857143  0.28571429  0.22222222       0.018
  -0.42857143  0.28571429  0.22222222       0.018
  -0.28571429  0.28571429  0.22222222       0.009
   0.42857143  0.42857143  0.22222222       0.009
  -0.42857143  0.42857143  0.22222222       0.009
   0.00000000  0.00000000  0.33333333       0.005
   0.14285714  0.00000000  0.33333333       0.018
   0.28571429  0.00000000  0.33333333       0.018
   0.42857143 -0.00000000  0.33333333       0.018
   0.14285714  0.14285714  0.33333333       0.009
   0.28571429  0.14285714  0.33333333       0.018
   0.42857143  0.14285714  0.33333333       0.018
  -0.42857143  0.14285714  0.33333333       0.018
  -0.28571429  0.14285714  0.33333333       0.018
  -0.14285714  0.14285714  0.33333333       0.009
   0.28571429  0.28571429  0.33333333       0.009
   0.42857143  0.28571429  0.33333333       0.018
  -0.42857143  0.28571429  0.33333333       0.018
  -0.28571429  0.28571429  0.33333333       0.009
   0.42857143  0.42857143  0.33333333       0.009
  -0.42857143  0.42857143  0.33333333       0.009
   0.00000000  0.00000000  0.44444444       0.005
   0.14285714  0.00000000  0.44444444       0.018
   0.28571429  0.00000000  0.44444444       0.018
   0.42857143 -0.00000000  0.44444444       0.018
   0.14285714  0.14285714  0.44444444       0.009
   0.28571429  0.14285714  0.44444444       0.018
   0.42857143  0.14285714  0.44444444       0.018
  -0.42857143  0.14285714  0.44444444       0.018
  -0.28571429  0.14285714  0.44444444       0.018
  -0.14285714  0.14285714  0.44444444       0.009
   0.28571429  0.28571429  0.44444444       0.009
   0.42857143  0.28571429  0.44444444       0.018
  -0.42857143  0.28571429  0.44444444       0.018
  -0.28571429  0.28571429  0.44444444       0.009
   0.42857143  0.42857143  0.44444444       0.009
  -0.42857143  0.42857143  0.44444444       0.009
 
 position of ions in fractional coordinates (direct lattice) 
   0.00000000  0.00000000  0.00000000
   0.00000000  0.50000000  0.00000000
   0.50000000  0.00000000  0.00000000
   0.50000000  0.50000000  0.00000000
   0.25000000  0.25000000  0.00000000
   0.25000000  0.75000000  0.00000000
   0.75000000  0.25000000  0.00000000
   0.75000000  0.75000000  0.00000000
   0.37500000  0.12500000  0.68960278
   0.37500000  0.62500000  0.68960278
   0.87500000  0.12500000  0.68960278
   0.87500000  0.62500000  0.68960278
   0.12500000  0.37500000  0.31039722
   0.12500000  0.87500000  0.31039722
   0.62500000  0.37500000  0.31039722
   0.62500000  0.87500000  0.31039722
 
 position of ions in cartesian coordinates  (Angst):
   0.00000000  0.00000000  0.00000000
   2.40861665  2.87798432  0.00000000
   2.40861665 -2.87798432  0.00000000
   4.81723330  0.00000000  0.00000000
   2.40861665  0.00000000  0.00000000
   4.81723330  2.87798432  0.00000000
   4.81723330 -2.87798432  0.00000000
   7.22584994  0.00000000  0.00000000
   2.40861665 -1.43899216  3.96683004
   4.81723330  1.43899216  3.96683004
   4.81723330 -4.31697647  3.96683004
   7.22584994 -1.43899216  3.96683004
   2.40861665  1.43899216  1.78551051
   4.81723330  4.31697647  1.78551051
   4.81723330 -1.43899216  1.78551051
   7.22584994  1.43899216  1.78551051
 


--------------------------------------------------------------------------------------------------------


 k-point   1 :   0.0000 0.0000 0.0000  plane waves:    9337
 k-point   2 :   0.1429 0.0000 0.0000  plane waves:    9318
 k-point   3 :   0.2857 0.0000 0.0000  plane waves:    9324
 k-point   4 :   0.4286-0.0000 0.0000  plane waves:    9315
 k-point   5 :   0.1429 0.1429 0.0000  plane waves:    9301
 k-point   6 :   0.2857 0.1429 0.0000  plane waves:    9312
 k-point   7 :   0.4286 0.1429 0.0000  plane waves:    9307
 k-point   8 :  -0.4286 0.1429 0.0000  plane waves:    9322
 k-point   9 :  -0.2857 0.1429 0.0000  plane waves:    9320
 k-point  10 :  -0.1429 0.1429 0.0000  plane waves:    9344
 k-point  11 :   0.2857 0.2857 0.0000  plane waves:    9324
 k-point  12 :   0.4286 0.2857 0.0000  plane waves:    9322
 k-point  13 :  -0.4286 0.2857 0.0000  plane waves:    9338
 k-point  14 :  -0.2857 0.2857 0.0000  plane waves:    9336
 k-point  15 :   0.4286 0.4286 0.0000  plane waves:    9340
 k-point  16 :  -0.4286 0.4286 0.0000  plane waves:    9336
 k-point  17 :   0.0000 0.0000 0.1111  plane waves:    9348
 k-point  18 :   0.1429 0.0000 0.1111  plane waves:    9331
 k-point  19 :   0.2857 0.0000 0.1111  plane waves:    9335
 k-point  20 :   0.4286-0.0000 0.1111  plane waves:    9329
 k-point  21 :   0.1429 0.1429 0.1111  plane waves:    9333
 k-point  22 :   0.2857 0.1429 0.1111  plane waves:    9323
 k-point  23 :   0.4286 0.1429 0.1111  plane waves:    9320
 k-point  24 :  -0.4286 0.1429 0.1111  plane waves:    9331
 k-point  25 :  -0.2857 0.1429 0.1111  plane waves:    9343
 k-point  26 :  -0.1429 0.1429 0.1111  plane waves:    9350
 k-point  27 :   0.2857 0.2857 0.1111  plane waves:    9327
 k-point  28 :   0.4286 0.2857 0.1111  plane waves:    9337
 k-point  29 :  -0.4286 0.2857 0.1111  plane waves:    9333
 k-point  30 :  -0.2857 0.2857 0.1111  plane waves:    9343
 k-point  31 :   0.4286 0.4286 0.1111  plane waves:    9339
 k-point  32 :  -0.4286 0.4286 0.1111  plane waves:    9352
 k-point  33 :   0.0000 0.0000 0.2222  plane waves:    9356
 k-point  34 :   0.1429 0.0000 0.2222  plane waves:    9338
 k-point  35 :   0.2857 0.0000 0.2222  plane waves:    9340
 k-point  36 :   0.4286-0.0000 0.2222  plane waves:    9358
 k-point  37 :   0.1429 0.1429 0.2222  plane waves:    9347
 k-point  38 :   0.2857 0.1429 0.2222  plane waves:    9343
 k-point  39 :   0.4286 0.1429 0.2222  plane waves:    9337
 k-point  40 :  -0.4286 0.1429 0.2222  plane waves:    9346
 k-point  41 :  -0.2857 0.1429 0.2222  plane waves:    9343
 k-point  42 :  -0.1429 0.1429 0.2222  plane waves:    9371
 k-point  43 :   0.2857 0.2857 0.2222  plane waves:    9339
 k-point  44 :   0.4286 0.2857 0.2222  plane waves:    9346
 k-point  45 :  -0.4286 0.2857 0.2222  plane waves:    9348
 k-point  46 :  -0.2857 0.2857 0.2222  plane waves:    9339
 k-point  47 :   0.4286 0.4286 0.2222  plane waves:    9347
 k-point  48 :  -0.4286 0.4286 0.2222  plane waves:    9343
 k-point  49 :   0.0000 0.0000 0.3333  plane waves:    9364
 k-point  50 :   0.1429 0.0000 0.3333  plane waves:    9358
 k-point  51 :   0.2857 0.0000 0.3333  plane waves:    9348
 k-point  52 :   0.4286-0.0000 0.3333  plane waves:    9348
 k-point  53 :   0.1429 0.1429 0.3333  plane waves:    9358
 k-point  54 :   0.2857 0.1429 0.3333  plane waves:    9344
 k-point  55 :   0.4286 0.1429 0.3333  plane waves:    9359
 k-point  56 :  -0.4286 0.1429 0.3333  plane waves:    9349
 k-point  57 :  -0.2857 0.1429 0.3333  plane waves:    9353
 k-point  58 :  -0.1429 0.1429 0.3333  plane waves:    9358
 k-point  59 :   0.2857 0.2857 0.3333  plane waves:    9338
 k-point  60 :   0.4286 0.2857 0.3333  plane waves:    9350
 k-point  61 :  -0.4286 0.2857 0.3333  plane waves:    9344
 k-point  62 :  -0.2857 0.2857 0.3333  plane waves:    9358
 k-point  63 :   0.4286 0.4286 0.3333  plane waves:    9332
 k-point  64 :  -0.4286 0.4286 0.3333  plane waves:    9326
 k-point  65 :   0.0000 0.0000 0.4444  plane waves:    9344
 k-point  66 :   0.1429 0.0000 0.4444  plane waves:    9362
 k-point  67 :   0.2857 0.0000 0.4444  plane waves:    9366
 k-point  68 :   0.4286-0.0000 0.4444  plane waves:    9357
 k-point  69 :   0.1429 0.1429 0.4444  plane waves:    9366
 k-point  70 :   0.2857 0.1429 0.4444  plane waves:    9353
 k-point  71 :   0.4286 0.1429 0.4444  plane waves:    9352
 k-point  72 :  -0.4286 0.1429 0.4444  plane waves:    9361
 k-point  73 :  -0.2857 0.1429 0.4444  plane waves:    9370
 k-point  74 :  -0.1429 0.1429 0.4444  plane waves:    9356
 k-point  75 :   0.2857 0.2857 0.4444  plane waves:    9331
 k-point  76 :   0.4286 0.2857 0.4444  plane waves:    9336
 k-point  77 :  -0.4286 0.2857 0.4444  plane waves:    9342
 k-point  78 :  -0.2857 0.2857 0.4444  plane waves:    9366
 k-point  79 :   0.4286 0.4286 0.4444  plane waves:    9314
 k-point  80 :  -0.4286 0.4286 0.4444  plane waves:    9319

 maximum and minimum number of plane-waves per node :      9371     9301

 maximum number of plane-waves:      9371
 maximum index in each direction: 
   IXMAX=   14   IYMAX=   14   IZMAX=   10
   IXMIN=  -14   IYMIN=  -14   IZMIN=  -11


 serial   3D FFT for wavefunctions
 parallel 3D FFT for charge:
    minimum data exchange during FFTs selected (reduces bandwidth)


 total amount of memory used by VASP MPI-rank0   190176. kBytes
=======================================================================

   base      :      30000. kBytes
   nonlr-proj:      13643. kBytes
   fftplans  :       3084. kBytes
   grid      :      19560. kBytes
   one-center:        497. kBytes
   wavefun   :     123392. kBytes
 
     INWAV:  cpu time      0.0000: real time      0.0002
 Broyden mixing: mesh for mixing (old mesh)
   NGX = 29   NGY = 29   NGZ = 21
  (NGX  =120   NGY  =120   NGZ  = 96)
  gives a total of  17661 points

 initial charge density was supplied:
 charge density of overlapping atoms calculated
 number of electron     160.0000000 magnetization      -0.0000000
 keeping initial charge density in first step


--------------------------------------------------------------------------------------------------------


 Maximum index for non-local projection operator         6689
 Maximum index for augmentation-charges         1167 (set IRDMAX)


--------------------------------------------------------------------------------------------------------


 First call to EWALD:  gamma=   0.259
 Maximum number of real-space cells 3x 3x 3
 Maximum number of reciprocal cells 3x 3x 2

    FEWALD:  cpu time      0.0016: real time      0.0016


--------------------------------------- Ionic step        1  -------------------------------------------




--------------------------------------- Iteration      1(   1)  ---------------------------------------


    POTLOK:  cpu time      0.0668: real time      0.1118
    SETDIJ:  cpu time      0.2730: real time      0.2742
     EDDAV:  cpu time     30.3289: real time     30.4941
       DOS:  cpu time      0.0027: real time      0.0028
    --------------------------------------------
      LOOP:  cpu time     30.6715: real time     30.8829

 eigenvalue-minimisations  : 35440
 total energy-change (2. order) : 0.2009241E+04  (-0.8891435E+04)
 number of electron     160.0000000 magnetization      -0.0000000
 augmentation part      160.0000000 magnetization      -0.0000000

 Free energy of the ion-electron system (eV)
  ---------------------------------------------------
  alpha Z        PSCENC =       796.08647423
  Ewald energy   TEWEN  =    -11032.72108697
  -Hartree energ DENC   =     -9265.42238475
  -exchange      EXHF   =         0.00000000
  -V(xc)+E(xc)   XCENC  =       564.93619794
  PAW double counting   =     15528.12598780   -16123.90818458
  entropy T*S    EENTRO =        -0.00864795
  eigenvalues    EBANDS =      -168.68788016
  atomic energy  EATOM  =     21710.84102437
  Solvation  Ediel_sol  =         0.00000000
  ---------------------------------------------------
  free energy    TOTEN  =      2009.24149992 eV

  energy without entropy =     2009.25014788  energy(sigma->0) =     2009.24582390


--------------------------------------------------------------------------------------------------------




--------------------------------------- Iteration      1(   2)  ---------------------------------------


     EDDAV:  cpu time     28.2508: real time     28.4020
       DOS:  cpu time      0.0023: real time      0.0023
    --------------------------------------------
      LOOP:  cpu time     28.2531: real time     28.4043

 eigenvalue-minimisations  : 32000
 total energy-change (2. order) :-0.1887301E+04  (-0.1832923E+04)
 number of electron     160.0000000 magnetization      -0.0000000
 augmentation part      160.0000000 magnetization      -0.0000000

 Free energy of the ion-electron system (eV)
  ---------------------------------------------------
  alpha Z        PSCENC =       796.08647423
  Ewald energy   TEWEN  =    -11032.72108697
  -Hartree energ DENC   =     -9265.42238475
  -exchange      EXHF   =         0.00000000
  -V(xc)+E(xc)   XCENC  =       564.93619794
  PAW double counting   =     15528.12598780   -16123.90818458
  entropy T*S    EENTRO =        -0.01671386
  eigenvalues    EBANDS =     -2055.98099578
  atomic energy  EATOM  =     21710.84102437
  Solvation  Ediel_sol  =         0.00000000
  ---------------------------------------------------
  free energy    TOTEN  =       121.94031840 eV

  energy without entropy =      121.95703226  energy(sigma->0) =      121.94867533


--------------------------------------------------------------------------------------------------------




--------------------------------------- Iteration      1(   3)  ---------------------------------------


     EDDAV:  cpu time     38.4701: real time     38.7198
       DOS:  cpu time      0.0023: real time      0.0023
    --------------------------------------------
      LOOP:  cpu time     38.4724: real time     38.7221

 eigenvalue-minimisations  : 46020
 total energy-change (2. order) :-0.2072651E+03  (-0.1845423E+03)
 number of electron     160.0000000 magnetization      -0.0000000
 augmentation part      160.0000000 magnetization      -0.0000000

 Free energy of the ion-electron system (eV)
  ---------------------------------------------------
  alpha Z        PSCENC =       796.08647423
  Ewald energy   TEWEN  =    -11032.72108697
  -Hartree energ DENC   =     -9265.42238475
  -exchange      EXHF   =         0.00000000
  -V(xc)+E(xc)   XCENC  =       564.93619794
  PAW double counting   =     15528.12598780   -16123.90818458
  entropy T*S    EENTRO =        -0.02650110
  eigenvalues    EBANDS =     -2263.23630517
  atomic energy  EATOM  =     21710.84102437
  Solvation  Ediel_sol  =         0.00000000
  ---------------------------------------------------
  free energy    TOTEN  =       -85.32477823 eV

  energy without entropy =      -85.29827713  energy(sigma->0) =      -85.31152768


--------------------------------------------------------------------------------------------------------




--------------------------------------- Iteration      1(   4)  ---------------------------------------


     EDDAV:  cpu time     37.3751: real time     37.5764
       DOS:  cpu time      0.0022: real time      0.0022
    --------------------------------------------
      LOOP:  cpu time     37.3773: real time     37.5786

 eigenvalue-minimisations  : 46980
 total energy-change (2. order) :-0.1444004E+02  (-0.1413116E+02)
 number of electron     160.0000000 magnetization      -0.0000000
 augmentation part      160.0000000 magnetization      -0.0000000

 Free energy of the ion-electron system (eV)
  ---------------------------------------------------
  alpha Z        PSCENC =       796.08647423
  Ewald energy   TEWEN  =    -11032.72108697
  -Hartree energ DENC   =     -9265.42238475
  -exchange      EXHF   =         0.00000000
  -V(xc)+E(xc)   XCENC  =       564.93619794
  PAW double counting   =     15528.12598780   -16123.90818458
  entropy T*S    EENTRO =        -0.02872201
  eigenvalues    EBANDS =     -2277.67412778
  atomic energy  EATOM  =     21710.84102437
  Solvation  Ediel_sol  =         0.00000000
  ---------------------------------------------------
  free energy    TOTEN  =       -99.76482176 eV

  energy without entropy =      -99.73609974  energy(sigma->0) =      -99.75046075


--------------------------------------------------------------------------------------------------------




--------------------------------------- Iteration      1(   5)  ---------------------------------------


     EDDAV:  cpu time     36.9432: real time     37.1981
       DOS:  cpu time      0.0022: real time      0.0022
    CHARGE:  cpu time      1.0517: real time      1.0592
    MIXING:  cpu time      0.0015: real time      0.0015
    --------------------------------------------
      LOOP:  cpu time     37.9986: real time     38.2611

 eigenvalue-minimisations  : 45100
 total energy-change (2. order) :-0.3412442E+00  (-0.3405337E+00)
 number of electron     160.0000024 magnetization      -0.0000000
 augmentation part       53.0812818 magnetization      -0.0000000

 Broyden mixing:
  rms(total) = 0.27746E+01    rms(broyden)= 0.27741E+01
  rms(prec ) = 0.43594E+01
  weight for this iteration     100.00

 Free energy of the ion-electron system (eV)
  ---------------------------------------------------
  alpha Z        PSCENC =       796.08647423
  Ewald energy   TEWEN  =    -11032.72108697
  -Hartree energ DENC   =     -9265.42238475
  -exchange      EXHF   =         0.00000000
  -V(xc)+E(xc)   XCENC  =       564.93619794
  PAW double counting   =     15528.12598780   -16123.90818458
  entropy T*S    EENTRO =        -0.02866907
  eigenvalues    EBANDS =     -2278.01542495
  atomic energy  EATOM  =     21710.84102437
  Solvation  Ediel_sol  =         0.00000000
  ---------------------------------------------------
  free energy    TOTEN  =      -100.10606599 eV

  energy without entropy =     -100.07739691  energy(sigma->0) =     -100.09173145


--------------------------------------------------------------------------------------------------------




--------------------------------------- Iteration      1(   6)  ---------------------------------------


    POTLOK:  cpu time      0.0919: real time      0.0925
    SETDIJ:  cpu time      0.2676: real time      0.2689
    EDDIAG:  cpu time      4.4411: real time      4.4669
  RMM-DIIS:  cpu time     17.1782: real time     17.2650
    ORTHCH:  cpu time      0.5925: real time      0.5952
       DOS:  cpu time      0.0022: real time      0.0022
    CHARGE:  cpu time      1.0844: real time      1.0911
    MIXING:  cpu time      0.0018: real time      0.0018
    --------------------------------------------
      LOOP:  cpu time     23.6597: real time     23.7836

 eigenvalue-minimisations  : 32070
 total energy-change (2. order) :-0.1361691E+02  (-0.1740525E+02)
 number of electron     160.0000026 magnetization      -0.0000000
 augmentation part       70.3502312 magnetization      -0.0000000

 Broyden mixing:
  rms(total) = 0.53595E+01    rms(broyden)= 0.53593E+01
  rms(prec ) = 0.85498E+01
  weight for this iteration     100.00

 eigenvalues of (default mixing * dielectric matrix)
  average eigenvalue GAMMA=   0.2951
  0.2951

 Free energy of the ion-electron system (eV)
  ---------------------------------------------------
  alpha Z        PSCENC =       796.08647423
  Ewald energy   TEWEN  =    -11032.72108697
  -Hartree energ DENC   =     -8800.61929794
  -exchange      EXHF   =         0.00000000
  -V(xc)+E(xc)   XCENC  =       552.93550861
  PAW double counting   =     14975.15212526   -15538.90523716
  entropy T*S    EENTRO =        -0.03285961
  eigenvalues    EBANDS =     -2776.45962819
  atomic energy  EATOM  =     21710.84102437
  Solvation  Ediel_sol  =         0.00000000
  ---------------------------------------------------
  free energy    TOTEN  =      -113.72297740 eV

  energy without entropy =     -113.69011779  energy(sigma->0) =     -113.70654760


--------------------------------------------------------------------------------------------------------




--------------------------------------- Iteration      1(   7)  ---------------------------------------


    POTLOK:  cpu time      0.0598: real time      0.1121
    SETDIJ:  cpu time      0.2713: real time      0.2723
    EDDIAG:  cpu time      4.6725: real time      4.6960
  RMM-DIIS:  cpu time     17.4527: real time     17.5416
    ORTHCH:  cpu time      0.5932: real time      0.5959
       DOS:  cpu time      0.0022: real time      0.0023
    CHARGE:  cpu time      1.1114: real time      1.1174
    MIXING:  cpu time      0.0018: real time      0.0018
    --------------------------------------------
      LOOP:  cpu time     24.1648: real time     24.3394

 eigenvalue-minimisations  : 32018
 total energy-change (2. order) : 0.2275796E+02  (-0.4446779E+01)
 number of electron     160.0000022 magnetization      -0.0000000
 augmentation part       57.8151267 magnetization      -0.0000000

 Broyden mixing:
  rms(total) = 0.11396E+01    rms(broyden)= 0.11389E+01
  rms(prec ) = 0.13690E+01
  weight for this iteration     100.00

 eigenvalues of (default mixing * dielectric matrix)
  average eigenvalue GAMMA=   0.4397
  0.6165  0.2629

 Free energy of the ion-electron system (eV)
  ---------------------------------------------------
  alpha Z        PSCENC =       796.08647423
  Ewald energy   TEWEN  =    -11032.72108697
  -Hartree energ DENC   =     -9088.31022582
  -exchange      EXHF   =         0.00000000
  -V(xc)+E(xc)   XCENC  =       558.06736440
  PAW double counting   =     15474.23262823   -16071.45096103
  entropy T*S    EENTRO =        -0.03646268
  eigenvalues    EBANDS =     -2437.67376780
  atomic energy  EATOM  =     21710.84102437
  Solvation  Ediel_sol  =         0.00000000
  ---------------------------------------------------
  free energy    TOTEN  =       -90.96501308 eV

  energy without entropy =      -90.92855040  energy(sigma->0) =      -90.94678174


--------------------------------------------------------------------------------------------------------




--------------------------------------- Iteration      1(   8)  ---------------------------------------


    POTLOK:  cpu time      0.0546: real time      0.0551
    SETDIJ:  cpu time      0.2704: real time      0.2716
    EDDIAG:  cpu time      4.6510: real time      4.6762
  RMM-DIIS:  cpu time     21.3459: real time     21.4583
    ORTHCH:  cpu time      0.5777: real time      0.5802
       DOS:  cpu time      0.0021: real time      0.0021
    CHARGE:  cpu time      1.0365: real time      1.0421
    MIXING:  cpu time      0.0017: real time      0.0017
    --------------------------------------------
      LOOP:  cpu time     27.9399: real time     28.0873

 eigenvalue-minimisations  : 41237
 total energy-change (2. order) :-0.5768060E+00  (-0.2987009E+00)
 number of electron     160.0000021 magnetization      -0.0000000
 augmentation part       58.3337414 magnetization      -0.0000000

 Broyden mixing:
  rms(total) = 0.53731E+00    rms(broyden)= 0.53700E+00
  rms(prec ) = 0.71004E+00
  weight for this iteration     100.00

 eigenvalues of (default mixing * dielectric matrix)
  average eigenvalue GAMMA=   0.6398
  0.3045  0.8075  0.8075

 Free energy of the ion-electron system (eV)
  ---------------------------------------------------
  alpha Z        PSCENC =       796.08647423
  Ewald energy   TEWEN  =    -11032.72108697
  -Hartree energ DENC   =     -9076.46892792
  -exchange      EXHF   =         0.00000000
  -V(xc)+E(xc)   XCENC  =       558.53938103
  PAW double counting   =     15526.33927402   -16130.46861282
  entropy T*S    EENTRO =        -0.03016215
  eigenvalues    EBANDS =     -2443.65918284
  atomic energy  EATOM  =     21710.84102437
  Solvation  Ediel_sol  =         0.00000000
  ---------------------------------------------------
  free energy    TOTEN  =       -91.54181905 eV

  energy without entropy =      -91.51165690  energy(sigma->0) =      -91.52673798


--------------------------------------------------------------------------------------------------------




--------------------------------------- Iteration      1(   9)  ---------------------------------------


    POTLOK:  cpu time      0.0747: real time      0.0754
    SETDIJ:  cpu time      0.2663: real time      0.2673
    EDDIAG:  cpu time      4.5676: real time      4.5913
  RMM-DIIS:  cpu time     22.9344: real time     23.0591
    ORTHCH:  cpu time      0.6118: real time      0.6146
       DOS:  cpu time      0.0023: real time      0.0023
    CHARGE:  cpu time      1.0868: real time      1.0922
    MIXING:  cpu time      0.0020: real time      0.0020
    --------------------------------------------
      LOOP:  cpu time     29.5460: real time     29.7040

 eigenvalue-minimisations  : 44505
 total energy-change (2. order) :-0.7926299E-01  (-0.8922922E-01)
 number of electron     160.0000021 magnetization       0.0000000
 augmentation part       58.7764514 magnetization       0.0000000

 Broyden mixing:
  rms(total) = 0.27747E+00    rms(broyden)= 0.27690E+00
  rms(prec ) = 0.33911E+00
  weight for this iteration     100.00

 eigenvalues of (default mixing * dielectric matrix)
  average eigenvalue GAMMA=   0.8295
  0.2995  1.1579  1.1579  0.7026

 Free energy of the ion-electron system (eV)
  ---------------------------------------------------
  alpha Z        PSCENC =       796.08647423
  Ewald energy   TEWEN  =    -11032.72108697
  -Hartree energ DENC   =     -9059.86489402
  -exchange      EXHF   =         0.00000000
  -V(xc)+E(xc)   XCENC  =       558.75944974
  PAW double counting   =     15607.55274807   -16218.11445401
  entropy T*S    EENTRO =        -0.02099790
  eigenvalues    EBANDS =     -2454.13934555
  atomic energy  EATOM  =     21710.84102437
  Solvation  Ediel_sol  =         0.00000000
  ---------------------------------------------------
  free energy    TOTEN  =       -91.62108205 eV

  energy without entropy =      -91.60008414  energy(sigma->0) =      -91.61058309


--------------------------------------------------------------------------------------------------------




--------------------------------------- Iteration      1(  10)  ---------------------------------------


    POTLOK:  cpu time      0.0564: real time      0.1074
    SETDIJ:  cpu time      0.2694: real time      0.2709
    EDDIAG:  cpu time      4.6527: real time      4.6797
  RMM-DIIS:  cpu time     24.4418: real time     24.5716
    ORTHCH:  cpu time      0.6017: real time      0.6045
       DOS:  cpu time      0.0022: real time      0.0022
    CHARGE:  cpu time      1.0459: real time      1.0510
    MIXING:  cpu time      0.0017: real time      0.0017
    --------------------------------------------
      LOOP:  cpu time     31.0719: real time     31.2889

 eigenvalue-minimisations  : 46115
 total energy-change (2. order) :-0.2382817E-01  (-0.2845157E-01)
 number of electron     160.0000022 magnetization      -0.0000000
 augmentation part       58.9609883 magnetization      -0.0000000

 Broyden mixing:
  rms(total) = 0.15481E+00    rms(broyden)= 0.15451E+00
  rms(prec ) = 0.17799E+00
  weight for this iteration     100.00

 eigenvalues of (default mixing * dielectric matrix)
  average eigenvalue GAMMA=   1.0235
  1.7670  1.4794  0.2999  0.8439  0.7273

 Free energy of the ion-electron system (eV)
  ---------------------------------------------------
  alpha Z        PSCENC =       796.08647423
  Ewald energy   TEWEN  =    -11032.72108697
  -Hartree energ DENC   =     -9053.17443585
  -exchange      EXHF   =         0.00000000
  -V(xc)+E(xc)   XCENC  =       558.78424574
  PAW double counting   =     15663.75388405   -16278.13254191
  entropy T*S    EENTRO =        -0.01838927
  eigenvalues    EBANDS =     -2457.06408460
  atomic energy  EATOM  =     21710.84102437
  Solvation  Ediel_sol  =         0.00000000
  ---------------------------------------------------
  free energy    TOTEN  =       -91.64491021 eV

  energy without entropy =      -91.62652094  energy(sigma->0) =      -91.63571558


--------------------------------------------------------------------------------------------------------




--------------------------------------- Iteration      1(  11)  ---------------------------------------


    POTLOK:  cpu time      1.5733: real time      1.5803
    SETDIJ:  cpu time      0.2659: real time      0.2668
    EDDIAG:  cpu time      4.5466: real time      4.5689
  RMM-DIIS:  cpu time     22.3382: real time     22.4553
    ORTHCH:  cpu time      0.5868: real time      0.5895
       DOS:  cpu time      0.0023: real time      0.0023
    CHARGE:  cpu time      1.0981: real time      1.1036
    MIXING:  cpu time      0.0019: real time      0.0019
    --------------------------------------------
      LOOP:  cpu time     30.4130: real time     30.5686

 eigenvalue-minimisations  : 42231
 total energy-change (2. order) :-0.5445989E-03  (-0.6252311E-02)
 number of electron     160.0000022 magnetization      -0.0000000
 augmentation part       58.9450187 magnetization      -0.0000000

 Broyden mixing:
  rms(total) = 0.56622E-01    rms(broyden)= 0.56541E-01
  rms(prec ) = 0.62987E-01
  weight for this iteration     100.00

 eigenvalues of (default mixing * dielectric matrix)
  average eigenvalue GAMMA=   1.0993
  1.8905  1.8905  0.2998  0.9180  0.9180  0.6787

 Free energy of the ion-electron system (eV)
  ---------------------------------------------------
  alpha Z        PSCENC =       796.08647423
  Ewald energy   TEWEN  =    -11032.72108697
  -Hartree energ DENC   =     -9050.77757680
  -exchange      EXHF   =         0.00000000
  -V(xc)+E(xc)   XCENC  =       558.89509051
  PAW double counting   =     15717.38357348   -16334.66161678
  entropy T*S    EENTRO =        -0.01866906
  eigenvalues    EBANDS =     -2456.67266780
  atomic energy  EATOM  =     21710.84102437
  Solvation  Ediel_sol  =         0.00000000
  ---------------------------------------------------
  free energy    TOTEN  =       -91.64545481 eV

  energy without entropy =      -91.62678575  energy(sigma->0) =      -91.63612028


--------------------------------------------------------------------------------------------------------




--------------------------------------- Iteration      1(  12)  ---------------------------------------


    POTLOK:  cpu time      0.0595: real time      0.1051
    SETDIJ:  cpu time      0.2718: real time      0.2728
    EDDIAG:  cpu time      4.6670: real time      4.6919
  RMM-DIIS:  cpu time     23.3847: real time     23.5068
    ORTHCH:  cpu time      0.6085: real time      0.6113
       DOS:  cpu time      0.0022: real time      0.0022
    CHARGE:  cpu time      1.0935: real time      1.0993
    MIXING:  cpu time      0.0023: real time      0.0023
    --------------------------------------------
      LOOP:  cpu time     30.0894: real time     30.2917

 eigenvalue-minimisations  : 43270
 total energy-change (2. order) :-0.8119297E-02  (-0.1896990E-02)
 number of electron     160.0000022 magnetization      -0.0000000
 augmentation part       58.9676157 magnetization      -0.0000000

 Broyden mixing:
  rms(total) = 0.31911E-01    rms(broyden)= 0.31890E-01
  rms(prec ) = 0.37790E-01
  weight for this iteration     100.00

 eigenvalues of (default mixing * dielectric matrix)
  average eigenvalue GAMMA=   1.0803
  2.2857  0.2998  1.3188  1.3188  0.8857  0.7895  0.6639

 Free energy of the ion-electron system (eV)
  ---------------------------------------------------
  alpha Z        PSCENC =       796.08647423
  Ewald energy   TEWEN  =    -11032.72108697
  -Hartree energ DENC   =     -9050.23097164
  -exchange      EXHF   =         0.00000000
  -V(xc)+E(xc)   XCENC  =       558.90920922
  PAW double counting   =     15723.31052412   -16340.80515665
  entropy T*S    EENTRO =        -0.01938682
  eigenvalues    EBANDS =     -2457.02420397
  atomic energy  EATOM  =     21710.84102437
  Solvation  Ediel_sol  =         0.00000000
  ---------------------------------------------------
  free energy    TOTEN  =       -91.65357411 eV

  energy without entropy =      -91.63418729  energy(sigma->0) =      -91.64388070


--------------------------------------------------------------------------------------------------------




--------------------------------------- Iteration      1(  13)  ---------------------------------------


    POTLOK:  cpu time      0.0727: real time      0.0732
    SETDIJ:  cpu time      0.2702: real time      0.2712
    EDDIAG:  cpu time      4.6808: real time      4.7037
  RMM-DIIS:  cpu time     20.4710: real time     20.5782
    ORTHCH:  cpu time      0.6027: real time      0.6054
       DOS:  cpu time      0.0021: real time      0.0021
    CHARGE:  cpu time      1.0632: real time      1.0691
    MIXING:  cpu time      0.0017: real time      0.0017
    --------------------------------------------
      LOOP:  cpu time     27.1645: real time     27.3048

 eigenvalue-minimisations  : 38500
 total energy-change (2. order) :-0.1147598E-03  (-0.4656407E-03)
 number of electron     160.0000022 magnetization      -0.0000000
 augmentation part       58.9799385 magnetization      -0.0000000

 Broyden mixing:
  rms(total) = 0.14297E-01    rms(broyden)= 0.14283E-01
  rms(prec ) = 0.17359E-01
  weight for this iteration     100.00

 eigenvalues of (default mixing * dielectric matrix)
  average eigenvalue GAMMA=   1.1264
  2.6179  1.3692  1.3692  0.2998  1.1364  0.8533  0.7228  0.6428

 Free energy of the ion-electron system (eV)
  ---------------------------------------------------
  alpha Z        PSCENC =       796.08647423
  Ewald energy   TEWEN  =    -11032.72108697
  -Hartree energ DENC   =     -9049.97808891
  -exchange      EXHF   =         0.00000000
  -V(xc)+E(xc)   XCENC  =       558.94068183
  PAW double counting   =     15725.83316633   -16343.42958434
  entropy T*S    EENTRO =        -0.01921091
  eigenvalues    EBANDS =     -2457.20706450
  atomic energy  EATOM  =     21710.84102437
  Solvation  Ediel_sol  =         0.00000000
  ---------------------------------------------------
  free energy    TOTEN  =       -91.65368887 eV

  energy without entropy =      -91.63447796  energy(sigma->0) =      -91.64408341


--------------------------------------------------------------------------------------------------------




--------------------------------------- Iteration      1(  14)  ---------------------------------------


    POTLOK:  cpu time      0.0767: real time      0.0772
    SETDIJ:  cpu time      0.2699: real time      0.2709
    EDDIAG:  cpu time      4.6356: real time      4.6603
  RMM-DIIS:  cpu time     14.8115: real time     14.8898
    ORTHCH:  cpu time      0.5998: real time      0.6024
       DOS:  cpu time      0.0022: real time      0.0022
    --------------------------------------------
      LOOP:  cpu time     20.3957: real time     20.5027

 eigenvalue-minimisations  : 26711
 total energy-change (2. order) : 0.5016612E-04  (-0.1418879E-03)
 number of electron     160.0000022 magnetization      -0.0000000
 augmentation part       58.9799385 magnetization      -0.0000000

 Free energy of the ion-electron system (eV)
  ---------------------------------------------------
  alpha Z        PSCENC =       796.08647423
  Ewald energy   TEWEN  =    -11032.72108697
  -Hartree energ DENC   =     -9049.90329207
  -exchange      EXHF   =         0.00000000
  -V(xc)+E(xc)   XCENC  =       558.95488582
  PAW double counting   =     15726.74355498   -16344.32367330
  entropy T*S    EENTRO =        -0.01900500
  eigenvalues    EBANDS =     -2457.31252076
  atomic energy  EATOM  =     21710.84102437
  Solvation  Ediel_sol  =         0.00000000
  ---------------------------------------------------
  free energy    TOTEN  =       -91.65363870 eV

  energy without entropy =      -91.63463370  energy(sigma->0) =      -91.64413620


--------------------------------------------------------------------------------------------------------




 average (electrostatic) potential at core
  the test charge radii are     0.9500  1.0808
  (the norm of the test charge is              1.0000)
       1 -47.6097       2 -47.6097       3 -47.6097       4 -47.6097       5 -47.6097
       6 -47.6097       7 -47.6097       8 -47.6097       9 -55.1147      10 -55.1147
      11 -55.1147      12 -55.1147      13 -55.1147      14 -55.1147      15 -55.1147
      16 -55.1147
 
 
 
 E-fermi :   3.5828     XC(G=0): -10.2985     alpha+bet : -9.1214

 Fermi energy:         3.5828058917

 spin component 1

 k-point     1 :       0.0000    0.0000    0.0000
  band No.  band energies     occupation 
      1     -51.2453      1.00000
      2     -51.2363      1.00000
      3     -51.2363      1.00000
      4     -51.2303      1.00000
      5     -51.1131      1.00000
      6     -51.0687      1.00000
      7     -51.0624      1.00000
      8     -51.0624      1.00000
      9     -51.0536      1.00000
     10     -50.9468      1.00000
     11     -50.9468      1.00000
     12     -50.7778      1.00000
     13     -48.3957      1.00000
     14     -48.3936      1.00000
     15     -48.3936      1.00000
     16     -48.3932      1.00000
     17     -48.3797      1.00000
     18     -48.1954      1.00000
     19     -48.1954      1.00000
     20     -48.0523      1.00000
     21     -48.0523      1.00000
     22     -48.0522      1.00000
     23     -48.0499      1.00000
     24     -48.0077      1.00000
     25     -10.5765      1.00000
     26      -9.4972      1.00000
     27      -9.4972      1.00000
     28      -9.4815      1.00000
     29      -9.4815      1.00000
     30      -9.2181      1.00000
     31      -9.0789      1.00000
     32      -9.0010      1.00000
     33      -2.4802      1.00000
     34      -2.1242      1.00000
     35      -1.1589      1.00000
     36      -1.1589      1.00000
     37      -1.1539      1.00000
     38      -1.1539      1.00000
     39      -0.8502      1.00000
     40      -0.7092      1.00000
     41      -0.6178      1.00000
     42      -0.6084      1.00000
     43      -0.6084      1.00000
     44      -0.4405      1.00000
     45      -0.4152      1.00000
     46      -0.4152      1.00000
     47      -0.4051      1.00000
     48      -0.1245      1.00000
     49       0.1341      1.00000
     50       0.1341      1.00000
     51       0.1737      1.00000
     52       0.5576      1.00000
     53       0.5576      1.00000
     54       0.7433      1.00000
     55       0.8216      1.00000
     56       0.9087      1.00000
     57       1.1323      1.00000
     58       1.1323      1.00000
     59       1.2076      1.00000
     60       1.2076      1.00000
     61       1.3192      1.00000
     62       1.3655      1.00000
     63       1.4684      1.00000
     64       1.5831      1.00000
     65       1.7239      1.00000
     66       1.7239      1.00000
     67       1.7323      1.00000
     68       1.8829      1.00000
     69       1.9608      1.00000
     70       2.0970      1.00000
     71       2.0970      1.00000
     72       2.3295      1.00000
     73       2.7977      1.00000
     74       2.8330      1.00000
     75       2.8330      1.00000
     76       2.9120      1.00000
     77       2.9120      1.00000
     78       3.3365      1.00000
     79       3.3927      1.00000
     80       3.4009      1.00000
     81       3.4578      0.99980
     82       4.0357      0.00000
     83       4.0357      0.00000
     84       4.0966      0.00000
     85       4.0966      0.00000
     86       4.1201      0.00000
     87       4.1436      0.00000
     88       4.4052      0.00000
     89       4.4053      0.00000
     90       4.4105      0.00000
     91       4.4106      0.00000
     92       4.4450      0.00000
[...]
         0         1         2         3         4         5         6         7         8         9
 total charge-density along one line
 
 soft charge-density along one line, spin component           2
         0         1         2         3         4         5         6         7         8         9
 total charge-density along one line
 
 pseudopotential strength for first ion, spin component:           1
-55.371   0.049   0.000  28.500  -0.039  -0.000  -0.000   0.000
  0.049 -55.426  -0.000  -0.039  28.541   0.000  -0.000   0.000
  0.000  -0.000 -55.251  -0.000   0.000  28.405   0.000  -0.000
 28.500  -0.039  -0.000 -10.218   0.029  -0.000   0.000  -0.000
 -0.039  28.541   0.000   0.029 -10.247  -0.000   0.000  -0.000
 -0.000   0.000  28.405  -0.000  -0.000 -10.155  -0.000   0.000
 -0.000  -0.000   0.000   0.000   0.000  -0.000  -9.047  -0.000
  0.000   0.000  -0.000  -0.000  -0.000   0.000  -0.000  -8.843
 -0.000   0.000   0.000   0.000  -0.000  -0.000  -0.000  -0.014
 -0.000  -0.000   0.000   0.000   0.000  -0.000  -0.032   0.000
 -0.000  -0.000  -0.000   0.000   0.000   0.000   0.000  -0.097
  0.000   0.000  -0.000  -0.000  -0.000   0.000  -0.032   0.000
 -0.000  -0.000   0.000   0.000   0.000  -0.000   0.000  -0.081
  0.000  -0.000  -0.000  -0.000   0.000   0.000   0.000   0.003
  0.000   0.000  -0.000  -0.000  -0.000   0.000   0.007   0.000
  0.000   0.000   0.000  -0.000  -0.000  -0.000   0.000   0.023
 -0.000  -0.000   0.000   0.000   0.000  -0.000   0.000  -0.012
  0.000   0.000  -0.000  -0.000  -0.000   0.000   0.000   0.002
 pseudopotential strength for first ion, spin component:           2
-53.172   0.102   0.000  26.819  -0.074   0.000  -0.000   0.000
  0.102 -53.184  -0.000  -0.074  26.826   0.000  -0.000   0.000
  0.000  -0.000 -53.150   0.000   0.000  26.795   0.000  -0.000
 26.819  -0.074   0.000  -9.030   0.055  -0.000   0.000  -0.000
 -0.074  26.826   0.000   0.055  -9.036  -0.000   0.000  -0.000
  0.000   0.000  26.795  -0.000  -0.000  -9.016  -0.000   0.000
 -0.000  -0.000   0.000   0.000   0.000  -0.000  -6.888  -0.000
  0.000   0.000  -0.000  -0.000  -0.000   0.000  -0.000  -7.268
 -0.000   0.000   0.000   0.000  -0.000  -0.000  -0.000   0.083
 -0.000  -0.000   0.000   0.000   0.000  -0.000   0.115  -0.000
 -0.000  -0.000  -0.000   0.000   0.000   0.000   0.000   0.011
  0.000   0.000  -0.000  -0.000  -0.000   0.000  -0.536   0.000
 -0.000  -0.000   0.000   0.000   0.000  -0.000   0.000  -0.448
  0.000  -0.000  -0.000  -0.000   0.000   0.000   0.000  -0.018
  0.000   0.000  -0.000  -0.000  -0.000   0.000  -0.025   0.000
  0.000   0.000   0.000  -0.000  -0.000  -0.000   0.000  -0.004
 -0.000  -0.000   0.000   0.000   0.000  -0.000   0.000  -0.012
  0.000   0.000  -0.000  -0.000  -0.000   0.000   0.000   0.003
 total augmentation occupancy for first ion, spin component:           1
  2.009  -0.019  -0.000   0.055  -0.046   0.000   0.000   0.000  -0.000   0.000   0.000   0.000   0.000   0.000  -0.000  -0.000
 -0.019   2.012   0.000  -0.046   0.063   0.000  -0.000   0.000  -0.000   0.000   0.000   0.000  -0.000  -0.000  -0.000  -0.000
 -0.000   0.000   2.008   0.000  -0.000   0.050   0.000   0.000   0.000  -0.000   0.000  -0.000  -0.000  -0.000  -0.000   0.000
  0.055  -0.046  -0.000   0.191  -0.112   0.000   0.000   0.000  -0.000   0.000   0.000  -0.000   0.000   0.000   0.000   0.000
 -0.046   0.063   0.000  -0.112   0.212   0.000   0.000  -0.000  -0.000   0.000  -0.000  -0.000   0.000  -0.000  -0.000  -0.000
 -0.000  -0.000   0.050   0.000   0.000   0.174   0.000   0.000  -0.000  -0.000   0.000  -0.000  -0.000   0.000   0.000   0.000
  0.000  -0.000   0.000   0.000   0.000  -0.000   1.240   0.000   0.000  -0.096   0.000  -0.081  -0.000   0.000  -0.056  -0.000
 -0.000   0.000   0.000   0.000  -0.000   0.000  -0.000   1.473   0.002   0.000  -0.092   0.000   0.081  -0.136   0.000   0.102
 -0.000  -0.000   0.000  -0.000  -0.000  -0.000   0.000   0.002   1.298  -0.000  -0.168  -0.000  -0.138   0.037   0.000  -0.089
  0.000   0.000  -0.000   0.000   0.000  -0.000  -0.096  -0.000  -0.000   1.219  -0.000  -0.057   0.000   0.000  -0.059   0.000
  0.000  -0.000   0.000  -0.000   0.000   0.000   0.000  -0.092  -0.168   0.000   1.501  -0.000   0.106  -0.087   0.000   0.134
  0.000   0.000  -0.000  -0.000  -0.000   0.000  -0.081   0.000  -0.000  -0.057  -0.000   0.160   0.000   0.000  -0.027  -0.000
  0.000  -0.000  -0.000   0.000   0.000  -0.000   0.000   0.081  -0.138  -0.000   0.106   0.000   0.244  -0.068   0.000   0.088
  0.000   0.000  -0.000   0.000  -0.000   0.000  -0.000  -0.136   0.037  -0.000  -0.087   0.000  -0.068   0.164   0.000  -0.009
 -0.000  -0.000  -0.000   0.000  -0.000  -0.000  -0.056   0.000   0.000  -0.059   0.000  -0.027  -0.000   0.000   0.157  -0.000
  0.000  -0.000   0.000   0.000   0.000   0.000  -0.000   0.102  -0.089   0.000   0.134   0.000   0.088  -0.009   0.000   0.137
 -0.000   0.000  -0.000  -0.000   0.000  -0.000  -0.000  -0.011  -0.033  -0.000   0.093   0.000  -0.329   0.028   0.000  -0.009
 -0.000   0.000   0.000   0.000   0.000  -0.000  -0.000   0.005   0.019   0.000  -0.016   0.000   0.021  -0.005  -0.000   0.004
 total augmentation occupancy for first ion, spin component:           2
 -0.006   0.000   0.000  -0.002  -0.000  -0.000   0.000   0.000  -0.000  -0.000   0.000   0.000   0.000   0.000  -0.000  -0.000
  0.000  -0.008  -0.000  -0.000  -0.008   0.000   0.000   0.000   0.000   0.000  -0.000  -0.000  -0.000  -0.000   0.000   0.000
  0.000  -0.000  -0.008   0.000   0.000  -0.006   0.000  -0.000  -0.000  -0.000   0.000   0.000   0.000   0.000  -0.000  -0.000
 -0.002  -0.000   0.000   0.014  -0.002   0.000   0.000  -0.000  -0.000   0.000   0.000   0.000   0.000  -0.000  -0.000  -0.000
 -0.000  -0.008   0.000  -0.002   0.001  -0.000   0.000   0.000   0.000   0.000  -0.000  -0.000   0.000  -0.000  -0.000  -0.000
  0.000   0.000  -0.006  -0.000   0.000   0.009   0.000  -0.000  -0.000   0.000   0.000   0.000   0.000   0.000  -0.000  -0.000
  0.000   0.000  -0.000   0.000   0.000   0.000   0.714   0.000  -0.000   0.113  -0.000  -0.273  -0.000  -0.000   0.008  -0.000
 -0.000   0.000  -0.000  -0.000  -0.000  -0.000   0.000   0.377   0.084  -0.000   0.038   0.000  -0.203  -0.002   0.000  -0.032
  0.000   0.000  -0.000  -0.000  -0.000  -0.000   0.000   0.084   0.559  -0.000   0.218   0.000  -0.003  -0.224   0.000  -0.031
 -0.000   0.000  -0.000   0.000   0.000  -0.000   0.113   0.000  -0.000   0.709   0.000   0.010   0.000  -0.000  -0.270  -0.000
 -0.000  -0.000   0.000  -0.000  -0.000   0.000  -0.000   0.038   0.218  -0.000   0.263   0.000  -0.018  -0.026   0.000  -0.158
  0.000  -0.000   0.000   0.000  -0.000   0.000  -0.273   0.000  -0.000   0.010  -0.000   0.055  -0.000   0.000   0.006  -0.000
  0.000   0.000   0.000   0.000   0.000   0.000  -0.000  -0.203  -0.003   0.000  -0.018  -0.000   0.009   0.023  -0.000  -0.002
  0.000   0.000   0.000  -0.000  -0.000   0.000   0.000  -0.002  -0.224   0.000  -0.026  -0.000   0.023   0.018   0.000   0.013
 -0.000   0.000  -0.000  -0.000  -0.000  -0.000   0.008  -0.000  -0.000  -0.270  -0.000   0.006   0.000   0.000   0.041   0.000
 -0.000  -0.000  -0.000  -0.000   0.000  -0.000  -0.000  -0.032  -0.031   0.000  -0.158  -0.000  -0.002   0.013   0.000  -0.010
 -0.000   0.000  -0.000  -0.000   0.000   0.000   0.000   0.128   0.019  -0.000  -0.050   0.000  -0.037   0.004  -0.000  -0.027
 -0.000   0.000   0.000   0.000  -0.000   0.000   0.000   0.015   0.019   0.000  -0.020  -0.000  -0.004  -0.002  -0.000   0.000


------------------------ aborting loop because EDIFF is reached ----------------------------------------





 total charge

# of ion       s       p       d       tot
------------------------------------------
    1        0.340   6.291   6.057  12.688
    2        0.340   6.291   6.057  12.688
    3        0.340   6.291   6.057  12.688
    4        0.340   6.291   6.057  12.688
    5        0.340   6.291   6.057  12.688
    6        0.340   6.291   6.057  12.688
    7        0.340   6.291   6.057  12.688
    8        0.340   6.291   6.057  12.688
    9        1.487   2.266   0.051   3.804
   10        1.487   2.266   0.051   3.804
   11        1.487   2.266   0.051   3.804
   12        1.487   2.266   0.051   3.804
   13        1.487   2.266   0.051   3.804
   14        1.487   2.266   0.051   3.804
   15        1.487   2.266   0.051   3.804
   16        1.487   2.266   0.051   3.804
--------------------------------------------------
tot         14.620  68.451  48.863 131.934



 magnetization (x)

# of ion       s       p       d       tot
------------------------------------------
    1        0.029   0.012   2.560   2.601
    2       -0.029  -0.012  -2.560  -2.601
    3       -0.029  -0.012  -2.560  -2.601
    4        0.029   0.012   2.560   2.601
    5        0.029   0.012   2.560   2.601
    6       -0.029  -0.012  -2.560  -2.601
    7       -0.029  -0.012  -2.560  -2.601
    8        0.029   0.012   2.560   2.601
    9        0.000   0.000   0.000   0.000
   10        0.000   0.000   0.000   0.000
   11        0.000   0.000   0.000   0.000
   12        0.000   0.000   0.000   0.000
   13        0.000   0.000   0.000   0.000
   14        0.000   0.000   0.000   0.000
   15        0.000   0.000   0.000   0.000
   16        0.000   0.000   0.000   0.000
--------------------------------------------------
tot          0.000   0.000   0.000   0.000
 
    CHARGE:  cpu time      1.0492: real time      1.0547
    FORLOC:  cpu time      0.0033: real time      0.0033
    FORNL :  cpu time      6.9772: real time      7.0110
    STRESS:  cpu time     20.9760: real time     21.0823
    FORCOR:  cpu time      0.0524: real time      0.0526
    FORHAR:  cpu time      0.0073: real time      0.0074
    MIXING:  cpu time      0.0015: real time      0.0015
    OFIELD:  cpu time      0.0000: real time      0.0000
    FORVDW:  cpu time      0.7657: real time      0.7685

  FORCE on cell =-STRESS in cart. coord.  units (eV):
  Direction    XX          YY          ZZ          XY          YZ          ZX
  --------------------------------------------------------------------------------------
  Alpha Z   796.08647   796.08647   796.08647
  Ewald    -949.61102 -1800.50119 -8404.17945    -0.00000     0.00000    -0.00000
  Hartree  5495.91000  4705.24140 -1270.65242    -0.00000    -0.00000    -0.00000
  E(xc)    -896.47798  -898.49458  -897.72057    -0.00000     0.00000    -0.00000
  Local   -6398.62804 -4758.88892  7841.23877    -0.00000     0.00000    -0.00000
  n-local  -275.11990  -247.62207  -240.11350    -0.88889    -0.26295    -0.77203
  augment   530.91582   515.89758   514.26204     0.00000    -0.00000     0.00000
  Kinetic  1700.15393  1690.83605  1663.30992     3.57979    -0.32204     0.18865
  Fock        0.00000     0.00000     0.00000     0.00000     0.00000     0.00000
  vdW        -6.18216    -6.25573    -6.45440    -0.00000     0.00000    -0.00000
  -------------------------------------------------------------------------------------
  Total      -2.95287    -3.70099    -4.22313     0.00000     0.00000     0.00000
  in kB     -14.83081   -18.58823   -21.21069     0.00000     0.00000     0.00000
  external pressure =      -18.21 kB  Pullay stress =        0.00 kB


 VOLUME and BASIS-vectors are now :
 -----------------------------------------------------------------------------
  energy-cutoff  :      550.00
  volume of cell :      319.00
      direct lattice vectors                 reciprocal lattice vectors
     4.839875626 -5.787815912  0.000000000     0.103308440 -0.086388373  0.000000000
     4.839875626  5.787815912 -0.000000000     0.103308440  0.086388373 -0.000000000
     0.000000000  0.000000000  5.693925449     0.000000000  0.000000000  0.175625763

  length of vectors
     7.544747120  7.544747120  5.693925449     0.134668425  0.134668425  0.175625763


 FORCES acting on ions
    electron-ion (+dipol)            ewald-force                    non-local-force                 convergence-correction
 -----------------------------------------------------------------------------------------------
   0.892E-13 -.111E-12 -.447E-13   -.355E-13 0.284E-13 0.533E-13   -.281E-21 0.275E-21 0.225E-21   0.334E-12 -.644E-12 0.306E-12
   0.782E-12 0.718E-12 -.256E-13   -.372E-13 0.284E-13 0.124E-13   -.154E-21 -.504E-21 -.203E-21   0.255E-12 -.566E-12 0.184E-12
   0.650E-12 -.149E-11 -.119E-10   -.341E-13 0.284E-13 0.000E+00   -.152E-21 0.654E-21 0.201E-21   -.162E-12 0.790E-12 -.630E-12
   -.497E-11 -.962E-11 -.886E-11   -.355E-13 0.426E-13 0.000E+00   0.113E-21 -.138E-22 0.437E-21   -.405E-12 0.457E-12 -.215E-12
   -.261E-11 -.396E-11 -.374E-11   -.138E-13 -.107E-13 0.888E-14   -.184E-21 0.481E-21 0.381E-21   0.413E-13 0.114E-12 -.705E-13
   0.431E-11 0.575E-11 -.438E-11   0.711E-14 0.355E-14 0.497E-13   0.167E-21 -.631E-21 0.557E-22   -.122E-12 0.351E-12 -.183E-12
   -.145E-10 -.295E-10 0.369E-10   -.711E-14 -.249E-13 0.178E-13   0.241E-21 0.184E-21 0.254E-22   0.290E-12 0.135E-12 -.999E-14
   0.890E-12 -.642E-11 0.350E-10   0.139E-13 0.000E+00 0.142E-13   0.785E-22 -.186E-21 0.789E-22   0.278E-12 -.488E-13 0.289E-12
   0.738E-07 0.239E-11 0.329E+03   0.143E-13 -.213E-13 -.330E+03   -.379E-18 0.223E-17 0.115E+01   0.787E-13 -.958E-13 -.176E-02
   0.738E-07 0.669E-12 0.329E+03   0.142E-13 -.177E-13 -.330E+03   0.216E-17 -.959E-18 0.115E+01   0.701E-13 -.721E-13 -.176E-02
   0.738E-07 -.269E-11 0.329E+03   0.142E-13 -.145E-13 -.330E+03   -.896E-18 0.160E-17 0.115E+01   -.596E-13 0.119E-12 -.176E-02
   0.738E-07 -.974E-13 0.329E+03   0.210E-13 0.000E+00 -.330E+03   0.257E-17 -.122E-18 0.115E+01   -.115E-12 0.636E-14 -.176E-02
   -.738E-07 -.669E-12 -.329E+03   0.210E-13 -.291E-14 0.330E+03   -.541E-18 0.535E-18 -.115E+01   -.914E-13 0.783E-13 0.176E-02
   -.738E-07 -.868E-12 -.329E+03   0.217E-13 0.544E-15 0.330E+03   -.373E-18 -.720E-18 -.115E+01   -.150E-12 0.895E-13 0.176E-02
   -.738E-07 -.193E-12 -.329E+03   0.206E-13 -.325E-15 0.330E+03   0.124E-18 -.159E-17 -.115E+01   0.119E-12 -.496E-13 0.176E-02
   -.738E-07 -.304E-12 -.329E+03   0.217E-13 0.654E-14 0.330E+03   -.437E-18 -.145E-17 -.115E+01   0.918E-13 -.136E-12 0.176E-02
 -----------------------------------------------------------------------------------------------
   -.156E-10 -.464E-10 0.347E-10   0.648E-14 0.463E-13 0.000E+00   0.223E-17 -.480E-18 -.178E-14   0.451E-12 0.529E-12 -.380E-12
 
 
 POSITION                                       TOTAL-FORCE (eV/Angst)
 -----------------------------------------------------------------------------------
      0.00000      0.00000     -0.00000        -0.000000      0.000000     -0.000000
      2.41994      2.89391     -0.00000        -0.000000      0.000000     -0.000000
      2.41994     -2.89391     -0.00000        -0.000000      0.000000      0.000000
      4.83988     -0.00000     -0.00000        -0.000000      0.000000     -0.000000
      2.41994     -0.00000     -0.00000        -0.000000      0.000000     -0.000000
      4.83988      2.89391     -0.00000        -0.000000      0.000000     -0.000000
      4.83988     -2.89391     -0.00000        -0.000000      0.000000     -0.000000
      7.25981     -0.00000     -0.00000        -0.000000      0.000000     -0.000000
      2.41994     -1.44695      3.90866         0.000000      0.000000      0.037048
      4.83988      1.44695      3.90866        -0.000000      0.000000      0.037048
      4.83988     -4.34086      3.90866         0.000000      0.000000      0.037048
      7.25981     -1.44695      3.90866        -0.000000      0.000000      0.037048
      2.41994      1.44695      1.78527         0.000000     -0.000000     -0.037048
      4.83988      4.34086      1.78527         0.000000     -0.000000     -0.037048
      4.83988     -1.44695      1.78527        -0.000000     -0.000000     -0.037048
      7.25981      1.44695      1.78527        -0.000000     -0.000000     -0.037048
 -----------------------------------------------------------------------------------
    total drift:                               -0.000000     -0.000000      0.000000


--------------------------------------------------------------------------------------------------------



  FREE ENERGIE OF THE ION-ELECTRON SYSTEM (eV)
  ---------------------------------------------------
  free  energy   TOTEN  =       -98.29036947 eV

  energy  without entropy=      -98.27153872  energy(sigma->0) =      -98.28095410
 
 d Force = 0.1537314E-03[ 0.367E-03,-0.591E-04]  d Energy =-0.1122606E-03 0.266E-03
 d Force =-0.3270531E+01[-0.327E+01,-0.327E+01]  d Ewald  =-0.5157363E+01 0.189E+01


--------------------------------------------------------------------------------------------------------


    POTLOK:  cpu time      0.3301: real time      0.3462


--------------------------------------------------------------------------------------------------------




--------------------------------------------------------------------------------------------------------


  
 reached required accuracy - stopping structural energy minimisation
     LOOP+:  cpu time    176.4941: real time    177.5764
    4ORBIT:  cpu time      0.0000: real time      0.0000



 total charge

# of ion       s       p       d       tot
------------------------------------------
    1        0.340   6.291   6.057  12.688
    2        0.340   6.291   6.057  12.688
    3        0.340   6.291   6.057  12.688
    4        0.340   6.291   6.057  12.688
    5        0.340   6.291   6.057  12.688
    6        0.340   6.291   6.057  12.688
    7        0.340   6.291   6.057  12.688
    8        0.340   6.291   6.057  12.688
    9        1.487   2.266   0.051   3.804
   10        1.487   2.266   0.051   3.804
   11        1.487   2.266   0.051   3.804
   12        1.487   2.266   0.051   3.804
   13        1.487   2.266   0.051   3.804
   14        1.487   2.266   0.051   3.804
   15        1.487   2.266   0.051   3.804
   16        1.487   2.266   0.051   3.804
--------------------------------------------------
tot         14.620  68.451  48.863 131.934



 magnetization (x)

# of ion       s       p       d       tot
------------------------------------------
    1        0.029   0.012   2.560   2.601
    2       -0.029  -0.012  -2.560  -2.601
    3       -0.029  -0.012  -2.560  -2.601
    4        0.029   0.012   2.560   2.601
    5        0.029   0.012   2.560   2.601
    6       -0.029  -0.012  -2.560  -2.601
    7       -0.029  -0.012  -2.560  -2.601
    8        0.029   0.012   2.560   2.601
    9        0.000   0.000   0.000   0.000
   10        0.000   0.000   0.000   0.000
   11        0.000   0.000   0.000   0.000
   12        0.000   0.000   0.000   0.000
   13        0.000   0.000   0.000   0.000
   14        0.000   0.000   0.000   0.000
   15        0.000   0.000   0.000   0.000
   16        0.000   0.000   0.000   0.000
--------------------------------------------------
tot          0.000   0.000   0.000   0.000
 

 total amount of memory used by VASP MPI-rank0   190176. kBytes
=======================================================================

   base      :      30000. kBytes
   nonlr-proj:      13643. kBytes
   fftplans  :       3084. kBytes
   grid      :      19560. kBytes
   one-center:        497. kBytes
   wavefun   :     123392. kBytes
 
  
  
 General timing and accounting informations for this job:
 ========================================================
  
                  Total CPU time used (sec):     1508.886
                            User time (sec):     1505.093
                          System time (sec):        3.792
                         Elapsed time (sec):     1519.221
  
                   Maximum memory used (kb):      481716.
                   Average memory used (kb):          N/A
  
                          Minor page faults:       404968
                          Major page faults:            0
                 Voluntary context switches:        40589
