 running   20 mpi-ranks, on    5 nodes
 distrk:  each k-point on   20 cores,    1 groups
 distr:  one band on    1 cores,   20 groups
 vasp.6.4.1 05Apr23 (build Jun 01 2023 13:46:15) complex                        
  
 POSCAR found type information on POSCAR FeSe
 POSCAR found :  2 types and      16 ions
 Reading from existing POTCAR
 scaLAPACK will be used
 -----------------------------------------------------------------------------
|                                                                             |
|           W    W    AA    RRRRR   N    N  II  N    N   GGGG   !!!           |
|           W    W   A  A   R    R  NN   N  II  NN   N  G    G  !!!           |
|           W    W  A    A  R    R  N N  N  II  N N  N  G       !!!           |
|           W WW W  AAAAAA  RRRRR   N  N N  II  N  N N  G  GGG   !            |
|           WW  WW  A    A  R   R   N   NN  II  N   NN  G    G                |
|           W    W  A    A  R    R  N    N  II  N    N   GGGG   !!!           |
|                                                                             |
|     For optimal performance we recommend to set                             |
|       NCORE = 2 up to number-of-cores-per-socket                            |
|     NCORE specifies how many cores store one orbital (NPAR=cpu/NCORE).      |
|     This setting can greatly improve the performance of VASP for DFT.       |
|     The default, NCORE=1 might be grossly inefficient on modern             |
|     multi-core architectures or massively parallel machines. Do your        |
|     own testing! More info at https://www.vasp.at/wiki/index.php/NCORE      |
|     Unfortunately you need to use the default for GW and RPA                |
|     calculations (for HF NCORE is supported but not extensively tested      |
|     yet).                                                                   |
|                                                                             |
 -----------------------------------------------------------------------------

 Reading from existing POTCAR
 LDA part: xc-table for Pade appr. of Perdew
 POSCAR, INCAR and KPOINTS ok, starting setup
 FFT: planning ... GRIDC
 FFT: planning ... GRID_SOFT
 FFT: planning ... GRID
 WAVECAR not read
 WARNING: random wavefunctions but no delay for mixing, default for NELMDL
 entering main loop
       N       E                     dE             d eps       ncg     rms          rms(c)
DAV:   1     0.201221795201E+04    0.20122E+04   -0.88966E+04 35340   0.195E+03
DAV:   2     0.122975527205E+03   -0.18892E+04   -0.18350E+04 32000   0.568E+02
DAV:   3    -0.851958386670E+02   -0.20817E+03   -0.18528E+03 45860   0.187E+02
DAV:   4    -0.997442605074E+02   -0.14548E+02   -0.14242E+02 47140   0.513E+01
DAV:   5    -0.100084072861E+03   -0.33981E+00   -0.33905E+00 44740   0.821E+00    0.276E+01
RMM:   6    -0.112940863703E+03   -0.12857E+02   -0.17263E+02 32068   0.851E+01    0.526E+01
RMM:   7    -0.909426233470E+02    0.21998E+02   -0.43911E+01 32024   0.511E+01    0.112E+01
RMM:   8    -0.915247659936E+02   -0.58214E+00   -0.30675E+00 41159   0.506E+00    0.518E+00
RMM:   9    -0.916124070937E+02   -0.87641E-01   -0.89125E-01 44556   0.288E+00    0.277E+00
RMM:  10    -0.916279160167E+02   -0.15509E-01   -0.28051E-01 45971   0.162E+00    0.145E+00
RMM:  11    -0.916314634532E+02   -0.35474E-02   -0.60514E-02 42228   0.102E+00    0.538E-01
RMM:  12    -0.916388484984E+02   -0.73850E-02   -0.17465E-02 42971   0.460E-01    0.303E-01
RMM:  13    -0.916387870501E+02    0.61448E-04   -0.42859E-03 37761   0.219E-01    0.131E-01
RMM:  14    -0.916388031586E+02   -0.16109E-04   -0.12728E-03 25773   0.133E-01
   1 F= -.98264191E+02 E0= -.98255335E+02  d E =-.982642E+02  mag=     0.0000
 curvature:   0.00 expect dE= 0.000E+00 dE for cont linesearch  0.000E+00
 trial: gam= 0.00000 g(F)=  0.225E-01 g(S)=  0.348E-02 ort = 0.000E+00 (trialstep = 0.100E+01)
 search vector abs. value=  0.260E-01
 bond charge predicted
       N       E                     dE             d eps       ncg     rms          rms(c)
DAV:   1    -0.916681581396E+02   -0.29371E-01   -0.14258E+00 38020   0.400E+00    0.112E+00
RMM:   2    -0.916600163144E+02    0.81418E-02   -0.99257E-02 37341   0.165E+00    0.849E-01
RMM:   3    -0.916564518498E+02    0.35645E-02   -0.39211E-02 33713   0.117E+00    0.592E-01
RMM:   4    -0.916531100791E+02    0.33418E-02   -0.12203E-02 33280   0.623E-01    0.158E-01
RMM:   5    -0.916535630979E+02   -0.45302E-03   -0.46641E-03 32832   0.231E-01    0.109E-01
RMM:   6    -0.916535108061E+02    0.52292E-04   -0.78174E-04 24104   0.137E-01
   2 F= -.98278695E+02 E0= -.98269307E+02  d E =-.145042E-01  mag=     0.0000
 trial-energy change:   -0.014504  1 .order   -0.014444   -0.025953   -0.002935
 step:   1.1275(harm=  1.1275)  dis= 0.01312  next Energy=   -98.278822 (dE=-0.146E-01)
 bond charge predicted
       N       E                     dE             d eps       ncg     rms          rms(c)
DAV:   1    -0.916539720852E+02   -0.40899E-03   -0.22116E-02 38280   0.502E-01    0.153E-01
RMM:   2    -0.916538056508E+02    0.16643E-03   -0.15600E-03 28419   0.211E-01
   3 F= -.98278971E+02 E0= -.98269358E+02  d E =-.147799E-01  mag=     0.0000
 curvature:  -0.56 expect dE=-0.917E-03 dE for cont linesearch -0.486E-04
 trial: gam= 0.00501 g(F)=  0.382E-03 g(S)=  0.124E-02 ort = 0.150E-02 (trialstep = 0.103E+01)
 search vector abs. value=  0.164E-02
 reached required accuracy - stopping structural energy minimisation
