  16  16   1   0
  0.2125000E+02  0.8122920E-09  0.7084758E-09  0.6451178E-09  0.5000000E-15
  1.000000000000000E-004
  CAR 
 unknown system                          
      8.58407165    -54.74672155  301      2.99072639      1.00000000
    -54.747  0.0000E+00  0.0000E+00  0.0000E+00  0.0000E+00
    -54.536  0.0000E+00  0.0000E+00  0.0000E+00  0.0000E+00
    -54.325  0.0000E+00  0.0000E+00  0.0000E+00  0.0000E+00
    -54.113  0.0000E+00  0.0000E+00  0.0000E+00  0.0000E+00
    -53.902  0.0000E+00  0.0000E+00  0.0000E+00  0.0000E+00
    -53.691  0.0000E+00  0.0000E+00  0.0000E+00  0.0000E+00
    -53.480  0.0000E+00  0.0000E+00  0.0000E+00  0.0000E+00
    -53.269  0.0000E+00  0.0000E+00  0.0000E+00  0.0000E+00
    -53.058  0.0000E+00  0.0000E+00  0.0000E+00  0.0000E+00
    -52.847  0.0000E+00  0.0000E+00  0.0000E+00  0.0000E+00
    -52.636  0.0000E+00  0.0000E+00  0.0000E+00  0.0000E+00
    -52.425  0.0000E+00  0.0000E+00  0.0000E+00  0.0000E+00
    -52.213  0.0000E+00  0.0000E+00  0.0000E+00  0.0000E+00
    -52.002  0.0000E+00  0.0000E+00  0.0000E+00  0.0000E+00
    -51.791  0.9474E+01  0.9474E+01  0.2000E+01  0.2000E+01
    -51.580  0.2842E+02  0.2842E+02  0.8000E+01  0.8000E+01
    -51.369  0.4737E+01  0.4737E+01  0.9000E+01  0.9000E+01
    -51.158  0.9474E+01  0.9474E+01  0.1100E+02  0.1100E+02
    -50.947  0.0000E+00  0.0000E+00  0.1100E+02  0.1100E+02
    -50.736  0.4737E+01  0.4737E+01  0.1200E+02  0.1200E+02
    -50.525  0.0000E+00  0.0000E+00  0.1200E+02  0.1200E+02
    -50.314  0.0000E+00  0.0000E+00  0.1200E+02  0.1200E+02
    -50.102  0.0000E+00  0.0000E+00  0.1200E+02  0.1200E+02
    -49.891  0.0000E+00  0.0000E+00  0.1200E+02  0.1200E+02
    -49.680  0.0000E+00  0.0000E+00  0.1200E+02  0.1200E+02
    -49.469  0.0000E+00  0.0000E+00  0.1200E+02  0.1200E+02
    -49.258  0.4737E+01  0.4737E+01  0.1300E+02  0.1300E+02
    -49.047  0.9474E+01  0.9474E+01  0.1500E+02  0.1500E+02
    -48.836  0.1421E+02  0.1421E+02  0.1800E+02  0.1800E+02
    -48.625  0.1895E+02  0.1895E+02  0.2200E+02  0.2200E+02
    -48.414  0.9474E+01  0.9474E+01  0.2400E+02  0.2400E+02
    -48.203  0.0000E+00  0.0000E+00  0.2400E+02  0.2400E+02
    -47.991  0.0000E+00  0.0000E+00  0.2400E+02  0.2400E+02
    -47.780  0.0000E+00  0.0000E+00  0.2400E+02  0.2400E+02
    -47.569  0.0000E+00  0.0000E+00  0.2400E+02  0.2400E+02
    -47.358  0.0000E+00  0.0000E+00  0.2400E+02  0.2400E+02
    -47.147  0.0000E+00  0.0000E+00  0.2400E+02  0.2400E+02
    -46.936  0.0000E+00  0.0000E+00  0.2400E+02  0.2400E+02
    -46.725  0.0000E+00  0.0000E+00  0.2400E+02  0.2400E+02
    -46.514  0.0000E+00  0.0000E+00  0.2400E+02  0.2400E+02
    -46.303  0.0000E+00  0.0000E+00  0.2400E+02  0.2400E+02
    -46.092  0.0000E+00  0.0000E+00  0.2400E+02  0.2400E+02
    -45.880  0.0000E+00  0.0000E+00  0.2400E+02  0.2400E+02
    -45.669  0.0000E+00  0.0000E+00  0.2400E+02  0.2400E+02
    -45.458  0.0000E+00  0.0000E+00  0.2400E+02  0.2400E+02
    -45.247  0.0000E+00  0.0000E+00  0.2400E+02  0.2400E+02
    -45.036  0.0000E+00  0.0000E+00  0.2400E+02  0.2400E+02
    -44.825  0.0000E+00  0.0000E+00  0.2400E+02  0.2400E+02
    -44.614  0.0000E+00  0.0000E+00  0.2400E+02  0.2400E+02
    -44.403  0.0000E+00  0.0000E+00  0.2400E+02  0.2400E+02
    -44.192  0.0000E+00  0.0000E+00  0.2400E+02  0.2400E+02
    -43.980  0.0000E+00  0.0000E+00  0.2400E+02  0.2400E+02
    -43.769  0.0000E+00  0.0000E+00  0.2400E+02  0.2400E+02
    -43.558  0.0000E+00  0.0000E+00  0.2400E+02  0.2400E+02
    -43.347  0.0000E+00  0.0000E+00  0.2400E+02  0.2400E+02
    -43.136  0.0000E+00  0.0000E+00  0.2400E+02  0.2400E+02
    -42.925  0.0000E+00  0.0000E+00  0.2400E+02  0.2400E+02
    -42.714  0.0000E+00  0.0000E+00  0.2400E+02  0.2400E+02
    -42.503  0.0000E+00  0.0000E+00  0.2400E+02  0.2400E+02
    -42.292  0.0000E+00  0.0000E+00  0.2400E+02  0.2400E+02
    -42.081  0.0000E+00  0.0000E+00  0.2400E+02  0.2400E+02
    -41.869  0.0000E+00  0.0000E+00  0.2400E+02  0.2400E+02
    -41.658  0.0000E+00  0.0000E+00  0.2400E+02  0.2400E+02
    -41.447  0.0000E+00  0.0000E+00  0.2400E+02  0.2400E+02
    -41.236  0.0000E+00  0.0000E+00  0.2400E+02  0.2400E+02
    -41.025  0.0000E+00  0.0000E+00  0.2400E+02  0.2400E+02
    -40.814  0.0000E+00  0.0000E+00  0.2400E+02  0.2400E+02
    -40.603  0.0000E+00  0.0000E+00  0.2400E+02  0.2400E+02
    -40.392  0.0000E+00  0.0000E+00  0.2400E+02  0.2400E+02
    -40.181  0.0000E+00  0.0000E+00  0.2400E+02  0.2400E+02
    -39.970  0.0000E+00  0.0000E+00  0.2400E+02  0.2400E+02
    -39.758  0.0000E+00  0.0000E+00  0.2400E+02  0.2400E+02
    -39.547  0.0000E+00  0.0000E+00  0.2400E+02  0.2400E+02
    -39.336  0.0000E+00  0.0000E+00  0.2400E+02  0.2400E+02
    -39.125  0.0000E+00  0.0000E+00  0.2400E+02  0.2400E+02
    -38.914  0.0000E+00  0.0000E+00  0.2400E+02  0.2400E+02
    -38.703  0.0000E+00  0.0000E+00  0.2400E+02  0.2400E+02
    -38.492  0.0000E+00  0.0000E+00  0.2400E+02  0.2400E+02
    -38.281  0.0000E+00  0.0000E+00  0.2400E+02  0.2400E+02
    -38.070  0.0000E+00  0.0000E+00  0.2400E+02  0.2400E+02
    -37.859  0.0000E+00  0.0000E+00  0.2400E+02  0.2400E+02
    -37.647  0.0000E+00  0.0000E+00  0.2400E+02  0.2400E+02
    -37.436  0.0000E+00  0.0000E+00  0.2400E+02  0.2400E+02
    -37.225  0.0000E+00  0.0000E+00  0.2400E+02  0.2400E+02
    -37.014  0.0000E+00  0.0000E+00  0.2400E+02  0.2400E+02
    -36.803  0.0000E+00  0.0000E+00  0.2400E+02  0.2400E+02
    -36.592  0.0000E+00  0.0000E+00  0.2400E+02  0.2400E+02
    -36.381  0.0000E+00  0.0000E+00  0.2400E+02  0.2400E+02
    -36.170  0.0000E+00  0.0000E+00  0.2400E+02  0.2400E+02
    -35.959  0.0000E+00  0.0000E+00  0.2400E+02  0.2400E+02
    -35.747  0.0000E+00  0.0000E+00  0.2400E+02  0.2400E+02
    -35.536  0.0000E+00  0.0000E+00  0.2400E+02  0.2400E+02
    -35.325  0.0000E+00  0.0000E+00  0.2400E+02  0.2400E+02
    -35.114  0.0000E+00  0.0000E+00  0.2400E+02  0.2400E+02
    -34.903  0.0000E+00  0.0000E+00  0.2400E+02  0.2400E+02
    -34.692  0.0000E+00  0.0000E+00  0.2400E+02  0.2400E+02
    -34.481  0.0000E+00  0.0000E+00  0.2400E+02  0.2400E+02
    -34.270  0.0000E+00  0.0000E+00  0.2400E+02  0.2400E+02
    -34.059  0.0000E+00  0.0000E+00  0.2400E+02  0.2400E+02
    -33.848  0.0000E+00  0.0000E+00  0.2400E+02  0.2400E+02
    -33.636  0.0000E+00  0.0000E+00  0.2400E+02  0.2400E+02
    -33.425  0.0000E+00  0.0000E+00  0.2400E+02  0.2400E+02
    -33.214  0.0000E+00  0.0000E+00  0.2400E+02  0.2400E+02
    -33.003  0.0000E+00  0.0000E+00  0.2400E+02  0.2400E+02
    -32.792  0.0000E+00  0.0000E+00  0.2400E+02  0.2400E+02
    -32.581  0.0000E+00  0.0000E+00  0.2400E+02  0.2400E+02
    -32.370  0.0000E+00  0.0000E+00  0.2400E+02  0.2400E+02
    -32.159  0.0000E+00  0.0000E+00  0.2400E+02  0.2400E+02
    -31.948  0.0000E+00  0.0000E+00  0.2400E+02  0.2400E+02
    -31.737  0.0000E+00  0.0000E+00  0.2400E+02  0.2400E+02
    -31.525  0.0000E+00  0.0000E+00  0.2400E+02  0.2400E+02
    -31.314  0.0000E+00  0.0000E+00  0.2400E+02  0.2400E+02
    -31.103  0.0000E+00  0.0000E+00  0.2400E+02  0.2400E+02
    -30.892  0.0000E+00  0.0000E+00  0.2400E+02  0.2400E+02
    -30.681  0.0000E+00  0.0000E+00  0.2400E+02  0.2400E+02
    -30.470  0.0000E+00  0.0000E+00  0.2400E+02  0.2400E+02
    -30.259  0.0000E+00  0.0000E+00  0.2400E+02  0.2400E+02
    -30.048  0.0000E+00  0.0000E+00  0.2400E+02  0.2400E+02
    -29.837  0.0000E+00  0.0000E+00  0.2400E+02  0.2400E+02
    -29.626  0.0000E+00  0.0000E+00  0.2400E+02  0.2400E+02
    -29.414  0.0000E+00  0.0000E+00  0.2400E+02  0.2400E+02
    -29.203  0.0000E+00  0.0000E+00  0.2400E+02  0.2400E+02
    -28.992  0.0000E+00  0.0000E+00  0.2400E+02  0.2400E+02
    -28.781  0.0000E+00  0.0000E+00  0.2400E+02  0.2400E+02
    -28.570  0.0000E+00  0.0000E+00  0.2400E+02  0.2400E+02
    -28.359  0.0000E+00  0.0000E+00  0.2400E+02  0.2400E+02
    -28.148  0.0000E+00  0.0000E+00  0.2400E+02  0.2400E+02
    -27.937  0.0000E+00  0.0000E+00  0.2400E+02  0.2400E+02
    -27.726  0.0000E+00  0.0000E+00  0.2400E+02  0.2400E+02
    -27.514  0.0000E+00  0.0000E+00  0.2400E+02  0.2400E+02
    -27.303  0.0000E+00  0.0000E+00  0.2400E+02  0.2400E+02
    -27.092  0.0000E+00  0.0000E+00  0.2400E+02  0.2400E+02
    -26.881  0.0000E+00  0.0000E+00  0.2400E+02  0.2400E+02
    -26.670  0.0000E+00  0.0000E+00  0.2400E+02  0.2400E+02
    -26.459  0.0000E+00  0.0000E+00  0.2400E+02  0.2400E+02
    -26.248  0.0000E+00  0.0000E+00  0.2400E+02  0.2400E+02
    -26.037  0.0000E+00  0.0000E+00  0.2400E+02  0.2400E+02
    -25.826  0.0000E+00  0.0000E+00  0.2400E+02  0.2400E+02
    -25.615  0.0000E+00  0.0000E+00  0.2400E+02  0.2400E+02
    -25.403  0.0000E+00  0.0000E+00  0.2400E+02  0.2400E+02
    -25.192  0.0000E+00  0.0000E+00  0.2400E+02  0.2400E+02
    -24.981  0.0000E+00  0.0000E+00  0.2400E+02  0.2400E+02
    -24.770  0.0000E+00  0.0000E+00  0.2400E+02  0.2400E+02
    -24.559  0.0000E+00  0.0000E+00  0.2400E+02  0.2400E+02
    -24.348  0.0000E+00  0.0000E+00  0.2400E+02  0.2400E+02
    -24.137  0.0000E+00  0.0000E+00  0.2400E+02  0.2400E+02
    -23.926  0.0000E+00  0.0000E+00  0.2400E+02  0.2400E+02
    -23.715  0.0000E+00  0.0000E+00  0.2400E+02  0.2400E+02
    -23.504  0.0000E+00  0.0000E+00  0.2400E+02  0.2400E+02
    -23.292  0.0000E+00  0.0000E+00  0.2400E+02  0.2400E+02
    -23.081  0.0000E+00  0.0000E+00  0.2400E+02  0.2400E+02
    -22.870  0.0000E+00  0.0000E+00  0.2400E+02  0.2400E+02
    -22.659  0.0000E+00  0.0000E+00  0.2400E+02  0.2400E+02
    -22.448  0.0000E+00  0.0000E+00  0.2400E+02  0.2400E+02
    -22.237  0.0000E+00  0.0000E+00  0.2400E+02  0.2400E+02
    -22.026  0.0000E+00  0.0000E+00  0.2400E+02  0.2400E+02
    -21.815  0.0000E+00  0.0000E+00  0.2400E+02  0.2400E+02
    -21.604  0.0000E+00  0.0000E+00  0.2400E+02  0.2400E+02
    -21.393  0.0000E+00  0.0000E+00  0.2400E+02  0.2400E+02
    -21.181  0.0000E+00  0.0000E+00  0.2400E+02  0.2400E+02
    -20.970  0.0000E+00  0.0000E+00  0.2400E+02  0.2400E+02
    -20.759  0.0000E+00  0.0000E+00  0.2400E+02  0.2400E+02
    -20.548  0.0000E+00  0.0000E+00  0.2400E+02  0.2400E+02
    -20.337  0.0000E+00  0.0000E+00  0.2400E+02  0.2400E+02
    -20.126  0.0000E+00  0.0000E+00  0.2400E+02  0.2400E+02
    -19.915  0.0000E+00  0.0000E+00  0.2400E+02  0.2400E+02
    -19.704  0.0000E+00  0.0000E+00  0.2400E+02  0.2400E+02
    -19.493  0.0000E+00  0.0000E+00  0.2400E+02  0.2400E+02
    -19.281  0.0000E+00  0.0000E+00  0.2400E+02  0.2400E+02
    -19.070  0.0000E+00  0.0000E+00  0.2400E+02  0.2400E+02
    -18.859  0.0000E+00  0.0000E+00  0.2400E+02  0.2400E+02
    -18.648  0.0000E+00  0.0000E+00  0.2400E+02  0.2400E+02
    -18.437  0.0000E+00  0.0000E+00  0.2400E+02  0.2400E+02
    -18.226  0.0000E+00  0.0000E+00  0.2400E+02  0.2400E+02
    -18.015  0.0000E+00  0.0000E+00  0.2400E+02  0.2400E+02
    -17.804  0.0000E+00  0.0000E+00  0.2400E+02  0.2400E+02
    -17.593  0.0000E+00  0.0000E+00  0.2400E+02  0.2400E+02
    -17.382  0.0000E+00  0.0000E+00  0.2400E+02  0.2400E+02
    -17.170  0.0000E+00  0.0000E+00  0.2400E+02  0.2400E+02
    -16.959  0.0000E+00  0.0000E+00  0.2400E+02  0.2400E+02
    -16.748  0.0000E+00  0.0000E+00  0.2400E+02  0.2400E+02
    -16.537  0.0000E+00  0.0000E+00  0.2400E+02  0.2400E+02
    -16.326  0.0000E+00  0.0000E+00  0.2400E+02  0.2400E+02
    -16.115  0.0000E+00  0.0000E+00  0.2400E+02  0.2400E+02
    -15.904  0.0000E+00  0.0000E+00  0.2400E+02  0.2400E+02
    -15.693  0.0000E+00  0.0000E+00  0.2400E+02  0.2400E+02
    -15.482  0.0000E+00  0.0000E+00  0.2400E+02  0.2400E+02
    -15.271  0.0000E+00  0.0000E+00  0.2400E+02  0.2400E+02
    -15.059  0.0000E+00  0.0000E+00  0.2400E+02  0.2400E+02
    -14.848  0.0000E+00  0.0000E+00  0.2400E+02  0.2400E+02
    -14.637  0.0000E+00  0.0000E+00  0.2400E+02  0.2400E+02
    -14.426  0.0000E+00  0.0000E+00  0.2400E+02  0.2400E+02
    -14.215  0.0000E+00  0.0000E+00  0.2400E+02  0.2400E+02
    -14.004  0.0000E+00  0.0000E+00  0.2400E+02  0.2400E+02
    -13.793  0.0000E+00  0.0000E+00  0.2400E+02  0.2400E+02
    -13.582  0.0000E+00  0.0000E+00  0.2400E+02  0.2400E+02
    -13.371  0.0000E+00  0.0000E+00  0.2400E+02  0.2400E+02
    -13.160  0.0000E+00  0.0000E+00  0.2400E+02  0.2400E+02
    -12.948  0.0000E+00  0.0000E+00  0.2400E+02  0.2400E+02
    -12.737  0.0000E+00  0.0000E+00  0.2400E+02  0.2400E+02
    -12.526  0.0000E+00  0.0000E+00  0.2400E+02  0.2400E+02
    -12.315  0.0000E+00  0.0000E+00  0.2400E+02  0.2400E+02
    -12.104  0.0000E+00  0.0000E+00  0.2400E+02  0.2400E+02
    -11.893  0.0000E+00  0.0000E+00  0.2400E+02  0.2400E+02
    -11.682  0.0000E+00  0.0000E+00  0.2400E+02  0.2400E+02
    -11.471  0.0000E+00  0.0000E+00  0.2400E+02  0.2400E+02
    -11.260  0.0000E+00  0.0000E+00  0.2400E+02  0.2400E+02
    -11.048  0.1757E+01  0.1757E+01  0.2412E+02  0.2412E+02
    -10.837  0.4656E+01  0.4656E+01  0.2464E+02  0.2464E+02
    -10.626  0.6885E+01  0.6885E+01  0.2555E+02  0.2555E+02
    -10.415  0.5836E+01  0.5836E+01  0.2636E+02  0.2636E+02
    -10.204  0.6124E+01  0.6124E+01  0.2732E+02  0.2732E+02
     -9.993  0.7564E+01  0.7564E+01  0.2834E+02  0.2834E+02
     -9.782  0.1499E+02  0.1499E+02  0.2986E+02  0.2986E+02
     -9.571  0.8744E+01  0.8744E+01  0.3200E+02  0.3200E+02
     -9.360  0.0000E+00  0.0000E+00  0.3200E+02  0.3200E+02
     -9.149  0.0000E+00  0.0000E+00  0.3200E+02  0.3200E+02
     -8.937  0.0000E+00  0.0000E+00  0.3200E+02  0.3200E+02
     -8.726  0.0000E+00  0.0000E+00  0.3200E+02  0.3200E+02
     -8.515  0.0000E+00  0.0000E+00  0.3200E+02  0.3200E+02
     -8.304  0.0000E+00  0.0000E+00  0.3200E+02  0.3200E+02
     -8.093  0.0000E+00  0.0000E+00  0.3200E+02  0.3200E+02
     -7.882  0.0000E+00  0.0000E+00  0.3200E+02  0.3200E+02
     -7.671  0.0000E+00  0.0000E+00  0.3200E+02  0.3200E+02
     -7.460  0.0000E+00  0.0000E+00  0.3200E+02  0.3200E+02
     -7.249  0.0000E+00  0.0000E+00  0.3200E+02  0.3200E+02
     -7.038  0.0000E+00  0.0000E+00  0.3200E+02  0.3200E+02
     -6.826  0.0000E+00  0.0000E+00  0.3200E+02  0.3200E+02
     -6.615  0.0000E+00  0.0000E+00  0.3200E+02  0.3200E+02
     -6.404  0.0000E+00  0.0000E+00  0.3200E+02  0.3200E+02
     -6.193  0.0000E+00  0.0000E+00  0.3200E+02  0.3200E+02
     -5.982  0.0000E+00  0.0000E+00  0.3200E+02  0.3200E+02
     -5.771  0.0000E+00  0.0000E+00  0.3200E+02  0.3200E+02
     -5.560  0.0000E+00  0.0000E+00  0.3200E+02  0.3200E+02
     -5.349  0.0000E+00  0.0000E+00  0.3200E+02  0.3200E+02
     -5.138  0.0000E+00  0.0000E+00  0.3200E+02  0.3200E+02
     -4.926  0.0000E+00  0.0000E+00  0.3200E+02  0.3200E+02
     -4.715  0.0000E+00  0.0000E+00  0.3200E+02  0.3200E+02
     -4.504  0.0000E+00  0.0000E+00  0.3200E+02  0.3200E+02
     -4.293  0.0000E+00  0.0000E+00  0.3200E+02  0.3200E+02
     -4.082  0.0000E+00  0.0000E+00  0.3200E+02  0.3200E+02
     -3.871  0.0000E+00  0.0000E+00  0.3200E+02  0.3200E+02
     -3.660  0.0000E+00  0.0000E+00  0.3200E+02  0.3200E+02
     -3.449  0.0000E+00  0.0000E+00  0.3200E+02  0.3200E+02
     -3.238  0.0000E+00  0.0000E+00  0.3200E+02  0.3200E+02
     -3.027  0.5720E+00  0.5720E+00  0.3204E+02  0.3204E+02
     -2.815  0.1252E+01  0.1252E+01  0.3221E+02  0.3221E+02
     -2.604  0.4895E+01  0.4895E+01  0.3265E+02  0.3265E+02
     -2.393  0.6858E+01  0.6858E+01  0.3363E+02  0.3363E+02
     -2.182  0.7832E+01  0.7832E+01  0.3500E+02  0.3500E+02
     -1.971  0.6395E+01  0.6395E+01  0.3605E+02  0.3605E+02
     -1.760  0.8403E+01  0.8403E+01  0.3725E+02  0.3725E+02
     -1.549  0.7736E+01  0.7736E+01  0.3864E+02  0.3864E+02
     -1.338  0.1048E+02  0.1048E+02  0.3995E+02  0.3995E+02
     -1.127  0.1119E+02  0.1119E+02  0.4169E+02  0.4169E+02
     -0.916  0.1591E+02  0.1591E+02  0.4367E+02  0.4367E+02
     -0.704  0.1364E+02  0.1364E+02  0.4554E+02  0.4554E+02
     -0.493  0.1180E+02  0.1180E+02  0.4739E+02  0.4739E+02
     -0.282  0.1768E+02  0.1768E+02  0.4928E+02  0.4928E+02
     -0.071  0.1657E+02  0.1657E+02  0.5162E+02  0.5162E+02
      0.140  0.1730E+02  0.1730E+02  0.5365E+02  0.5365E+02
      0.351  0.2271E+02  0.2271E+02  0.5637E+02  0.5637E+02
      0.562  0.2520E+02  0.2520E+02  0.5908E+02  0.5908E+02
      0.773  0.1803E+02  0.1803E+02  0.6144E+02  0.6144E+02
      0.984  0.1879E+02  0.1879E+02  0.6413E+02  0.6413E+02
      1.195  0.1431E+02  0.1431E+02  0.6603E+02  0.6603E+02
      1.407  0.1621E+02  0.1621E+02  0.6803E+02  0.6803E+02
      1.618  0.2132E+02  0.2132E+02  0.7004E+02  0.7004E+02
      1.829  0.1498E+02  0.1498E+02  0.7223E+02  0.7223E+02
      2.040  0.9745E+01  0.9745E+01  0.7355E+02  0.7355E+02
      2.251  0.9756E+01  0.9756E+01  0.7506E+02  0.7506E+02
      2.462  0.4479E+01  0.4479E+01  0.7598E+02  0.7598E+02
      2.673  0.1560E+02  0.1560E+02  0.7784E+02  0.7784E+02
      2.884  0.1176E+02  0.1176E+02  0.7944E+02  0.7944E+02
      3.095  0.7538E+01  0.7538E+01  0.8025E+02  0.8025E+02
      3.307  0.1842E+02  0.1842E+02  0.8218E+02  0.8218E+02
      3.518  0.1383E+02  0.1382E+02  0.8423E+02  0.8423E+02
      3.729  0.2178E+02  0.2184E+02  0.8625E+02  0.8625E+02
      3.940  0.2040E+02  0.2040E+02  0.8872E+02  0.8872E+02
      4.151  0.1391E+02  0.1393E+02  0.9090E+02  0.9090E+02
      4.362  0.1229E+02  0.1233E+02  0.9268E+02  0.9268E+02
      4.573  0.5370E+01  0.5397E+01  0.9378E+02  0.9378E+02
      4.784  0.3809E+01  0.3769E+01  0.9439E+02  0.9438E+02
      4.995  0.3568E+01  0.3491E+01  0.9502E+02  0.9501E+02
      5.206  0.3717E+01  0.3824E+01  0.9562E+02  0.9561E+02
      5.418  0.5913E+00  0.5719E+00  0.9600E+02  0.9599E+02
      5.629  0.0000E+00  0.4960E-02  0.9600E+02  0.9600E+02
      5.840  0.0000E+00  0.0000E+00  0.9600E+02  0.9600E+02
      6.051  0.0000E+00  0.0000E+00  0.9600E+02  0.9600E+02
      6.262  0.0000E+00  0.0000E+00  0.9600E+02  0.9600E+02
      6.473  0.0000E+00  0.0000E+00  0.9600E+02  0.9600E+02
      6.684  0.0000E+00  0.0000E+00  0.9600E+02  0.9600E+02
      6.895  0.0000E+00  0.0000E+00  0.9600E+02  0.9600E+02
      7.106  0.0000E+00  0.0000E+00  0.9600E+02  0.9600E+02
      7.317  0.0000E+00  0.0000E+00  0.9600E+02  0.9600E+02
      7.529  0.0000E+00  0.0000E+00  0.9600E+02  0.9600E+02
      7.740  0.0000E+00  0.0000E+00  0.9600E+02  0.9600E+02
      7.951  0.0000E+00  0.0000E+00  0.9600E+02  0.9600E+02
      8.162  0.0000E+00  0.0000E+00  0.9600E+02  0.9600E+02
      8.373  0.0000E+00  0.0000E+00  0.9600E+02  0.9600E+02
      8.584  0.0000E+00  0.0000E+00  0.9600E+02  0.9600E+02
      8.58407165    -54.74672155  301      2.99072639      1.00000000
    -54.747  0.0000E+00  0.0000E+00  0.0000E+00  0.0000E+00  0.0000E+00  0.0000E+00  0.0000E+00  0.0000E+00  0.0000E+00  0.0000E+00  0.0000E+00  0.0000E+00  0.0000E+00  0.0000E+00  0.0000E+00  0.0000E+00  0.0000E+00  0.0000E+00
    -54.536  0.0000E+00  0.0000E+00  0.0000E+00  0.0000E+00  0.0000E+00  0.0000E+00  0.0000E+00  0.0000E+00  0.0000E+00  0.0000E+00  0.0000E+00  0.0000E+00  0.0000E+00  0.0000E+00  0.0000E+00  0.0000E+00  0.0000E+00  0.0000E+00
    -54.325  0.0000E+00  0.0000E+00  0.0000E+00  0.0000E+00  0.0000E+00  0.0000E+00  0.0000E+00  0.0000E+00  0.0000E+00  0.0000E+00  0.0000E+00  0.0000E+00  0.0000E+00  0.0000E+00  0.0000E+00  0.0000E+00  0.0000E+00  0.0000E+00
    -54.113  0.0000E+00  0.0000E+00  0.0000E+00  0.0000E+00  0.0000E+00  0.0000E+00  0.0000E+00  0.0000E+00  0.0000E+00  0.0000E+00  0.0000E+00  0.0000E+00  0.0000E+00  0.0000E+00  0.0000E+00  0.0000E+00  0.0000E+00  0.0000E+00
    -53.902  0.0000E+00  0.0000E+00  0.0000E+00  0.0000E+00  0.0000E+00  0.0000E+00  0.0000E+00  0.0000E+00  0.0000E+00  0.0000E+00  0.0000E+00  0.0000E+00  0.0000E+00  0.0000E+00  0.0000E+00  0.0000E+00  0.0000E+00  0.0000E+00
    -53.691  0.0000E+00  0.0000E+00  0.0000E+00  0.0000E+00  0.0000E+00  0.0000E+00  0.0000E+00  0.0000E+00  0.0000E+00  0.0000E+00  0.0000E+00  0.0000E+00  0.0000E+00  0.0000E+00  0.0000E+00  0.0000E+00  0.0000E+00  0.0000E+00
    -53.480  0.0000E+00  0.0000E+00  0.0000E+00  0.0000E+00  0.0000E+00  0.0000E+00  0.0000E+00  0.0000E+00  0.0000E+00  0.0000E+00  0.0000E+00  0.0000E+00  0.0000E+00  0.0000E+00  0.0000E+00  0.0000E+00  0.0000E+00  0.0000E+00
    -53.269  0.0000E+00  0.0000E+00  0.0000E+00  0.0000E+00  0.0000E+00  0.0000E+00  0.0000E+00  0.0000E+00  0.0000E+00  0.0000E+00  0.0000E+00  0.0000E+00  0.0000E+00  0.0000E+00  0.0000E+00  0.0000E+00  0.0000E+00  0.0000E+00
    -53.058  0.0000E+00  0.0000E+00  0.0000E+00  0.0000E+00  0.0000E+00  0.0000E+00  0.0000E+00  0.0000E+00  0.0000E+00  0.0000E+00  0.0000E+00  0.0000E+00  0.0000E+00  0.0000E+00  0.0000E+00  0.0000E+00  0.0000E+00  0.0000E+00
    -52.847  0.0000E+00  0.0000E+00  0.0000E+00  0.0000E+00  0.0000E+00  0.0000E+00  0.0000E+00  0.0000E+00  0.0000E+00  0.0000E+00  0.0000E+00  0.0000E+00  0.0000E+00  0.0000E+00  0.0000E+00  0.0000E+00  0.0000E+00  0.0000E+00
    -52.636  0.0000E+00  0.0000E+00  0.0000E+00  0.0000E+00  0.0000E+00  0.0000E+00  0.0000E+00  0.0000E+00  0.0000E+00  0.0000E+00  0.0000E+00  0.0000E+00  0.0000E+00  0.0000E+00  0.0000E+00  0.0000E+00  0.0000E+00  0.0000E+00
    -52.425  0.0000E+00  0.0000E+00  0.0000E+00  0.0000E+00  0.0000E+00  0.0000E+00  0.0000E+00  0.0000E+00  0.0000E+00  0.0000E+00  0.0000E+00  0.0000E+00  0.0000E+00  0.0000E+00  0.0000E+00  0.0000E+00  0.0000E+00  0.0000E+00
    -52.213  0.0000E+00  0.0000E+00  0.0000E+00  0.0000E+00  0.0000E+00  0.0000E+00  0.0000E+00  0.0000E+00  0.0000E+00  0.0000E+00  0.0000E+00  0.0000E+00  0.0000E+00  0.0000E+00  0.0000E+00  0.0000E+00  0.0000E+00  0.0000E+00
    -52.002  0.0000E+00  0.0000E+00  0.0000E+00  0.0000E+00  0.0000E+00  0.0000E+00  0.0000E+00  0.0000E+00  0.0000E+00  0.0000E+00  0.0000E+00  0.0000E+00  0.0000E+00  0.0000E+00  0.0000E+00  0.0000E+00  0.0000E+00  0.0000E+00
    -51.791  0.7485E-06  0.9496E-07  0.3538E+01  0.1613E-05  0.5592E-01  0.1541E-06  0.9494E+00  0.2429E-05  0.2010E-06  0.4292E-07  0.3336E-06  0.3175E-08  0.7367E-06  0.3083E-07  0.3040E-06  0.9270E-08  0.5413E-06  0.2391E-07
    -51.580  0.6376E-05  0.6807E-06  0.1171E+01  0.4156E-05  0.4655E+01  0.2234E-05  0.3690E+01  0.3008E-04  0.1060E-05  0.2188E-06  0.1866E-05  0.2429E-07  0.2075E-05  0.2072E-06  0.8930E-06  0.1455E-06  0.1119E-04  0.6007E-06
    -51.369  0.1183E-04  0.3641E-05  0.4866E-03  0.2384E-03  0.1406E-02  0.9277E-06  0.3874E-01  0.1775E-04  0.5486E-05  0.1087E-05  0.2426E-06  0.1787E-07  0.4719E-05  0.1503E-05  0.1400E-05  0.2456E-08  0.1276E-04  0.3555E-05
    -51.158  0.1188E-04  0.2612E-06  0.8165E-02  0.3382E-06  0.4683E-02  0.3462E-05  0.8886E-02  0.1896E-04  0.6814E-06  0.6674E-07  0.1874E-06  0.1922E-06  0.2855E-05  0.9316E-07  0.9165E-05  0.3985E-07  0.1191E-04  0.2989E-06
    -50.947  0.0000E+00  0.0000E+00  0.0000E+00  0.0000E+00  0.0000E+00  0.0000E+00  0.0000E+00  0.0000E+00  0.0000E+00  0.0000E+00  0.0000E+00  0.0000E+00  0.0000E+00  0.0000E+00  0.0000E+00  0.0000E+00  0.0000E+00  0.0000E+00
    -50.736  0.5653E-04  0.2342E-05  0.6653E-04  0.2478E-03  0.1559E-02  0.3680E-06  0.3222E-01  0.3813E-05  0.1498E-06  0.1355E-06  0.3469E-08  0.5763E-07  0.1951E-04  0.1007E-05  0.1291E-04  0.1579E-08  0.7142E-04  0.3073E-05
    -50.525  0.0000E+00  0.0000E+00  0.0000E+00  0.0000E+00  0.0000E+00  0.0000E+00  0.0000E+00  0.0000E+00  0.0000E+00  0.0000E+00  0.0000E+00  0.0000E+00  0.0000E+00  0.0000E+00  0.0000E+00  0.0000E+00  0.0000E+00  0.0000E+00
    -50.314  0.0000E+00  0.0000E+00  0.0000E+00  0.0000E+00  0.0000E+00  0.0000E+00  0.0000E+00  0.0000E+00  0.0000E+00  0.0000E+00  0.0000E+00  0.0000E+00  0.0000E+00  0.0000E+00  0.0000E+00  0.0000E+00  0.0000E+00  0.0000E+00
    -50.102  0.0000E+00  0.0000E+00  0.0000E+00  0.0000E+00  0.0000E+00  0.0000E+00  0.0000E+00  0.0000E+00  0.0000E+00  0.0000E+00  0.0000E+00  0.0000E+00  0.0000E+00  0.0000E+00  0.0000E+00  0.0000E+00  0.0000E+00  0.0000E+00
    -49.891  0.0000E+00  0.0000E+00  0.0000E+00  0.0000E+00  0.0000E+00  0.0000E+00  0.0000E+00  0.0000E+00  0.0000E+00  0.0000E+00  0.0000E+00  0.0000E+00  0.0000E+00  0.0000E+00  0.0000E+00  0.0000E+00  0.0000E+00  0.0000E+00
    -49.680  0.0000E+00  0.0000E+00  0.0000E+00  0.0000E+00  0.0000E+00  0.0000E+00  0.0000E+00  0.0000E+00  0.0000E+00  0.0000E+00  0.0000E+00  0.0000E+00  0.0000E+00  0.0000E+00  0.0000E+00  0.0000E+00  0.0000E+00  0.0000E+00
    -49.469  0.0000E+00  0.0000E+00  0.0000E+00  0.0000E+00  0.0000E+00  0.0000E+00  0.0000E+00  0.0000E+00  0.0000E+00  0.0000E+00  0.0000E+00  0.0000E+00  0.0000E+00  0.0000E+00  0.0000E+00  0.0000E+00  0.0000E+00  0.0000E+00
    -49.258  0.3161E-05  0.3471E-04  0.1719E-03  0.7267E-02  0.6165E-06  0.5601E-02  0.1758E-04  0.4688E-01  0.1351E-05  0.7666E-05  0.2280E-07  0.4813E-06  0.1245E-05  0.1130E-04  0.1985E-08  0.6332E-05  0.2676E-05  0.3483E-04
    -49.047  0.7388E-06  0.1139E-04  0.7764E-05  0.2045E-01  0.5630E-05  0.9981E-02  0.3528E-04  0.1621E-01  0.7725E-07  0.3688E-06  0.2681E-06  0.1855E-06  0.2142E-06  0.2075E-05  0.1429E-06  0.1035E-04  0.9153E-06  0.1122E-04
    -48.836  0.1826E-05  0.2347E-04  0.7657E-04  0.1721E+01  0.7271E-06  0.8932E+00  0.2731E-05  0.1400E+01  0.2101E-06  0.6242E-06  0.2930E-07  0.1171E-05  0.7570E-06  0.4705E-05  0.4254E-07  0.2051E-05  0.1872E-05  0.1466E-04
    -48.625  0.2780E-05  0.2622E-04  0.1102E-03  0.2837E+01  0.8506E-06  0.3295E+01  0.4801E-05  0.1853E+01  0.2778E-06  0.4587E-06  0.8105E-07  0.1907E-05  0.1086E-05  0.1294E-04  0.1529E-07  0.7565E-05  0.3024E-05  0.5293E-04
    -48.414  0.8954E-06  0.1379E-04  0.1730E-04  0.1335E+00  0.6316E-06  0.5155E+00  0.2068E-04  0.1403E+01  0.1018E-06  0.2976E-06  0.1946E-08  0.5864E-06  0.3432E-06  0.4364E-05  0.7164E-07  0.2816E-05  0.1298E-05  0.1435E-04
    -48.203  0.0000E+00  0.0000E+00  0.0000E+00  0.0000E+00  0.0000E+00  0.0000E+00  0.0000E+00  0.0000E+00  0.0000E+00  0.0000E+00  0.0000E+00  0.0000E+00  0.0000E+00  0.0000E+00  0.0000E+00  0.0000E+00  0.0000E+00  0.0000E+00
    -47.991  0.0000E+00  0.0000E+00  0.0000E+00  0.0000E+00  0.0000E+00  0.0000E+00  0.0000E+00  0.0000E+00  0.0000E+00  0.0000E+00  0.0000E+00  0.0000E+00  0.0000E+00  0.0000E+00  0.0000E+00  0.0000E+00  0.0000E+00  0.0000E+00
    -47.780  0.0000E+00  0.0000E+00  0.0000E+00  0.0000E+00  0.0000E+00  0.0000E+00  0.0000E+00  0.0000E+00  0.0000E+00  0.0000E+00  0.0000E+00  0.0000E+00  0.0000E+00  0.0000E+00  0.0000E+00  0.0000E+00  0.0000E+00  0.0000E+00
    -47.569  0.0000E+00  0.0000E+00  0.0000E+00  0.0000E+00  0.0000E+00  0.0000E+00  0.0000E+00  0.0000E+00  0.0000E+00  0.0000E+00  0.0000E+00  0.0000E+00  0.0000E+00  0.0000E+00  0.0000E+00  0.0000E+00  0.0000E+00  0.0000E+00
    -47.358  0.0000E+00  0.0000E+00  0.0000E+00  0.0000E+00  0.0000E+00  0.0000E+00  0.0000E+00  0.0000E+00  0.0000E+00  0.0000E+00  0.0000E+00  0.0000E+00  0.0000E+00  0.0000E+00  0.0000E+00  0.0000E+00  0.0000E+00  0.0000E+00
    -47.147  0.0000E+00  0.0000E+00  0.0000E+00  0.0000E+00  0.0000E+00  0.0000E+00  0.0000E+00  0.0000E+00  0.0000E+00  0.0000E+00  0.0000E+00  0.0000E+00  0.0000E+00  0.0000E+00  0.0000E+00  0.0000E+00  0.0000E+00  0.0000E+00
    -46.936  0.0000E+00  0.0000E+00  0.0000E+00  0.0000E+00  0.0000E+00  0.0000E+00  0.0000E+00  0.0000E+00  0.0000E+00  0.0000E+00  0.0000E+00  0.0000E+00  0.0000E+00  0.0000E+00  0.0000E+00  0.0000E+00  0.0000E+00  0.0000E+00
    -46.725  0.0000E+00  0.0000E+00  0.0000E+00  0.0000E+00  0.0000E+00  0.0000E+00  0.0000E+00  0.0000E+00  0.0000E+00  0.0000E+00  0.0000E+00  0.0000E+00  0.0000E+00  0.0000E+00  0.0000E+00  0.0000E+00  0.0000E+00  0.0000E+00
    -46.514  0.0000E+00  0.0000E+00  0.0000E+00  0.0000E+00  0.0000E+00  0.0000E+00  0.0000E+00  0.0000E+00  0.0000E+00  0.0000E+00  0.0000E+00  0.0000E+00  0.0000E+00  0.0000E+00  0.0000E+00  0.0000E+00  0.0000E+00  0.0000E+00
    -46.303  0.0000E+00  0.0000E+00  0.0000E+00  0.0000E+00  0.0000E+00  0.0000E+00  0.0000E+00  0.0000E+00  0.0000E+00  0.0000E+00  0.0000E+00  0.0000E+00  0.0000E+00  0.0000E+00  0.0000E+00  0.0000E+00  0.0000E+00  0.0000E+00
    -46.092  0.0000E+00  0.0000E+00  0.0000E+00  0.0000E+00  0.0000E+00  0.0000E+00  0.0000E+00  0.0000E+00  0.0000E+00  0.0000E+00  0.0000E+00  0.0000E+00  0.0000E+00  0.0000E+00  0.0000E+00  0.0000E+00  0.0000E+00  0.0000E+00
    -45.880  0.0000E+00  0.0000E+00  0.0000E+00  0.0000E+00  0.0000E+00  0.0000E+00  0.0000E+00  0.0000E+00  0.0000E+00  0.0000E+00  0.0000E+00  0.0000E+00  0.0000E+00  0.0000E+00  0.0000E+00  0.0000E+00  0.0000E+00  0.0000E+00
    -45.669  0.0000E+00  0.0000E+00  0.0000E+00  0.0000E+00  0.0000E+00  0.0000E+00  0.0000E+00  0.0000E+00  0.0000E+00  0.0000E+00  0.0000E+00  0.0000E+00  0.0000E+00  0.0000E+00  0.0000E+00  0.0000E+00  0.0000E+00  0.0000E+00
    -45.458  0.0000E+00  0.0000E+00  0.0000E+00  0.0000E+00  0.0000E+00  0.0000E+00  0.0000E+00  0.0000E+00  0.0000E+00  0.0000E+00  0.0000E+00  0.0000E+00  0.0000E+00  0.0000E+00  0.0000E+00  0.0000E+00  0.0000E+00  0.0000E+00
    -45.247  0.0000E+00  0.0000E+00  0.0000E+00  0.0000E+00  0.0000E+00  0.0000E+00  0.0000E+00  0.0000E+00  0.0000E+00  0.0000E+00  0.0000E+00  0.0000E+00  0.0000E+00  0.0000E+00  0.0000E+00  0.0000E+00  0.0000E+00  0.0000E+00
    -45.036  0.0000E+00  0.0000E+00  0.0000E+00  0.0000E+00  0.0000E+00  0.0000E+00  0.0000E+00  0.0000E+00  0.0000E+00  0.0000E+00  0.0000E+00  0.0000E+00  0.0000E+00  0.0000E+00  0.0000E+00  0.0000E+00  0.0000E+00  0.0000E+00
    -44.825  0.0000E+00  0.0000E+00  0.0000E+00  0.0000E+00  0.0000E+00  0.0000E+00  0.0000E+00  0.0000E+00  0.0000E+00  0.0000E+00  0.0000E+00  0.0000E+00  0.0000E+00  0.0000E+00  0.0000E+00  0.0000E+00  0.0000E+00  0.0000E+00
    -44.614  0.0000E+00  0.0000E+00  0.0000E+00  0.0000E+00  0.0000E+00  0.0000E+00  0.0000E+00  0.0000E+00  0.0000E+00  0.0000E+00  0.0000E+00  0.0000E+00  0.0000E+00  0.0000E+00  0.0000E+00  0.0000E+00  0.0000E+00  0.0000E+00
    -44.403  0.0000E+00  0.0000E+00  0.0000E+00  0.0000E+00  0.0000E+00  0.0000E+00  0.0000E+00  0.0000E+00  0.0000E+00  0.0000E+00  0.0000E+00  0.0000E+00  0.0000E+00  0.0000E+00  0.0000E+00  0.0000E+00  0.0000E+00  0.0000E+00
    -44.192  0.0000E+00  0.0000E+00  0.0000E+00  0.0000E+00  0.0000E+00  0.0000E+00  0.0000E+00  0.0000E+00  0.0000E+00  0.0000E+00  0.0000E+00  0.0000E+00  0.0000E+00  0.0000E+00  0.0000E+00  0.0000E+00  0.0000E+00  0.0000E+00