  16  16   1   0
  0.2125000E+02  0.6977094E-09  0.6977094E-09  0.7131667E-09  0.5000000E-15
  1.000000000000000E-004
  CAR 
 unknown system                          
      8.26821381    -54.67855386  301      3.00887533      1.00000000
    -54.679  0.0000E+00  0.0000E+00  0.0000E+00  0.0000E+00
    -54.469  0.0000E+00  0.0000E+00  0.0000E+00  0.0000E+00
    -54.259  0.0000E+00  0.0000E+00  0.0000E+00  0.0000E+00
    -54.049  0.0000E+00  0.0000E+00  0.0000E+00  0.0000E+00
    -53.839  0.0000E+00  0.0000E+00  0.0000E+00  0.0000E+00
    -53.629  0.0000E+00  0.0000E+00  0.0000E+00  0.0000E+00
    -53.420  0.0000E+00  0.0000E+00  0.0000E+00  0.0000E+00
    -53.210  0.0000E+00  0.0000E+00  0.0000E+00  0.0000E+00
    -53.000  0.0000E+00  0.0000E+00  0.0000E+00  0.0000E+00
    -52.790  0.0000E+00  0.0000E+00  0.0000E+00  0.0000E+00
    -52.580  0.0000E+00  0.0000E+00  0.0000E+00  0.0000E+00
    -52.371  0.0000E+00  0.0000E+00  0.0000E+00  0.0000E+00
    -52.161  0.0000E+00  0.0000E+00  0.0000E+00  0.0000E+00
    -51.951  0.4173E-05  0.4173E-05  0.8756E-06  0.8756E-06
    -51.741  0.1369E+00  0.1369E+00  0.2872E-01  0.2872E-01
    -51.531  0.2162E+00  0.2162E+00  0.7409E-01  0.7409E-01
    -51.321  0.1411E+00  0.1411E+00  0.1037E+00  0.1037E+00
    -51.112  0.3531E-01  0.3531E-01  0.1111E+00  0.1111E+00
    -50.902  0.2563E-01  0.2563E-01  0.1165E+00  0.1165E+00
    -50.692  0.2252E-01  0.2252E-01  0.1212E+00  0.1212E+00
    -50.482  0.0000E+00  0.0000E+00  0.1212E+00  0.1212E+00
    -50.272  0.0000E+00  0.0000E+00  0.1212E+00  0.1212E+00
    -50.062  0.0000E+00  0.0000E+00  0.1212E+00  0.1212E+00
    -49.853  0.0000E+00  0.0000E+00  0.1212E+00  0.1212E+00
    -49.643  0.0000E+00  0.0000E+00  0.1212E+00  0.1212E+00
    -49.433  0.0000E+00  0.0000E+00  0.1212E+00  0.1212E+00
    -49.223  0.4796E-04  0.4796E-04  0.1212E+00  0.1212E+00
    -49.013  0.1263E+00  0.1263E+00  0.1477E+00  0.1477E+00
    -48.804  0.1094E+00  0.1094E+00  0.1707E+00  0.1707E+00
    -48.594  0.1979E+00  0.1979E+00  0.2122E+00  0.2122E+00
    -48.384  0.1439E+00  0.1439E+00  0.2424E+00  0.2424E+00
    -48.174  0.3122E-05  0.3122E-05  0.2424E+00  0.2424E+00
    -47.964  0.0000E+00  0.0000E+00  0.2424E+00  0.2424E+00
    -47.754  0.0000E+00  0.0000E+00  0.2424E+00  0.2424E+00
    -47.545  0.0000E+00  0.0000E+00  0.2424E+00  0.2424E+00
    -47.335  0.0000E+00  0.0000E+00  0.2424E+00  0.2424E+00
    -47.125  0.0000E+00  0.0000E+00  0.2424E+00  0.2424E+00
    -46.915  0.0000E+00  0.0000E+00  0.2424E+00  0.2424E+00
    -46.705  0.0000E+00  0.0000E+00  0.2424E+00  0.2424E+00
    -46.495  0.0000E+00  0.0000E+00  0.2424E+00  0.2424E+00
    -46.286  0.0000E+00  0.0000E+00  0.2424E+00  0.2424E+00
    -46.076  0.0000E+00  0.0000E+00  0.2424E+00  0.2424E+00
    -45.866  0.0000E+00  0.0000E+00  0.2424E+00  0.2424E+00
    -45.656  0.0000E+00  0.0000E+00  0.2424E+00  0.2424E+00
    -45.446  0.0000E+00  0.0000E+00  0.2424E+00  0.2424E+00
    -45.237  0.0000E+00  0.0000E+00  0.2424E+00  0.2424E+00
    -45.027  0.0000E+00  0.0000E+00  0.2424E+00  0.2424E+00
    -44.817  0.0000E+00  0.0000E+00  0.2424E+00  0.2424E+00
    -44.607  0.0000E+00  0.0000E+00  0.2424E+00  0.2424E+00
    -44.397  0.0000E+00  0.0000E+00  0.2424E+00  0.2424E+00
    -44.187  0.0000E+00  0.0000E+00  0.2424E+00  0.2424E+00
    -43.978  0.0000E+00  0.0000E+00  0.2424E+00  0.2424E+00
    -43.768  0.0000E+00  0.0000E+00  0.2424E+00  0.2424E+00
    -43.558  0.0000E+00  0.0000E+00  0.2424E+00  0.2424E+00
    -43.348  0.0000E+00  0.0000E+00  0.2424E+00  0.2424E+00
    -43.138  0.0000E+00  0.0000E+00  0.2424E+00  0.2424E+00
    -42.928  0.0000E+00  0.0000E+00  0.2424E+00  0.2424E+00
    -42.719  0.0000E+00  0.0000E+00  0.2424E+00  0.2424E+00
    -42.509  0.0000E+00  0.0000E+00  0.2424E+00  0.2424E+00
    -42.299  0.0000E+00  0.0000E+00  0.2424E+00  0.2424E+00
    -42.089  0.0000E+00  0.0000E+00  0.2424E+00  0.2424E+00
    -41.879  0.0000E+00  0.0000E+00  0.2424E+00  0.2424E+00
    -41.670  0.0000E+00  0.0000E+00  0.2424E+00  0.2424E+00
    -41.460  0.0000E+00  0.0000E+00  0.2424E+00  0.2424E+00
    -41.250  0.0000E+00  0.0000E+00  0.2424E+00  0.2424E+00
    -41.040  0.0000E+00  0.0000E+00  0.2424E+00  0.2424E+00
    -40.830  0.0000E+00  0.0000E+00  0.2424E+00  0.2424E+00
    -40.620  0.0000E+00  0.0000E+00  0.2424E+00  0.2424E+00
    -40.411  0.0000E+00  0.0000E+00  0.2424E+00  0.2424E+00
    -40.201  0.0000E+00  0.0000E+00  0.2424E+00  0.2424E+00
    -39.991  0.0000E+00  0.0000E+00  0.2424E+00  0.2424E+00
    -39.781  0.0000E+00  0.0000E+00  0.2424E+00  0.2424E+00
    -39.571  0.0000E+00  0.0000E+00  0.2424E+00  0.2424E+00
    -39.362  0.0000E+00  0.0000E+00  0.2424E+00  0.2424E+00
    -39.152  0.0000E+00  0.0000E+00  0.2424E+00  0.2424E+00
    -38.942  0.0000E+00  0.0000E+00  0.2424E+00  0.2424E+00
    -38.732  0.0000E+00  0.0000E+00  0.2424E+00  0.2424E+00
    -38.522  0.0000E+00  0.0000E+00  0.2424E+00  0.2424E+00
    -38.312  0.0000E+00  0.0000E+00  0.2424E+00  0.2424E+00
    -38.103  0.0000E+00  0.0000E+00  0.2424E+00  0.2424E+00
    -37.893  0.0000E+00  0.0000E+00  0.2424E+00  0.2424E+00
    -37.683  0.0000E+00  0.0000E+00  0.2424E+00  0.2424E+00
    -37.473  0.0000E+00  0.0000E+00  0.2424E+00  0.2424E+00
    -37.263  0.0000E+00  0.0000E+00  0.2424E+00  0.2424E+00
    -37.053  0.0000E+00  0.0000E+00  0.2424E+00  0.2424E+00
    -36.844  0.0000E+00  0.0000E+00  0.2424E+00  0.2424E+00
    -36.634  0.0000E+00  0.0000E+00  0.2424E+00  0.2424E+00
    -36.424  0.0000E+00  0.0000E+00  0.2424E+00  0.2424E+00
    -36.214  0.0000E+00  0.0000E+00  0.2424E+00  0.2424E+00
    -36.004  0.0000E+00  0.0000E+00  0.2424E+00  0.2424E+00
    -35.795  0.0000E+00  0.0000E+00  0.2424E+00  0.2424E+00
    -35.585  0.0000E+00  0.0000E+00  0.2424E+00  0.2424E+00
    -35.375  0.0000E+00  0.0000E+00  0.2424E+00  0.2424E+00
    -35.165  0.0000E+00  0.0000E+00  0.2424E+00  0.2424E+00
    -34.955  0.0000E+00  0.0000E+00  0.2424E+00  0.2424E+00
    -34.745  0.0000E+00  0.0000E+00  0.2424E+00  0.2424E+00
    -34.536  0.0000E+00  0.0000E+00  0.2424E+00  0.2424E+00
    -34.326  0.0000E+00  0.0000E+00  0.2424E+00  0.2424E+00
    -34.116  0.0000E+00  0.0000E+00  0.2424E+00  0.2424E+00
    -33.906  0.0000E+00  0.0000E+00  0.2424E+00  0.2424E+00
    -33.696  0.0000E+00  0.0000E+00  0.2424E+00  0.2424E+00
    -33.486  0.0000E+00  0.0000E+00  0.2424E+00  0.2424E+00
    -33.277  0.0000E+00  0.0000E+00  0.2424E+00  0.2424E+00
    -33.067  0.0000E+00  0.0000E+00  0.2424E+00  0.2424E+00
    -32.857  0.0000E+00  0.0000E+00  0.2424E+00  0.2424E+00
    -32.647  0.0000E+00  0.0000E+00  0.2424E+00  0.2424E+00
    -32.437  0.0000E+00  0.0000E+00  0.2424E+00  0.2424E+00
    -32.228  0.0000E+00  0.0000E+00  0.2424E+00  0.2424E+00
    -32.018  0.0000E+00  0.0000E+00  0.2424E+00  0.2424E+00
    -31.808  0.0000E+00  0.0000E+00  0.2424E+00  0.2424E+00
    -31.598  0.0000E+00  0.0000E+00  0.2424E+00  0.2424E+00
    -31.388  0.0000E+00  0.0000E+00  0.2424E+00  0.2424E+00
    -31.178  0.0000E+00  0.0000E+00  0.2424E+00  0.2424E+00
    -30.969  0.0000E+00  0.0000E+00  0.2424E+00  0.2424E+00
    -30.759  0.0000E+00  0.0000E+00  0.2424E+00  0.2424E+00
    -30.549  0.0000E+00  0.0000E+00  0.2424E+00  0.2424E+00
    -30.339  0.0000E+00  0.0000E+00  0.2424E+00  0.2424E+00
    -30.129  0.0000E+00  0.0000E+00  0.2424E+00  0.2424E+00
    -29.919  0.0000E+00  0.0000E+00  0.2424E+00  0.2424E+00
    -29.710  0.0000E+00  0.0000E+00  0.2424E+00  0.2424E+00
    -29.500  0.0000E+00  0.0000E+00  0.2424E+00  0.2424E+00
    -29.290  0.0000E+00  0.0000E+00  0.2424E+00  0.2424E+00
    -29.080  0.0000E+00  0.0000E+00  0.2424E+00  0.2424E+00
    -28.870  0.0000E+00  0.0000E+00  0.2424E+00  0.2424E+00
    -28.661  0.0000E+00  0.0000E+00  0.2424E+00  0.2424E+00
    -28.451  0.0000E+00  0.0000E+00  0.2424E+00  0.2424E+00
    -28.241  0.0000E+00  0.0000E+00  0.2424E+00  0.2424E+00
    -28.031  0.0000E+00  0.0000E+00  0.2424E+00  0.2424E+00
    -27.821  0.0000E+00  0.0000E+00  0.2424E+00  0.2424E+00
    -27.611  0.0000E+00  0.0000E+00  0.2424E+00  0.2424E+00
    -27.402  0.0000E+00  0.0000E+00  0.2424E+00  0.2424E+00
    -27.192  0.0000E+00  0.0000E+00  0.2424E+00  0.2424E+00
    -26.982  0.0000E+00  0.0000E+00  0.2424E+00  0.2424E+00
    -26.772  0.0000E+00  0.0000E+00  0.2424E+00  0.2424E+00
    -26.562  0.0000E+00  0.0000E+00  0.2424E+00  0.2424E+00
    -26.353  0.0000E+00  0.0000E+00  0.2424E+00  0.2424E+00
    -26.143  0.0000E+00  0.0000E+00  0.2424E+00  0.2424E+00
    -25.933  0.0000E+00  0.0000E+00  0.2424E+00  0.2424E+00
    -25.723  0.0000E+00  0.0000E+00  0.2424E+00  0.2424E+00
    -25.513  0.0000E+00  0.0000E+00  0.2424E+00  0.2424E+00
    -25.303  0.0000E+00  0.0000E+00  0.2424E+00  0.2424E+00
    -25.094  0.0000E+00  0.0000E+00  0.2424E+00  0.2424E+00
    -24.884  0.0000E+00  0.0000E+00  0.2424E+00  0.2424E+00
    -24.674  0.0000E+00  0.0000E+00  0.2424E+00  0.2424E+00
    -24.464  0.0000E+00  0.0000E+00  0.2424E+00  0.2424E+00
    -24.254  0.0000E+00  0.0000E+00  0.2424E+00  0.2424E+00
    -24.044  0.0000E+00  0.0000E+00  0.2424E+00  0.2424E+00
    -23.835  0.0000E+00  0.0000E+00  0.2424E+00  0.2424E+00
    -23.625  0.0000E+00  0.0000E+00  0.2424E+00  0.2424E+00
    -23.415  0.0000E+00  0.0000E+00  0.2424E+00  0.2424E+00
    -23.205  0.0000E+00  0.0000E+00  0.2424E+00  0.2424E+00
    -22.995  0.0000E+00  0.0000E+00  0.2424E+00  0.2424E+00
    -22.786  0.0000E+00  0.0000E+00  0.2424E+00  0.2424E+00
    -22.576  0.0000E+00  0.0000E+00  0.2424E+00  0.2424E+00
    -22.366  0.0000E+00  0.0000E+00  0.2424E+00  0.2424E+00
    -22.156  0.0000E+00  0.0000E+00  0.2424E+00  0.2424E+00
    -21.946  0.0000E+00  0.0000E+00  0.2424E+00  0.2424E+00
    -21.736  0.0000E+00  0.0000E+00  0.2424E+00  0.2424E+00
    -21.527  0.0000E+00  0.0000E+00  0.2424E+00  0.2424E+00
    -21.317  0.0000E+00  0.0000E+00  0.2424E+00  0.2424E+00
    -21.107  0.0000E+00  0.0000E+00  0.2424E+00  0.2424E+00
    -20.897  0.0000E+00  0.0000E+00  0.2424E+00  0.2424E+00
    -20.687  0.0000E+00  0.0000E+00  0.2424E+00  0.2424E+00
    -20.477  0.0000E+00  0.0000E+00  0.2424E+00  0.2424E+00
    -20.268  0.0000E+00  0.0000E+00  0.2424E+00  0.2424E+00
    -20.058  0.0000E+00  0.0000E+00  0.2424E+00  0.2424E+00
    -19.848  0.0000E+00  0.0000E+00  0.2424E+00  0.2424E+00
    -19.638  0.0000E+00  0.0000E+00  0.2424E+00  0.2424E+00
    -19.428  0.0000E+00  0.0000E+00  0.2424E+00  0.2424E+00
    -19.219  0.0000E+00  0.0000E+00  0.2424E+00  0.2424E+00
    -19.009  0.0000E+00  0.0000E+00  0.2424E+00  0.2424E+00
    -18.799  0.0000E+00  0.0000E+00  0.2424E+00  0.2424E+00
    -18.589  0.0000E+00  0.0000E+00  0.2424E+00  0.2424E+00
    -18.379  0.0000E+00  0.0000E+00  0.2424E+00  0.2424E+00
    -18.169  0.0000E+00  0.0000E+00  0.2424E+00  0.2424E+00
    -17.960  0.0000E+00  0.0000E+00  0.2424E+00  0.2424E+00
    -17.750  0.0000E+00  0.0000E+00  0.2424E+00  0.2424E+00
    -17.540  0.0000E+00  0.0000E+00  0.2424E+00  0.2424E+00
    -17.330  0.0000E+00  0.0000E+00  0.2424E+00  0.2424E+00
    -17.120  0.0000E+00  0.0000E+00  0.2424E+00  0.2424E+00
    -16.910  0.0000E+00  0.0000E+00  0.2424E+00  0.2424E+00
    -16.701  0.0000E+00  0.0000E+00  0.2424E+00  0.2424E+00
    -16.491  0.0000E+00  0.0000E+00  0.2424E+00  0.2424E+00
    -16.281  0.0000E+00  0.0000E+00  0.2424E+00  0.2424E+00
    -16.071  0.0000E+00  0.0000E+00  0.2424E+00  0.2424E+00
    -15.861  0.0000E+00  0.0000E+00  0.2424E+00  0.2424E+00
    -15.652  0.0000E+00  0.0000E+00  0.2424E+00  0.2424E+00
    -15.442  0.0000E+00  0.0000E+00  0.2424E+00  0.2424E+00
    -15.232  0.0000E+00  0.0000E+00  0.2424E+00  0.2424E+00
    -15.022  0.0000E+00  0.0000E+00  0.2424E+00  0.2424E+00
    -14.812  0.0000E+00  0.0000E+00  0.2424E+00  0.2424E+00
    -14.602  0.0000E+00  0.0000E+00  0.2424E+00  0.2424E+00
    -14.393  0.0000E+00  0.0000E+00  0.2424E+00  0.2424E+00
    -14.183  0.0000E+00  0.0000E+00  0.2424E+00  0.2424E+00
    -13.973  0.0000E+00  0.0000E+00  0.2424E+00  0.2424E+00
    -13.763  0.0000E+00  0.0000E+00  0.2424E+00  0.2424E+00
    -13.553  0.0000E+00  0.0000E+00  0.2424E+00  0.2424E+00
    -13.344  0.0000E+00  0.0000E+00  0.2424E+00  0.2424E+00
    -13.134  0.0000E+00  0.0000E+00  0.2424E+00  0.2424E+00
    -12.924  0.0000E+00  0.0000E+00  0.2424E+00  0.2424E+00
    -12.714  0.0000E+00  0.0000E+00  0.2424E+00  0.2424E+00
    -12.504  0.0000E+00  0.0000E+00  0.2424E+00  0.2424E+00
    -12.294  0.0000E+00  0.0000E+00  0.2424E+00  0.2424E+00
    -12.085  0.0000E+00  0.0000E+00  0.2424E+00  0.2424E+00
    -11.875  0.0000E+00  0.0000E+00  0.2424E+00  0.2424E+00
    -11.665  0.0000E+00  0.0000E+00  0.2424E+00  0.2424E+00
    -11.455  0.1212E-19  0.1212E-19  0.2424E+00  0.2424E+00
    -11.245  0.2270E-05  0.2270E-05  0.2424E+00  0.2424E+00
    -11.035  0.5567E-02  0.5567E-02  0.2436E+00  0.2436E+00
    -10.826  0.2096E-01  0.2096E-01  0.2480E+00  0.2480E+00
    -10.616  0.4170E-01  0.4170E-01  0.2567E+00  0.2567E+00
    -10.406  0.5287E-01  0.5287E-01  0.2678E+00  0.2678E+00
    -10.196  0.4671E-01  0.4671E-01  0.2776E+00  0.2776E+00
     -9.986  0.3432E-01  0.3432E-01  0.2848E+00  0.2848E+00
     -9.777  0.4170E-01  0.4170E-01  0.2936E+00  0.2936E+00
     -9.567  0.1080E+00  0.1080E+00  0.3163E+00  0.3163E+00
     -9.357  0.3326E-01  0.3326E-01  0.3232E+00  0.3232E+00
     -9.147  0.1133E-07  0.1133E-07  0.3232E+00  0.3232E+00
     -8.937  0.0000E+00  0.0000E+00  0.3232E+00  0.3232E+00
     -8.727  0.0000E+00  0.0000E+00  0.3232E+00  0.3232E+00
     -8.518  0.0000E+00  0.0000E+00  0.3232E+00  0.3232E+00
     -8.308  0.0000E+00  0.0000E+00  0.3232E+00  0.3232E+00
     -8.098  0.0000E+00  0.0000E+00  0.3232E+00  0.3232E+00
     -7.888  0.0000E+00  0.0000E+00  0.3232E+00  0.3232E+00
     -7.678  0.0000E+00  0.0000E+00  0.3232E+00  0.3232E+00
     -7.468  0.0000E+00  0.0000E+00  0.3232E+00  0.3232E+00
     -7.259  0.0000E+00  0.0000E+00  0.3232E+00  0.3232E+00
     -7.049  0.0000E+00  0.0000E+00  0.3232E+00  0.3232E+00
     -6.839  0.0000E+00  0.0000E+00  0.3232E+00  0.3232E+00
     -6.629  0.0000E+00  0.0000E+00  0.3232E+00  0.3232E+00
     -6.419  0.0000E+00  0.0000E+00  0.3232E+00  0.3232E+00
     -6.210  0.0000E+00  0.0000E+00  0.3232E+00  0.3232E+00
     -6.000  0.0000E+00  0.0000E+00  0.3232E+00  0.3232E+00
     -5.790  0.0000E+00  0.0000E+00  0.3232E+00  0.3232E+00
     -5.580  0.0000E+00  0.0000E+00  0.3232E+00  0.3232E+00
     -5.370  0.0000E+00  0.0000E+00  0.3232E+00  0.3232E+00
     -5.160  0.0000E+00  0.0000E+00  0.3232E+00  0.3232E+00
     -4.951  0.0000E+00  0.0000E+00  0.3232E+00  0.3232E+00
     -4.741  0.0000E+00  0.0000E+00  0.3232E+00  0.3232E+00
     -4.531  0.0000E+00  0.0000E+00  0.3232E+00  0.3232E+00
     -4.321  0.0000E+00  0.0000E+00  0.3232E+00  0.3232E+00
     -4.111  0.0000E+00  0.0000E+00  0.3232E+00  0.3232E+00
     -3.901  0.0000E+00  0.0000E+00  0.3232E+00  0.3232E+00
     -3.692  0.0000E+00  0.0000E+00  0.3232E+00  0.3232E+00
     -3.482  0.0000E+00  0.0000E+00  0.3232E+00  0.3232E+00
     -3.272  0.3611E-07  0.3611E-07  0.3232E+00  0.3232E+00
     -3.062  0.1169E-02  0.1169E-02  0.3235E+00  0.3235E+00
     -2.852  0.5913E-02  0.5913E-02  0.3247E+00  0.3247E+00
     -2.643  0.1295E-01  0.1295E-01  0.3274E+00  0.3274E+00
     -2.433  0.3851E-01  0.3851E-01  0.3355E+00  0.3355E+00
     -2.223  0.6136E-01  0.6136E-01  0.3484E+00  0.3484E+00
     -2.013  0.5815E-01  0.5815E-01  0.3606E+00  0.3606E+00
     -1.803  0.5604E-01  0.5604E-01  0.3723E+00  0.3723E+00
     -1.593  0.5530E-01  0.5530E-01  0.3840E+00  0.3840E+00
     -1.384  0.5692E-01  0.5692E-01  0.3959E+00  0.3959E+00
     -1.174  0.6870E-01  0.6870E-01  0.4103E+00  0.4103E+00
     -0.964  0.8930E-01  0.8930E-01  0.4290E+00  0.4290E+00
     -0.754  0.9515E-01  0.9515E-01  0.4490E+00  0.4490E+00
     -0.544  0.8472E-01  0.8472E-01  0.4668E+00  0.4668E+00
     -0.335  0.9651E-01  0.9651E-01  0.4870E+00  0.4870E+00
     -0.125  0.1143E+00  0.1143E+00  0.5110E+00  0.5110E+00
      0.085  0.9215E-01  0.9215E-01  0.5304E+00  0.5304E+00
      0.295  0.1040E+00  0.1040E+00  0.5522E+00  0.5522E+00
      0.505  0.1305E+00  0.1305E+00  0.5796E+00  0.5796E+00
      0.715  0.1309E+00  0.1309E+00  0.6070E+00  0.6070E+00
      0.924  0.1489E+00  0.1489E+00  0.6383E+00  0.6383E+00
      1.134  0.1033E+00  0.1033E+00  0.6599E+00  0.6599E+00
      1.344  0.8408E-01  0.8408E-01  0.6776E+00  0.6776E+00
      1.554  0.1005E+00  0.1005E+00  0.6987E+00  0.6987E+00
      1.764  0.1042E+00  0.1042E+00  0.7205E+00  0.7205E+00
      1.974  0.6311E-01  0.6311E-01  0.7338E+00  0.7338E+00
      2.183  0.6638E-01  0.6638E-01  0.7477E+00  0.7477E+00
      2.393  0.6089E-01  0.6089E-01  0.7605E+00  0.7605E+00
      2.603  0.5983E-01  0.5983E-01  0.7730E+00  0.7730E+00
      2.813  0.9138E-01  0.9138E-01  0.7922E+00  0.7922E+00
      3.023  0.7942E-01  0.7942E-01  0.8089E+00  0.8089E+00
      3.232  0.6877E-01  0.6877E-01  0.8233E+00  0.8233E+00
      3.442  0.9560E-01  0.9560E-01  0.8434E+00  0.8434E+00
      3.652  0.9909E-01  0.9909E-01  0.8642E+00  0.8642E+00
      3.862  0.1022E+00  0.1022E+00  0.8856E+00  0.8856E+00
      4.072  0.1052E+00  0.1052E+00  0.9077E+00  0.9077E+00
      4.282  0.9920E-01  0.9920E-01  0.9285E+00  0.9285E+00
      4.491  0.6332E-01  0.6332E-01  0.9418E+00  0.9418E+00
      4.701  0.4243E-01  0.4243E-01  0.9507E+00  0.9507E+00
      4.911  0.2701E-01  0.2701E-01  0.9564E+00  0.9564E+00
      5.121  0.3843E-01  0.3843E-01  0.9644E+00  0.9644E+00
      5.331  0.2336E-01  0.2336E-01  0.9693E+00  0.9693E+00
      5.541  0.1815E-02  0.1815E-02  0.9697E+00  0.9697E+00
      5.750  0.3038E-07  0.3038E-07  0.9697E+00  0.9697E+00
      5.960  0.0000E+00  0.0000E+00  0.9697E+00  0.9697E+00
      6.170  0.0000E+00  0.0000E+00  0.9697E+00  0.9697E+00
      6.380  0.0000E+00  0.0000E+00  0.9697E+00  0.9697E+00
      6.590  0.0000E+00  0.0000E+00  0.9697E+00  0.9697E+00
      6.799  0.0000E+00  0.0000E+00  0.9697E+00  0.9697E+00
      7.009  0.0000E+00  0.0000E+00  0.9697E+00  0.9697E+00
      7.219  0.0000E+00  0.0000E+00  0.9697E+00  0.9697E+00
      7.429  0.0000E+00  0.0000E+00  0.9697E+00  0.9697E+00
      7.639  0.0000E+00  0.0000E+00  0.9697E+00  0.9697E+00
      7.849  0.0000E+00  0.0000E+00  0.9697E+00  0.9697E+00
      8.058  0.0000E+00  0.0000E+00  0.9697E+00  0.9697E+00
      8.268  0.0000E+00  0.0000E+00  0.9697E+00  0.9697E+00
      8.26821381    -54.67855386  301      3.00887533      1.00000000
    -54.679  0.0000E+00  0.0000E+00  0.0000E+00  0.0000E+00  0.0000E+00  0.0000E+00  0.0000E+00  0.0000E+00  0.0000E+00  0.0000E+00  0.0000E+00  0.0000E+00  0.0000E+00  0.0000E+00  0.0000E+00  0.0000E+00  0.0000E+00  0.0000E+00
    -54.469  0.0000E+00  0.0000E+00  0.0000E+00  0.0000E+00  0.0000E+00  0.0000E+00  0.0000E+00  0.0000E+00  0.0000E+00  0.0000E+00  0.0000E+00  0.0000E+00  0.0000E+00  0.0000E+00  0.0000E+00  0.0000E+00  0.0000E+00  0.0000E+00
    -54.259  0.0000E+00  0.0000E+00  0.0000E+00  0.0000E+00  0.0000E+00  0.0000E+00  0.0000E+00  0.0000E+00  0.0000E+00  0.0000E+00  0.0000E+00  0.0000E+00  0.0000E+00  0.0000E+00  0.0000E+00  0.0000E+00  0.0000E+00  0.0000E+00
    -54.049  0.0000E+00  0.0000E+00  0.0000E+00  0.0000E+00  0.0000E+00  0.0000E+00  0.0000E+00  0.0000E+00  0.0000E+00  0.0000E+00  0.0000E+00  0.0000E+00  0.0000E+00  0.0000E+00  0.0000E+00  0.0000E+00  0.0000E+00  0.0000E+00
    -53.839  0.0000E+00  0.0000E+00  0.0000E+00  0.0000E+00  0.0000E+00  0.0000E+00  0.0000E+00  0.0000E+00  0.0000E+00  0.0000E+00  0.0000E+00  0.0000E+00  0.0000E+00  0.0000E+00  0.0000E+00  0.0000E+00  0.0000E+00  0.0000E+00
    -53.629  0.0000E+00  0.0000E+00  0.0000E+00  0.0000E+00  0.0000E+00  0.0000E+00  0.0000E+00  0.0000E+00  0.0000E+00  0.0000E+00  0.0000E+00  0.0000E+00  0.0000E+00  0.0000E+00  0.0000E+00  0.0000E+00  0.0000E+00  0.0000E+00
    -53.420  0.0000E+00  0.0000E+00  0.0000E+00  0.0000E+00  0.0000E+00  0.0000E+00  0.0000E+00  0.0000E+00  0.0000E+00  0.0000E+00  0.0000E+00  0.0000E+00  0.0000E+00  0.0000E+00  0.0000E+00  0.0000E+00  0.0000E+00  0.0000E+00
    -53.210  0.0000E+00  0.0000E+00  0.0000E+00  0.0000E+00  0.0000E+00  0.0000E+00  0.0000E+00  0.0000E+00  0.0000E+00  0.0000E+00  0.0000E+00  0.0000E+00  0.0000E+00  0.0000E+00  0.0000E+00  0.0000E+00  0.0000E+00  0.0000E+00
    -53.000  0.0000E+00  0.0000E+00  0.0000E+00  0.0000E+00  0.0000E+00  0.0000E+00  0.0000E+00  0.0000E+00  0.0000E+00  0.0000E+00  0.0000E+00  0.0000E+00  0.0000E+00  0.0000E+00  0.0000E+00  0.0000E+00  0.0000E+00  0.0000E+00
    -52.790  0.0000E+00  0.0000E+00  0.0000E+00  0.0000E+00  0.0000E+00  0.0000E+00  0.0000E+00  0.0000E+00  0.0000E+00  0.0000E+00  0.0000E+00  0.0000E+00  0.0000E+00  0.0000E+00  0.0000E+00  0.0000E+00  0.0000E+00  0.0000E+00
    -52.580  0.0000E+00  0.0000E+00  0.0000E+00  0.0000E+00  0.0000E+00  0.0000E+00  0.0000E+00  0.0000E+00  0.0000E+00  0.0000E+00  0.0000E+00  0.0000E+00  0.0000E+00  0.0000E+00  0.0000E+00  0.0000E+00  0.0000E+00  0.0000E+00
    -52.371  0.0000E+00  0.0000E+00  0.0000E+00  0.0000E+00  0.0000E+00  0.0000E+00  0.0000E+00  0.0000E+00  0.0000E+00  0.0000E+00  0.0000E+00  0.0000E+00  0.0000E+00  0.0000E+00  0.0000E+00  0.0000E+00  0.0000E+00  0.0000E+00
    -52.161  0.0000E+00  0.0000E+00  0.0000E+00  0.0000E+00  0.0000E+00  0.0000E+00  0.0000E+00  0.0000E+00  0.0000E+00  0.0000E+00  0.0000E+00  0.0000E+00  0.0000E+00  0.0000E+00  0.0000E+00  0.0000E+00  0.0000E+00  0.0000E+00
    -51.951  0.8553E-10  0.1941E-10  0.1373E-03  0.1081E-09  0.8836E-08  0.3413E-10  0.3320E-04  0.7013E-09  0.1009E-10  0.1942E-11  0.7910E-11  0.1879E-12  0.3662E-10  0.5742E-11  0.3621E-11  0.3645E-11  0.2510E-10  0.1227E-10
    -51.741  0.2111E-05  0.9977E-06  0.3618E+01  0.2434E-05  0.4482E-03  0.2218E-05  0.8979E+00  0.4503E-04  0.2138E-06  0.8277E-07  0.2480E-06  0.6433E-08  0.1098E-05  0.2996E-06  0.8928E-07  0.2304E-06  0.2565E-05  0.1016E-05
    -51.531  0.6351E-05  0.8472E-06  0.9175E+00  0.3982E-04  0.3438E+01  0.1341E-05  0.2766E+01  0.1049E-04  0.2376E-05  0.2136E-06  0.5071E-06  0.9327E-08  0.2763E-05  0.3280E-06  0.1747E-05  0.9529E-07  0.1058E-04  0.8733E-06
    -51.321  0.6463E-05  0.1577E-05  0.2067E+00  0.8135E-04  0.1306E+01  0.1835E-05  0.1038E+01  0.1608E-04  0.2272E-05  0.2295E-06  0.2520E-06  0.9734E-07  0.2217E-05  0.6117E-06  0.5041E-05  0.4566E-07  0.7124E-05  0.1679E-05
    -51.112  0.2108E-05  0.3506E-06  0.4932E-02  0.1907E-06  0.1239E-02  0.9790E-06  0.1300E-02  0.2221E-04  0.8901E-07  0.7285E-08  0.5207E-08  0.1031E-07  0.8710E-06  0.1221E-06  0.4534E-06  0.7156E-07  0.2458E-05  0.4163E-06
    -50.902  0.2713E-04  0.4366E-06  0.2836E-03  0.4318E-04  0.1521E-02  0.4004E-07  0.2359E-01  0.1142E-06  0.7383E-09  0.1089E-08  0.5479E-09  0.6402E-08  0.7548E-05  0.1829E-06  0.8492E-05  0.2158E-09  0.3079E-04  0.5945E-06
    -50.692  0.2384E-04  0.3836E-06  0.2492E-03  0.3794E-04  0.1336E-02  0.3518E-07  0.2072E-01  0.1003E-06  0.6487E-09  0.9568E-09  0.4814E-09  0.5625E-08  0.6631E-05  0.1607E-06  0.7461E-05  0.1896E-09  0.2705E-04  0.5223E-06
    -50.482  0.0000E+00  0.0000E+00  0.0000E+00  0.0000E+00  0.0000E+00  0.0000E+00  0.0000E+00  0.0000E+00  0.0000E+00  0.0000E+00  0.0000E+00  0.0000E+00  0.0000E+00  0.0000E+00  0.0000E+00  0.0000E+00  0.0000E+00  0.0000E+00
    -50.272  0.0000E+00  0.0000E+00  0.0000E+00  0.0000E+00  0.0000E+00  0.0000E+00  0.0000E+00  0.0000E+00  0.0000E+00  0.0000E+00  0.0000E+00  0.0000E+00  0.0000E+00  0.0000E+00  0.0000E+00  0.0000E+00  0.0000E+00  0.0000E+00
    -50.062  0.0000E+00  0.0000E+00  0.0000E+00  0.0000E+00  0.0000E+00  0.0000E+00  0.0000E+00  0.0000E+00  0.0000E+00  0.0000E+00  0.0000E+00  0.0000E+00  0.0000E+00  0.0000E+00  0.0000E+00  0.0000E+00  0.0000E+00  0.0000E+00
    -49.853  0.0000E+00  0.0000E+00  0.0000E+00  0.0000E+00  0.0000E+00  0.0000E+00  0.0000E+00  0.0000E+00  0.0000E+00  0.0000E+00  0.0000E+00  0.0000E+00  0.0000E+00  0.0000E+00  0.0000E+00  0.0000E+00  0.0000E+00  0.0000E+00
    -49.643  0.0000E+00  0.0000E+00  0.0000E+00  0.0000E+00  0.0000E+00  0.0000E+00  0.0000E+00  0.0000E+00  0.0000E+00  0.0000E+00  0.0000E+00  0.0000E+00  0.0000E+00  0.0000E+00  0.0000E+00  0.0000E+00  0.0000E+00  0.0000E+00
    -49.433  0.0000E+00  0.0000E+00  0.0000E+00  0.0000E+00  0.0000E+00  0.0000E+00  0.0000E+00  0.0000E+00  0.0000E+00  0.0000E+00  0.0000E+00  0.0000E+00  0.0000E+00  0.0000E+00  0.0000E+00  0.0000E+00  0.0000E+00  0.0000E+00
    -49.223  0.1670E-08  0.1339E-07  0.3083E-07  0.1240E-04  0.1771E-08  0.3018E-05  0.5465E-07  0.2372E-04  0.2804E-09  0.1568E-08  0.1107E-10  0.1280E-09  0.5606E-09  0.4153E-08  0.1406E-09  0.2017E-08  0.1110E-08  0.9928E-08
    -49.013  0.3036E-05  0.3341E-04  0.9279E-04  0.2275E-01  0.4094E-05  0.8636E-02  0.7893E-04  0.7270E-01  0.6064E-06  0.4650E-05  0.2423E-07  0.4339E-06  0.1045E-05  0.1007E-04  0.3045E-06  0.6538E-05  0.2961E-05  0.3415E-04
    -48.804  0.2980E-06  0.7087E-05  0.1008E-04  0.1065E+01  0.2745E-05  0.2824E+00  0.2530E-05  0.6729E+00  0.4581E-07  0.4919E-06  0.1425E-06  0.2595E-06  0.1093E-06  0.9920E-06  0.6845E-07  0.7056E-05  0.2575E-06  0.2781E-05
    -48.594  0.1913E-05  0.2300E-04  0.5518E-04  0.3056E+01  0.1076E-05  0.2142E+01  0.2557E-04  0.2114E+01  0.4364E-07  0.7953E-06  0.2152E-07  0.5745E-06  0.7016E-06  0.7534E-05  0.1229E-06  0.6900E-05  0.2208E-05  0.3696E-04
    -48.384  0.1202E-05  0.2362E-04  0.2674E-04  0.6048E+00  0.7422E-06  0.2316E+01  0.2101E-04  0.1889E+01  0.3215E-07  0.4451E-06  0.6073E-08  0.6564E-06  0.4468E-06  0.6653E-05  0.1003E-06  0.7607E-05  0.1488E-05  0.2263E-04
    -48.174  0.3669E-10  0.1299E-08  0.1617E-08  0.1038E-04  0.3548E-11  0.3472E-06  0.4543E-11  0.6860E-04  0.1638E-11  0.7669E-11  0.3030E-12  0.3649E-11  0.1527E-10  0.3314E-09  0.1842E-12  0.4600E-09  0.6360E-10  0.1308E-08
    -47.964  0.0000E+00  0.0000E+00  0.0000E+00  0.0000E+00  0.0000E+00  0.0000E+00  0.0000E+00  0.0000E+00  0.0000E+00  0.0000E+00  0.0000E+00  0.0000E+00  0.0000E+00  0.0000E+00  0.0000E+00  0.0000E+00  0.0000E+00  0.0000E+00
    -47.754  0.0000E+00  0.0000E+00  0.0000E+00  0.0000E+00  0.0000E+00  0.0000E+00  0.0000E+00  0.0000E+00  0.0000E+00  0.0000E+00  0.0000E+00  0.0000E+00  0.0000E+00  0.0000E+00  0.0000E+00  0.0000E+00  0.0000E+00  0.0000E+00
    -47.545  0.0000E+00  0.0000E+00  0.0000E+00  0.0000E+00  0.0000E+00  0.0000E+00  0.0000E+00  0.0000E+00  0.0000E+00  0.0000E+00  0.0000E+00  0.0000E+00  0.0000E+00  0.0000E+00  0.0000E+00  0.0000E+00  0.0000E+00  0.0000E+00
    -47.335  0.0000E+00  0.0000E+00  0.0000E+00  0.0000E+00  0.0000E+00  0.0000E+00  0.0000E+00  0.0000E+00  0.0000E+00  0.0000E+00  0.0000E+00  0.0000E+00  0.0000E+00  0.0000E+00  0.0000E+00  0.0000E+00  0.0000E+00  0.0000E+00
    -47.125  0.0000E+00  0.0000E+00  0.0000E+00  0.0000E+00  0.0000E+00  0.0000E+00  0.0000E+00  0.0000E+00  0.0000E+00  0.0000E+00  0.0000E+00  0.0000E+00  0.0000E+00  0.0000E+00  0.0000E+00  0.0000E+00  0.0000E+00  0.0000E+00
    -46.915  0.0000E+00  0.0000E+00  0.0000E+00  0.0000E+00  0.0000E+00  0.0000E+00  0.0000E+00  0.0000E+00  0.0000E+00  0.0000E+00  0.0000E+00  0.0000E+00  0.0000E+00  0.0000E+00  0.0000E+00  0.0000E+00  0.0000E+00  0.0000E+00
    -46.705  0.0000E+00  0.0000E+00  0.0000E+00  0.0000E+00  0.0000E+00  0.0000E+00  0.0000E+00  0.0000E+00  0.0000E+00  0.0000E+00  0.0000E+00  0.0000E+00  0.0000E+00  0.0000E+00  0.0000E+00  0.0000E+00  0.0000E+00  0.0000E+00
    -46.495  0.0000E+00  0.0000E+00  0.0000E+00  0.0000E+00  0.0000E+00  0.0000E+00  0.0000E+00  0.0000E+00  0.0000E+00  0.0000E+00  0.0000E+00  0.0000E+00  0.0000E+00  0.0000E+00  0.0000E+00  0.0000E+00  0.0000E+00  0.0000E+00
    -46.286  0.0000E+00  0.0000E+00  0.0000E+00  0.0000E+00  0.0000E+00  0.0000E+00  0.0000E+00  0.0000E+00  0.0000E+00  0.0000E+00  0.0000E+00  0.0000E+00  0.0000E+00  0.0000E+00  0.0000E+00  0.0000E+00  0.0000E+00  0.0000E+00
    -46.076  0.0000E+00  0.0000E+00  0.0000E+00  0.0000E+00  0.0000E+00  0.0000E+00  0.0000E+00  0.0000E+00  0.0000E+00  0.0000E+00  0.0000E+00  0.0000E+00  0.0000E+00  0.0000E+00  0.0000E+00  0.0000E+00  0.0000E+00  0.0000E+00
    -45.866  0.0000E+00  0.0000E+00  0.0000E+00  0.0000E+00  0.0000E+00  0.0000E+00  0.0000E+00  0.0000E+00  0.0000E+00  0.0000E+00  0.0000E+00  0.0000E+00  0.0000E+00  0.0000E+00  0.0000E+00  0.0000E+00  0.0000E+00  0.0000E+00
    -45.656  0.0000E+00  0.0000E+00  0.0000E+00  0.0000E+00  0.0000E+00  0.0000E+00  0.0000E+00  0.0000E+00  0.0000E+00  0.0000E+00  0.0000E+00  0.0000E+00  0.0000E+00  0.0000E+00  0.0000E+00  0.0000E+00  0.0000E+00  0.0000E+00
    -45.446  0.0000E+00  0.0000E+00  0.0000E+00  0.0000E+00  0.0000E+00  0.0000E+00  0.0000E+00  0.0000E+00  0.0000E+00  0.0000E+00  0.0000E+00  0.0000E+00  0.0000E+00  0.0000E+00  0.0000E+00  0.0000E+00  0.0000E+00  0.0000E+00
    -45.237  0.0000E+00  0.0000E+00  0.0000E+00  0.0000E+00  0.0000E+00  0.0000E+00  0.0000E+00  0.0000E+00  0.0000E+00  0.0000E+00  0.0000E+00  0.0000E+00  0.0000E+00  0.0000E+00  0.0000E+00  0.0000E+00  0.0000E+00  0.0000E+00
    -45.027  0.0000E+00  0.0000E+00  0.0000E+00  0.0000E+00  0.0000E+00  0.0000E+00  0.0000E+00  0.0000E+00  0.0000E+00  0.0000E+00  0.0000E+00  0.0000E+00  0.0000E+00  0.0000E+00  0.0000E+00  0.0000E+00  0.0000E+00  0.0000E+00
    -44.817  0.0000E+00  0.0000E+00  0.0000E+00  0.0000E+00  0.0000E+00  0.0000E+00  0.0000E+00  0.0000E+00  0.0000E+00  0.0000E+00  0.0000E+00  0.0000E+00  0.0000E+00  0.0000E+00  0.0000E+00  0.0000E+00  0.0000E+00  0.0000E+00
    -44.607  0.0000E+00  0.0000E+00  0.0000E+00  0.0000E+00  0.0000E+00  0.0000E+00  0.0000E+00  0.0000E+00  0.0000E+00  0.0000E+00  0.0000E+00  0.0000E+00  0.0000E+00  0.0000E+00  0.0000E+00  0.0000E+00  0.0000E+00  0.0000E+00
    -44.397  0.0000E+00  0.0000E+00  0.0000E+00  0.0000E+00  0.0000E+00  0.0000E+00  0.0000E+00  0.0000E+00  0.0000E+00  0.0000E+00  0.0000E+00  0.0000E+00  0.0000E+00  0.0000E+00  0.0000E+00  0.0000E+00  0.0000E+00  0.0000E+00
    -44.187  0.0000E+00  0.0000E+00  0.0000E+00  0.0000E+00  0.0000E+00  0.0000E+00  0.0000E+00  0.0000E+00  0.0000E+00  0.0000E+00  0.0000E+00  0.0000E+00  0.0000E+00  0.0000E+00  0.0000E+00  0.0000E+00  0.0000E+00  0.0000E+00