  16  16   1   0
  0.2125000E+02  0.8037246E-09  0.7346914E-09  0.6378355E-09  0.5000000E-15
  1.000000000000000E-004
  CAR 
 unknown system                          
      8.14473926    -54.73068055  301      3.00550181      1.00000000
    -54.731  0.0000E+00  0.0000E+00  0.0000E+00  0.0000E+00
    -54.521  0.0000E+00  0.0000E+00  0.0000E+00  0.0000E+00
    -54.312  0.0000E+00  0.0000E+00  0.0000E+00  0.0000E+00
    -54.102  0.0000E+00  0.0000E+00  0.0000E+00  0.0000E+00
    -53.892  0.0000E+00  0.0000E+00  0.0000E+00  0.0000E+00
    -53.683  0.0000E+00  0.0000E+00  0.0000E+00  0.0000E+00
    -53.473  0.0000E+00  0.0000E+00  0.0000E+00  0.0000E+00
    -53.264  0.0000E+00  0.0000E+00  0.0000E+00  0.0000E+00
    -53.054  0.0000E+00  0.0000E+00  0.0000E+00  0.0000E+00
    -52.844  0.0000E+00  0.0000E+00  0.0000E+00  0.0000E+00
    -52.635  0.0000E+00  0.0000E+00  0.0000E+00  0.0000E+00
    -52.425  0.0000E+00  0.0000E+00  0.0000E+00  0.0000E+00
    -52.216  0.0000E+00  0.0000E+00  0.0000E+00  0.0000E+00
    -52.006  0.4348E-05  0.4348E-05  0.9113E-06  0.9113E-06
    -51.796  0.1242E+00  0.1242E+00  0.2603E-01  0.2603E-01
    -51.587  0.2593E+00  0.2593E+00  0.8038E-01  0.8038E-01
    -51.377  0.2398E-01  0.2398E-01  0.8541E-01  0.8541E-01
    -51.168  0.1215E+00  0.1215E+00  0.1109E+00  0.1109E+00
    -50.958  0.1454E-02  0.1454E-02  0.1112E+00  0.1112E+00
    -50.749  0.4782E-01  0.4782E-01  0.1212E+00  0.1212E+00
    -50.539  0.1131E-04  0.1131E-04  0.1212E+00  0.1212E+00
    -50.329  0.0000E+00  0.0000E+00  0.1212E+00  0.1212E+00
    -50.120  0.0000E+00  0.0000E+00  0.1212E+00  0.1212E+00
    -49.910  0.0000E+00  0.0000E+00  0.1212E+00  0.1212E+00
    -49.701  0.0000E+00  0.0000E+00  0.1212E+00  0.1212E+00
    -49.491  0.3420E-10  0.3420E-10  0.1212E+00  0.1212E+00
    -49.281  0.2170E-01  0.2170E-01  0.1258E+00  0.1258E+00
    -49.072  0.1279E+00  0.1279E+00  0.1526E+00  0.1526E+00
    -48.862  0.1011E+00  0.1011E+00  0.1737E+00  0.1737E+00
    -48.653  0.1837E+00  0.1837E+00  0.2122E+00  0.2122E+00
    -48.443  0.1441E+00  0.1441E+00  0.2424E+00  0.2424E+00
    -48.234  0.7673E-06  0.7673E-06  0.2424E+00  0.2424E+00
    -48.024  0.0000E+00  0.0000E+00  0.2424E+00  0.2424E+00
    -47.814  0.0000E+00  0.0000E+00  0.2424E+00  0.2424E+00
    -47.605  0.0000E+00  0.0000E+00  0.2424E+00  0.2424E+00
    -47.395  0.0000E+00  0.0000E+00  0.2424E+00  0.2424E+00
    -47.186  0.0000E+00  0.0000E+00  0.2424E+00  0.2424E+00
    -46.976  0.0000E+00  0.0000E+00  0.2424E+00  0.2424E+00
    -46.766  0.0000E+00  0.0000E+00  0.2424E+00  0.2424E+00
    -46.557  0.0000E+00  0.0000E+00  0.2424E+00  0.2424E+00
    -46.347  0.0000E+00  0.0000E+00  0.2424E+00  0.2424E+00
    -46.138  0.0000E+00  0.0000E+00  0.2424E+00  0.2424E+00
    -45.928  0.0000E+00  0.0000E+00  0.2424E+00  0.2424E+00
    -45.719  0.0000E+00  0.0000E+00  0.2424E+00  0.2424E+00
    -45.509  0.0000E+00  0.0000E+00  0.2424E+00  0.2424E+00
    -45.299  0.0000E+00  0.0000E+00  0.2424E+00  0.2424E+00
    -45.090  0.0000E+00  0.0000E+00  0.2424E+00  0.2424E+00
    -44.880  0.0000E+00  0.0000E+00  0.2424E+00  0.2424E+00
    -44.671  0.0000E+00  0.0000E+00  0.2424E+00  0.2424E+00
    -44.461  0.0000E+00  0.0000E+00  0.2424E+00  0.2424E+00
    -44.251  0.0000E+00  0.0000E+00  0.2424E+00  0.2424E+00
    -44.042  0.0000E+00  0.0000E+00  0.2424E+00  0.2424E+00
    -43.832  0.0000E+00  0.0000E+00  0.2424E+00  0.2424E+00
    -43.623  0.0000E+00  0.0000E+00  0.2424E+00  0.2424E+00
    -43.413  0.0000E+00  0.0000E+00  0.2424E+00  0.2424E+00
    -43.204  0.0000E+00  0.0000E+00  0.2424E+00  0.2424E+00
    -42.994  0.0000E+00  0.0000E+00  0.2424E+00  0.2424E+00
    -42.784  0.0000E+00  0.0000E+00  0.2424E+00  0.2424E+00
    -42.575  0.0000E+00  0.0000E+00  0.2424E+00  0.2424E+00
    -42.365  0.0000E+00  0.0000E+00  0.2424E+00  0.2424E+00
    -42.156  0.0000E+00  0.0000E+00  0.2424E+00  0.2424E+00
    -41.946  0.0000E+00  0.0000E+00  0.2424E+00  0.2424E+00
    -41.736  0.0000E+00  0.0000E+00  0.2424E+00  0.2424E+00
    -41.527  0.0000E+00  0.0000E+00  0.2424E+00  0.2424E+00
    -41.317  0.0000E+00  0.0000E+00  0.2424E+00  0.2424E+00
    -41.108  0.0000E+00  0.0000E+00  0.2424E+00  0.2424E+00
    -40.898  0.0000E+00  0.0000E+00  0.2424E+00  0.2424E+00
    -40.689  0.0000E+00  0.0000E+00  0.2424E+00  0.2424E+00
    -40.479  0.0000E+00  0.0000E+00  0.2424E+00  0.2424E+00
    -40.269  0.0000E+00  0.0000E+00  0.2424E+00  0.2424E+00
    -40.060  0.0000E+00  0.0000E+00  0.2424E+00  0.2424E+00
    -39.850  0.0000E+00  0.0000E+00  0.2424E+00  0.2424E+00
    -39.641  0.0000E+00  0.0000E+00  0.2424E+00  0.2424E+00
    -39.431  0.0000E+00  0.0000E+00  0.2424E+00  0.2424E+00
    -39.221  0.0000E+00  0.0000E+00  0.2424E+00  0.2424E+00
    -39.012  0.0000E+00  0.0000E+00  0.2424E+00  0.2424E+00
    -38.802  0.0000E+00  0.0000E+00  0.2424E+00  0.2424E+00
    -38.593  0.0000E+00  0.0000E+00  0.2424E+00  0.2424E+00
    -38.383  0.0000E+00  0.0000E+00  0.2424E+00  0.2424E+00
    -38.173  0.0000E+00  0.0000E+00  0.2424E+00  0.2424E+00
    -37.964  0.0000E+00  0.0000E+00  0.2424E+00  0.2424E+00
    -37.754  0.0000E+00  0.0000E+00  0.2424E+00  0.2424E+00
    -37.545  0.0000E+00  0.0000E+00  0.2424E+00  0.2424E+00
    -37.335  0.0000E+00  0.0000E+00  0.2424E+00  0.2424E+00
    -37.126  0.0000E+00  0.0000E+00  0.2424E+00  0.2424E+00
    -36.916  0.0000E+00  0.0000E+00  0.2424E+00  0.2424E+00
    -36.706  0.0000E+00  0.0000E+00  0.2424E+00  0.2424E+00
    -36.497  0.0000E+00  0.0000E+00  0.2424E+00  0.2424E+00
    -36.287  0.0000E+00  0.0000E+00  0.2424E+00  0.2424E+00
    -36.078  0.0000E+00  0.0000E+00  0.2424E+00  0.2424E+00
    -35.868  0.0000E+00  0.0000E+00  0.2424E+00  0.2424E+00
    -35.658  0.0000E+00  0.0000E+00  0.2424E+00  0.2424E+00
    -35.449  0.0000E+00  0.0000E+00  0.2424E+00  0.2424E+00
    -35.239  0.0000E+00  0.0000E+00  0.2424E+00  0.2424E+00
    -35.030  0.0000E+00  0.0000E+00  0.2424E+00  0.2424E+00
    -34.820  0.0000E+00  0.0000E+00  0.2424E+00  0.2424E+00
    -34.611  0.0000E+00  0.0000E+00  0.2424E+00  0.2424E+00
    -34.401  0.0000E+00  0.0000E+00  0.2424E+00  0.2424E+00
    -34.191  0.0000E+00  0.0000E+00  0.2424E+00  0.2424E+00
    -33.982  0.0000E+00  0.0000E+00  0.2424E+00  0.2424E+00
    -33.772  0.0000E+00  0.0000E+00  0.2424E+00  0.2424E+00
    -33.563  0.0000E+00  0.0000E+00  0.2424E+00  0.2424E+00
    -33.353  0.0000E+00  0.0000E+00  0.2424E+00  0.2424E+00
    -33.143  0.0000E+00  0.0000E+00  0.2424E+00  0.2424E+00
    -32.934  0.0000E+00  0.0000E+00  0.2424E+00  0.2424E+00
    -32.724  0.0000E+00  0.0000E+00  0.2424E+00  0.2424E+00
    -32.515  0.0000E+00  0.0000E+00  0.2424E+00  0.2424E+00
    -32.305  0.0000E+00  0.0000E+00  0.2424E+00  0.2424E+00
    -32.096  0.0000E+00  0.0000E+00  0.2424E+00  0.2424E+00
    -31.886  0.0000E+00  0.0000E+00  0.2424E+00  0.2424E+00
    -31.676  0.0000E+00  0.0000E+00  0.2424E+00  0.2424E+00
    -31.467  0.0000E+00  0.0000E+00  0.2424E+00  0.2424E+00
    -31.257  0.0000E+00  0.0000E+00  0.2424E+00  0.2424E+00
    -31.048  0.0000E+00  0.0000E+00  0.2424E+00  0.2424E+00
    -30.838  0.0000E+00  0.0000E+00  0.2424E+00  0.2424E+00
    -30.628  0.0000E+00  0.0000E+00  0.2424E+00  0.2424E+00
    -30.419  0.0000E+00  0.0000E+00  0.2424E+00  0.2424E+00
    -30.209  0.0000E+00  0.0000E+00  0.2424E+00  0.2424E+00
    -30.000  0.0000E+00  0.0000E+00  0.2424E+00  0.2424E+00
    -29.790  0.0000E+00  0.0000E+00  0.2424E+00  0.2424E+00
    -29.581  0.0000E+00  0.0000E+00  0.2424E+00  0.2424E+00
    -29.371  0.0000E+00  0.0000E+00  0.2424E+00  0.2424E+00
    -29.161  0.0000E+00  0.0000E+00  0.2424E+00  0.2424E+00
    -28.952  0.0000E+00  0.0000E+00  0.2424E+00  0.2424E+00
    -28.742  0.0000E+00  0.0000E+00  0.2424E+00  0.2424E+00
    -28.533  0.0000E+00  0.0000E+00  0.2424E+00  0.2424E+00
    -28.323  0.0000E+00  0.0000E+00  0.2424E+00  0.2424E+00
    -28.113  0.0000E+00  0.0000E+00  0.2424E+00  0.2424E+00
    -27.904  0.0000E+00  0.0000E+00  0.2424E+00  0.2424E+00
    -27.694  0.0000E+00  0.0000E+00  0.2424E+00  0.2424E+00
    -27.485  0.0000E+00  0.0000E+00  0.2424E+00  0.2424E+00
    -27.275  0.0000E+00  0.0000E+00  0.2424E+00  0.2424E+00
    -27.065  0.0000E+00  0.0000E+00  0.2424E+00  0.2424E+00
    -26.856  0.0000E+00  0.0000E+00  0.2424E+00  0.2424E+00
    -26.646  0.0000E+00  0.0000E+00  0.2424E+00  0.2424E+00
    -26.437  0.0000E+00  0.0000E+00  0.2424E+00  0.2424E+00
    -26.227  0.0000E+00  0.0000E+00  0.2424E+00  0.2424E+00
    -26.018  0.0000E+00  0.0000E+00  0.2424E+00  0.2424E+00
    -25.808  0.0000E+00  0.0000E+00  0.2424E+00  0.2424E+00
    -25.598  0.0000E+00  0.0000E+00  0.2424E+00  0.2424E+00
    -25.389  0.0000E+00  0.0000E+00  0.2424E+00  0.2424E+00
    -25.179  0.0000E+00  0.0000E+00  0.2424E+00  0.2424E+00
    -24.970  0.0000E+00  0.0000E+00  0.2424E+00  0.2424E+00
    -24.760  0.0000E+00  0.0000E+00  0.2424E+00  0.2424E+00
    -24.550  0.0000E+00  0.0000E+00  0.2424E+00  0.2424E+00
    -24.341  0.0000E+00  0.0000E+00  0.2424E+00  0.2424E+00
    -24.131  0.0000E+00  0.0000E+00  0.2424E+00  0.2424E+00
    -23.922  0.0000E+00  0.0000E+00  0.2424E+00  0.2424E+00
    -23.712  0.0000E+00  0.0000E+00  0.2424E+00  0.2424E+00
    -23.503  0.0000E+00  0.0000E+00  0.2424E+00  0.2424E+00
    -23.293  0.0000E+00  0.0000E+00  0.2424E+00  0.2424E+00
    -23.083  0.0000E+00  0.0000E+00  0.2424E+00  0.2424E+00
    -22.874  0.0000E+00  0.0000E+00  0.2424E+00  0.2424E+00
    -22.664  0.0000E+00  0.0000E+00  0.2424E+00  0.2424E+00
    -22.455  0.0000E+00  0.0000E+00  0.2424E+00  0.2424E+00
    -22.245  0.0000E+00  0.0000E+00  0.2424E+00  0.2424E+00
    -22.035  0.0000E+00  0.0000E+00  0.2424E+00  0.2424E+00
    -21.826  0.0000E+00  0.0000E+00  0.2424E+00  0.2424E+00
    -21.616  0.0000E+00  0.0000E+00  0.2424E+00  0.2424E+00
    -21.407  0.0000E+00  0.0000E+00  0.2424E+00  0.2424E+00
    -21.197  0.0000E+00  0.0000E+00  0.2424E+00  0.2424E+00
    -20.988  0.0000E+00  0.0000E+00  0.2424E+00  0.2424E+00
    -20.778  0.0000E+00  0.0000E+00  0.2424E+00  0.2424E+00
    -20.568  0.0000E+00  0.0000E+00  0.2424E+00  0.2424E+00
    -20.359  0.0000E+00  0.0000E+00  0.2424E+00  0.2424E+00
    -20.149  0.0000E+00  0.0000E+00  0.2424E+00  0.2424E+00
    -19.940  0.0000E+00  0.0000E+00  0.2424E+00  0.2424E+00
    -19.730  0.0000E+00  0.0000E+00  0.2424E+00  0.2424E+00
    -19.520  0.0000E+00  0.0000E+00  0.2424E+00  0.2424E+00
    -19.311  0.0000E+00  0.0000E+00  0.2424E+00  0.2424E+00
    -19.101  0.0000E+00  0.0000E+00  0.2424E+00  0.2424E+00
    -18.892  0.0000E+00  0.0000E+00  0.2424E+00  0.2424E+00
    -18.682  0.0000E+00  0.0000E+00  0.2424E+00  0.2424E+00
    -18.473  0.0000E+00  0.0000E+00  0.2424E+00  0.2424E+00
    -18.263  0.0000E+00  0.0000E+00  0.2424E+00  0.2424E+00
    -18.053  0.0000E+00  0.0000E+00  0.2424E+00  0.2424E+00
    -17.844  0.0000E+00  0.0000E+00  0.2424E+00  0.2424E+00
    -17.634  0.0000E+00  0.0000E+00  0.2424E+00  0.2424E+00
    -17.425  0.0000E+00  0.0000E+00  0.2424E+00  0.2424E+00
    -17.215  0.0000E+00  0.0000E+00  0.2424E+00  0.2424E+00
    -17.005  0.0000E+00  0.0000E+00  0.2424E+00  0.2424E+00
    -16.796  0.0000E+00  0.0000E+00  0.2424E+00  0.2424E+00
    -16.586  0.0000E+00  0.0000E+00  0.2424E+00  0.2424E+00
    -16.377  0.0000E+00  0.0000E+00  0.2424E+00  0.2424E+00
    -16.167  0.0000E+00  0.0000E+00  0.2424E+00  0.2424E+00
    -15.958  0.0000E+00  0.0000E+00  0.2424E+00  0.2424E+00
    -15.748  0.0000E+00  0.0000E+00  0.2424E+00  0.2424E+00
    -15.538  0.0000E+00  0.0000E+00  0.2424E+00  0.2424E+00
    -15.329  0.0000E+00  0.0000E+00  0.2424E+00  0.2424E+00
    -15.119  0.0000E+00  0.0000E+00  0.2424E+00  0.2424E+00
    -14.910  0.0000E+00  0.0000E+00  0.2424E+00  0.2424E+00
    -14.700  0.0000E+00  0.0000E+00  0.2424E+00  0.2424E+00
    -14.490  0.0000E+00  0.0000E+00  0.2424E+00  0.2424E+00
    -14.281  0.0000E+00  0.0000E+00  0.2424E+00  0.2424E+00
    -14.071  0.0000E+00  0.0000E+00  0.2424E+00  0.2424E+00
    -13.862  0.0000E+00  0.0000E+00  0.2424E+00  0.2424E+00
    -13.652  0.0000E+00  0.0000E+00  0.2424E+00  0.2424E+00
    -13.442  0.0000E+00  0.0000E+00  0.2424E+00  0.2424E+00
    -13.233  0.0000E+00  0.0000E+00  0.2424E+00  0.2424E+00
    -13.023  0.0000E+00  0.0000E+00  0.2424E+00  0.2424E+00
    -12.814  0.0000E+00  0.0000E+00  0.2424E+00  0.2424E+00
    -12.604  0.0000E+00  0.0000E+00  0.2424E+00  0.2424E+00
    -12.395  0.0000E+00  0.0000E+00  0.2424E+00  0.2424E+00
    -12.185  0.0000E+00  0.0000E+00  0.2424E+00  0.2424E+00
    -11.975  0.0000E+00  0.0000E+00  0.2424E+00  0.2424E+00
    -11.766  0.0000E+00  0.0000E+00  0.2424E+00  0.2424E+00
    -11.556  0.0000E+00  0.0000E+00  0.2424E+00  0.2424E+00
    -11.347  0.1146E-08  0.1146E-08  0.2424E+00  0.2424E+00
    -11.137  0.1854E-02  0.1854E-02  0.2428E+00  0.2428E+00
    -10.927  0.1630E-01  0.1630E-01  0.2462E+00  0.2462E+00
    -10.718  0.3484E-01  0.3484E-01  0.2535E+00  0.2535E+00
    -10.508  0.4438E-01  0.4438E-01  0.2628E+00  0.2628E+00
    -10.299  0.3962E-01  0.3962E-01  0.2711E+00  0.2711E+00
    -10.089  0.4795E-01  0.4795E-01  0.2812E+00  0.2812E+00
     -9.880  0.5828E-01  0.5828E-01  0.2934E+00  0.2934E+00
     -9.670  0.9415E-01  0.9415E-01  0.3131E+00  0.3131E+00
     -9.460  0.4818E-01  0.4818E-01  0.3232E+00  0.3232E+00
     -9.251  0.1383E-05  0.1383E-05  0.3232E+00  0.3232E+00
     -9.041  0.0000E+00  0.0000E+00  0.3232E+00  0.3232E+00
     -8.832  0.0000E+00  0.0000E+00  0.3232E+00  0.3232E+00
     -8.622  0.0000E+00  0.0000E+00  0.3232E+00  0.3232E+00
     -8.412  0.0000E+00  0.0000E+00  0.3232E+00  0.3232E+00
     -8.203  0.0000E+00  0.0000E+00  0.3232E+00  0.3232E+00
     -7.993  0.0000E+00  0.0000E+00  0.3232E+00  0.3232E+00
     -7.784  0.0000E+00  0.0000E+00  0.3232E+00  0.3232E+00
     -7.574  0.0000E+00  0.0000E+00  0.3232E+00  0.3232E+00
     -7.365  0.0000E+00  0.0000E+00  0.3232E+00  0.3232E+00
     -7.155  0.0000E+00  0.0000E+00  0.3232E+00  0.3232E+00
     -6.945  0.0000E+00  0.0000E+00  0.3232E+00  0.3232E+00
     -6.736  0.0000E+00  0.0000E+00  0.3232E+00  0.3232E+00
     -6.526  0.0000E+00  0.0000E+00  0.3232E+00  0.3232E+00
     -6.317  0.0000E+00  0.0000E+00  0.3232E+00  0.3232E+00
     -6.107  0.0000E+00  0.0000E+00  0.3232E+00  0.3232E+00
     -5.897  0.0000E+00  0.0000E+00  0.3232E+00  0.3232E+00
     -5.688  0.0000E+00  0.0000E+00  0.3232E+00  0.3232E+00
     -5.478  0.0000E+00  0.0000E+00  0.3232E+00  0.3232E+00
     -5.269  0.0000E+00  0.0000E+00  0.3232E+00  0.3232E+00
     -5.059  0.0000E+00  0.0000E+00  0.3232E+00  0.3232E+00
     -4.850  0.0000E+00  0.0000E+00  0.3232E+00  0.3232E+00
     -4.640  0.0000E+00  0.0000E+00  0.3232E+00  0.3232E+00
     -4.430  0.0000E+00  0.0000E+00  0.3232E+00  0.3232E+00
     -4.221  0.0000E+00  0.0000E+00  0.3232E+00  0.3232E+00
     -4.011  0.0000E+00  0.0000E+00  0.3232E+00  0.3232E+00
     -3.802  0.0000E+00  0.0000E+00  0.3232E+00  0.3232E+00
     -3.592  0.0000E+00  0.0000E+00  0.3232E+00  0.3232E+00
     -3.382  0.2476E-11  0.2476E-11  0.3232E+00  0.3232E+00
     -3.173  0.1844E-03  0.1844E-03  0.3233E+00  0.3233E+00
     -2.963  0.4412E-02  0.4412E-02  0.3242E+00  0.3242E+00
     -2.754  0.9793E-02  0.9793E-02  0.3262E+00  0.3262E+00
     -2.544  0.3030E-01  0.3030E-01  0.3326E+00  0.3326E+00
     -2.334  0.5096E-01  0.5096E-01  0.3433E+00  0.3433E+00
     -2.125  0.6138E-01  0.6138E-01  0.3561E+00  0.3561E+00
     -1.915  0.5274E-01  0.5274E-01  0.3672E+00  0.3672E+00
     -1.706  0.6042E-01  0.6042E-01  0.3799E+00  0.3799E+00
     -1.496  0.6126E-01  0.6126E-01  0.3927E+00  0.3927E+00
     -1.287  0.7123E-01  0.7123E-01  0.4076E+00  0.4076E+00
     -1.077  0.8182E-01  0.8182E-01  0.4248E+00  0.4248E+00
     -0.867  0.9815E-01  0.9815E-01  0.4453E+00  0.4453E+00
     -0.658  0.8997E-01  0.8997E-01  0.4642E+00  0.4642E+00
     -0.448  0.8458E-01  0.8458E-01  0.4819E+00  0.4819E+00
     -0.239  0.9962E-01  0.9962E-01  0.5028E+00  0.5028E+00
     -0.029  0.1069E+00  0.1069E+00  0.5252E+00  0.5252E+00
      0.181  0.1042E+00  0.1042E+00  0.5471E+00  0.5471E+00
      0.390  0.1324E+00  0.1324E+00  0.5748E+00  0.5748E+00
      0.600  0.1245E+00  0.1245E+00  0.6009E+00  0.6009E+00
      0.809  0.1177E+00  0.1177E+00  0.6256E+00  0.6256E+00
      1.019  0.1205E+00  0.1205E+00  0.6508E+00  0.6508E+00
      1.228  0.9257E-01  0.9257E-01  0.6702E+00  0.6702E+00
      1.438  0.9496E-01  0.9496E-01  0.6901E+00  0.6901E+00
      1.648  0.1034E+00  0.1034E+00  0.7118E+00  0.7118E+00
      1.857  0.9293E-01  0.9293E-01  0.7313E+00  0.7313E+00
      2.067  0.6579E-01  0.6579E-01  0.7451E+00  0.7451E+00
      2.276  0.6782E-01  0.6782E-01  0.7593E+00  0.7593E+00
      2.486  0.4476E-01  0.4476E-01  0.7687E+00  0.7687E+00
      2.696  0.9294E-01  0.9294E-01  0.7881E+00  0.7881E+00
      2.905  0.7355E-01  0.7355E-01  0.8035E+00  0.8035E+00
      3.115  0.4522E-01  0.4522E-01  0.8130E+00  0.8130E+00
      3.324  0.9249E-01  0.9249E-01  0.8324E+00  0.8324E+00
      3.534  0.9678E-01  0.9678E-01  0.8527E+00  0.8527E+00
      3.743  0.9679E-01  0.9679E-01  0.8730E+00  0.8730E+00
      3.953  0.1191E+00  0.1191E+00  0.8979E+00  0.8979E+00
      4.163  0.1013E+00  0.1013E+00  0.9192E+00  0.9192E+00
      4.372  0.8435E-01  0.8435E-01  0.9369E+00  0.9369E+00
      4.582  0.5066E-01  0.5066E-01  0.9475E+00  0.9475E+00
      4.791  0.3036E-01  0.3036E-01  0.9538E+00  0.9538E+00
      5.001  0.3260E-01  0.3260E-01  0.9607E+00  0.9607E+00
      5.211  0.3480E-01  0.3480E-01  0.9680E+00  0.9680E+00
      5.420  0.8302E-02  0.8301E-02  0.9697E+00  0.9697E+00
      5.630  0.5722E-07  0.5714E-07  0.9697E+00  0.9697E+00
      5.839  0.0000E+00  0.0000E+00  0.9697E+00  0.9697E+00
      6.049  0.0000E+00  0.0000E+00  0.9697E+00  0.9697E+00
      6.258  0.0000E+00  0.0000E+00  0.9697E+00  0.9697E+00
      6.468  0.0000E+00  0.0000E+00  0.9697E+00  0.9697E+00
      6.678  0.0000E+00  0.0000E+00  0.9697E+00  0.9697E+00
      6.887  0.0000E+00  0.0000E+00  0.9697E+00  0.9697E+00
      7.097  0.0000E+00  0.0000E+00  0.9697E+00  0.9697E+00
      7.306  0.0000E+00  0.0000E+00  0.9697E+00  0.9697E+00
      7.516  0.0000E+00  0.0000E+00  0.9697E+00  0.9697E+00
      7.726  0.0000E+00  0.0000E+00  0.9697E+00  0.9697E+00
      7.935  0.0000E+00  0.0000E+00  0.9697E+00  0.9697E+00
      8.145  0.0000E+00  0.0000E+00  0.9697E+00  0.9697E+00
      8.14473926    -54.73068055  301      3.00550181      1.00000000
    -54.731  0.0000E+00  0.0000E+00  0.0000E+00  0.0000E+00  0.0000E+00  0.0000E+00  0.0000E+00  0.0000E+00  0.0000E+00  0.0000E+00  0.0000E+00  0.0000E+00  0.0000E+00  0.0000E+00  0.0000E+00  0.0000E+00  0.0000E+00  0.0000E+00
    -54.521  0.0000E+00  0.0000E+00  0.0000E+00  0.0000E+00  0.0000E+00  0.0000E+00  0.0000E+00  0.0000E+00  0.0000E+00  0.0000E+00  0.0000E+00  0.0000E+00  0.0000E+00  0.0000E+00  0.0000E+00  0.0000E+00  0.0000E+00  0.0000E+00
    -54.312  0.0000E+00  0.0000E+00  0.0000E+00  0.0000E+00  0.0000E+00  0.0000E+00  0.0000E+00  0.0000E+00  0.0000E+00  0.0000E+00  0.0000E+00  0.0000E+00  0.0000E+00  0.0000E+00  0.0000E+00  0.0000E+00  0.0000E+00  0.0000E+00
    -54.102  0.0000E+00  0.0000E+00  0.0000E+00  0.0000E+00  0.0000E+00  0.0000E+00  0.0000E+00  0.0000E+00  0.0000E+00  0.0000E+00  0.0000E+00  0.0000E+00  0.0000E+00  0.0000E+00  0.0000E+00  0.0000E+00  0.0000E+00  0.0000E+00
    -53.892  0.0000E+00  0.0000E+00  0.0000E+00  0.0000E+00  0.0000E+00  0.0000E+00  0.0000E+00  0.0000E+00  0.0000E+00  0.0000E+00  0.0000E+00  0.0000E+00  0.0000E+00  0.0000E+00  0.0000E+00  0.0000E+00  0.0000E+00  0.0000E+00
    -53.683  0.0000E+00  0.0000E+00  0.0000E+00  0.0000E+00  0.0000E+00  0.0000E+00  0.0000E+00  0.0000E+00  0.0000E+00  0.0000E+00  0.0000E+00  0.0000E+00  0.0000E+00  0.0000E+00  0.0000E+00  0.0000E+00  0.0000E+00  0.0000E+00
    -53.473  0.0000E+00  0.0000E+00  0.0000E+00  0.0000E+00  0.0000E+00  0.0000E+00  0.0000E+00  0.0000E+00  0.0000E+00  0.0000E+00  0.0000E+00  0.0000E+00  0.0000E+00  0.0000E+00  0.0000E+00  0.0000E+00  0.0000E+00  0.0000E+00
    -53.264  0.0000E+00  0.0000E+00  0.0000E+00  0.0000E+00  0.0000E+00  0.0000E+00  0.0000E+00  0.0000E+00  0.0000E+00  0.0000E+00  0.0000E+00  0.0000E+00  0.0000E+00  0.0000E+00  0.0000E+00  0.0000E+00  0.0000E+00  0.0000E+00
    -53.054  0.0000E+00  0.0000E+00  0.0000E+00  0.0000E+00  0.0000E+00  0.0000E+00  0.0000E+00  0.0000E+00  0.0000E+00  0.0000E+00  0.0000E+00  0.0000E+00  0.0000E+00  0.0000E+00  0.0000E+00  0.0000E+00  0.0000E+00  0.0000E+00
    -52.844  0.0000E+00  0.0000E+00  0.0000E+00  0.0000E+00  0.0000E+00  0.0000E+00  0.0000E+00  0.0000E+00  0.0000E+00  0.0000E+00  0.0000E+00  0.0000E+00  0.0000E+00  0.0000E+00  0.0000E+00  0.0000E+00  0.0000E+00  0.0000E+00
    -52.635  0.0000E+00  0.0000E+00  0.0000E+00  0.0000E+00  0.0000E+00  0.0000E+00  0.0000E+00  0.0000E+00  0.0000E+00  0.0000E+00  0.0000E+00  0.0000E+00  0.0000E+00  0.0000E+00  0.0000E+00  0.0000E+00  0.0000E+00  0.0000E+00
    -52.425  0.0000E+00  0.0000E+00  0.0000E+00  0.0000E+00  0.0000E+00  0.0000E+00  0.0000E+00  0.0000E+00  0.0000E+00  0.0000E+00  0.0000E+00  0.0000E+00  0.0000E+00  0.0000E+00  0.0000E+00  0.0000E+00  0.0000E+00  0.0000E+00
    -52.216  0.0000E+00  0.0000E+00  0.0000E+00  0.0000E+00  0.0000E+00  0.0000E+00  0.0000E+00  0.0000E+00  0.0000E+00  0.0000E+00  0.0000E+00  0.0000E+00  0.0000E+00  0.0000E+00  0.0000E+00  0.0000E+00  0.0000E+00  0.0000E+00
    -52.006  0.5622E-10  0.7783E-11  0.1573E-03  0.9505E-10  0.2073E-05  0.1101E-10  0.3797E-04  0.1881E-09  0.1103E-10  0.1899E-11  0.1528E-10  0.1409E-12  0.3972E-10  0.2466E-11  0.1520E-10  0.8840E-12  0.2311E-10  0.2664E-11
    -51.796  0.1909E-05  0.4411E-06  0.3583E+01  0.2086E-05  0.5354E-01  0.1176E-05  0.8907E+00  0.1848E-04  0.2903E-06  0.6800E-07  0.3597E-06  0.5157E-08  0.1232E-05  0.1294E-06  0.3059E-06  0.8419E-07  0.2414E-05  0.3755E-06
    -51.587  0.5107E-05  0.3270E-06  0.1150E+01  0.3642E-05  0.4629E+01  0.1195E-05  0.3755E+01  0.1351E-04  0.1041E-05  0.1951E-06  0.1905E-05  0.2191E-07  0.1636E-05  0.1057E-06  0.9300E-06  0.7140E-07  0.9545E-05  0.2431E-06
    -51.377  0.5559E-05  0.1676E-05  0.1119E-01  0.1100E-03  0.6354E-01  0.4230E-06  0.4351E-01  0.8243E-05  0.2535E-05  0.5035E-06  0.1342E-06  0.7491E-08  0.2197E-05  0.6968E-06  0.6825E-06  0.1122E-08  0.5995E-05  0.1648E-05
    -51.168  0.1837E-04  0.2276E-05  0.8360E-02  0.1321E-03  0.5373E-02  0.4001E-05  0.3106E-01  0.2926E-04  0.3675E-05  0.6623E-06  0.3190E-06  0.1978E-06  0.5431E-05  0.9295E-06  0.9894E-05  0.4183E-07  0.1888E-04  0.2284E-05
    -50.958  0.5622E-06  0.1867E-07  0.2433E-04  0.1897E-05  0.1035E-03  0.6243E-07  0.4189E-03  0.1005E-06  0.1149E-07  0.2190E-08  0.2801E-08  0.4259E-08  0.1624E-06  0.8049E-08  0.2806E-06  0.2982E-09  0.6550E-06  0.2451E-07
    -50.749  0.5654E-04  0.2345E-05  0.7843E-04  0.2494E-03  0.1562E-02  0.3659E-06  0.3259E-01  0.3894E-05  0.1439E-06  0.1393E-06  0.3137E-08  0.5897E-07  0.1957E-04  0.1020E-05  0.1284E-04  0.1734E-08  0.7150E-04  0.3105E-05
    -50.539  0.1337E-07  0.5547E-09  0.1855E-07  0.5899E-07  0.3696E-06  0.8655E-10  0.7710E-05  0.9212E-09  0.3404E-10  0.3296E-10  0.7421E-12  0.1395E-10  0.4628E-08  0.2412E-09  0.3038E-08  0.4102E-12  0.1691E-07  0.7346E-09
    -50.329  0.0000E+00  0.0000E+00  0.0000E+00  0.0000E+00  0.0000E+00  0.0000E+00  0.0000E+00  0.0000E+00  0.0000E+00  0.0000E+00  0.0000E+00  0.0000E+00  0.0000E+00  0.0000E+00  0.0000E+00  0.0000E+00  0.0000E+00  0.0000E+00
    -50.120  0.0000E+00  0.0000E+00  0.0000E+00  0.0000E+00  0.0000E+00  0.0000E+00  0.0000E+00  0.0000E+00  0.0000E+00  0.0000E+00  0.0000E+00  0.0000E+00  0.0000E+00  0.0000E+00  0.0000E+00  0.0000E+00  0.0000E+00  0.0000E+00
    -49.910  0.0000E+00  0.0000E+00  0.0000E+00  0.0000E+00  0.0000E+00  0.0000E+00  0.0000E+00  0.0000E+00  0.0000E+00  0.0000E+00  0.0000E+00  0.0000E+00  0.0000E+00  0.0000E+00  0.0000E+00  0.0000E+00  0.0000E+00  0.0000E+00
    -49.701  0.0000E+00  0.0000E+00  0.0000E+00  0.0000E+00  0.0000E+00  0.0000E+00  0.0000E+00  0.0000E+00  0.0000E+00  0.0000E+00  0.0000E+00  0.0000E+00  0.0000E+00  0.0000E+00  0.0000E+00  0.0000E+00  0.0000E+00  0.0000E+00
    -49.491  0.2242E-14  0.2515E-13  0.1208E-12  0.5431E-11  0.4222E-15  0.4169E-11  0.1257E-13  0.3437E-10  0.9663E-15  0.5523E-14  0.1516E-16  0.3520E-15  0.8888E-15  0.8191E-14  0.1317E-17  0.4686E-14  0.1908E-14  0.2533E-13
    -49.281  0.1422E-05  0.1595E-04  0.7662E-04  0.3444E-02  0.2678E-06  0.2644E-02  0.7970E-05  0.2180E-01  0.6129E-06  0.3503E-05  0.9615E-08  0.2232E-06  0.5637E-06  0.5195E-05  0.8349E-09  0.2972E-05  0.1210E-05  0.1607E-04
    -49.072  0.2454E-05  0.3045E-04  0.1019E-03  0.2505E-01  0.5784E-05  0.1329E-01  0.4344E-04  0.4248E-01  0.8199E-06  0.4614E-05  0.2667E-06  0.5654E-06  0.9005E-06  0.8365E-05  0.1439E-06  0.1347E-04  0.2376E-05  0.3048E-04
    -48.862  0.1332E-05  0.1608E-04  0.5438E-04  0.1000E+01  0.9102E-06  0.5196E+00  0.3965E-05  0.8404E+00  0.1578E-06  0.4101E-06  0.3585E-07  0.8121E-06  0.5508E-06  0.3319E-05  0.4269E-07  0.1940E-05  0.1378E-05  0.1074E-04
    -48.653  0.3252E-05  0.3124E-04  0.1301E-03  0.3371E+01  0.9193E-06  0.2235E+01  0.5432E-05  0.1786E+01  0.2918E-06  0.5985E-06  0.8737E-07  0.1332E-05  0.1290E-05  0.1270E-04  0.1769E-07  0.7898E-05  0.3544E-05  0.5511E-04
    -48.443  0.1021E-05  0.1640E-04  0.2156E-04  0.3531E+00  0.6538E-06  0.1983E+01  0.2124E-04  0.2064E+01  0.1561E-06  0.4482E-06  0.5891E-08  0.1533E-05  0.3931E-06  0.6161E-05  0.7173E-07  0.3142E-05  0.1418E-05  0.1688E-04
    -48.234  0.5453E-11  0.6672E-10  0.6317E-10  0.1614E-05  0.8125E-11  0.1379E-05  0.2419E-09  0.5085E-05  0.5764E-12  0.2631E-11  0.7782E-14  0.2475E-11  0.1812E-11  0.2580E-10  0.9526E-12  0.9545E-11  0.1322E-10  0.1401E-09
    -48.024  0.0000E+00  0.0000E+00  0.0000E+00  0.0000E+00  0.0000E+00  0.0000E+00  0.0000E+00  0.0000E+00  0.0000E+00  0.0000E+00  0.0000E+00  0.0000E+00  0.0000E+00  0.0000E+00  0.0000E+00  0.0000E+00  0.0000E+00  0.0000E+00
    -47.814  0.0000E+00  0.0000E+00  0.0000E+00  0.0000E+00  0.0000E+00  0.0000E+00  0.0000E+00  0.0000E+00  0.0000E+00  0.0000E+00  0.0000E+00  0.0000E+00  0.0000E+00  0.0000E+00  0.0000E+00  0.0000E+00  0.0000E+00  0.0000E+00
    -47.605  0.0000E+00  0.0000E+00  0.0000E+00  0.0000E+00  0.0000E+00  0.0000E+00  0.0000E+00  0.0000E+00  0.0000E+00  0.0000E+00  0.0000E+00  0.0000E+00  0.0000E+00  0.0000E+00  0.0000E+00  0.0000E+00  0.0000E+00  0.0000E+00
    -47.395  0.0000E+00  0.0000E+00  0.0000E+00  0.0000E+00  0.0000E+00  0.0000E+00  0.0000E+00  0.0000E+00  0.0000E+00  0.0000E+00  0.0000E+00  0.0000E+00  0.0000E+00  0.0000E+00  0.0000E+00  0.0000E+00  0.0000E+00  0.0000E+00
    -47.186  0.0000E+00  0.0000E+00  0.0000E+00  0.0000E+00  0.0000E+00  0.0000E+00  0.0000E+00  0.0000E+00  0.0000E+00  0.0000E+00  0.0000E+00  0.0000E+00  0.0000E+00  0.0000E+00  0.0000E+00  0.0000E+00  0.0000E+00  0.0000E+00
    -46.976  0.0000E+00  0.0000E+00  0.0000E+00  0.0000E+00  0.0000E+00  0.0000E+00  0.0000E+00  0.0000E+00  0.0000E+00  0.0000E+00  0.0000E+00  0.0000E+00  0.0000E+00  0.0000E+00  0.0000E+00  0.0000E+00  0.0000E+00  0.0000E+00
    -46.766  0.0000E+00  0.0000E+00  0.0000E+00  0.0000E+00  0.0000E+00  0.0000E+00  0.0000E+00  0.0000E+00  0.0000E+00  0.0000E+00  0.0000E+00  0.0000E+00  0.0000E+00  0.0000E+00  0.0000E+00  0.0000E+00  0.0000E+00  0.0000E+00
    -46.557  0.0000E+00  0.0000E+00  0.0000E+00  0.0000E+00  0.0000E+00  0.0000E+00  0.0000E+00  0.0000E+00  0.0000E+00  0.0000E+00  0.0000E+00  0.0000E+00  0.0000E+00  0.0000E+00  0.0000E+00  0.0000E+00  0.0000E+00  0.0000E+00
    -46.347  0.0000E+00  0.0000E+00  0.0000E+00  0.0000E+00  0.0000E+00  0.0000E+00  0.0000E+00  0.0000E+00  0.0000E+00  0.0000E+00  0.0000E+00  0.0000E+00  0.0000E+00  0.0000E+00  0.0000E+00  0.0000E+00  0.0000E+00  0.0000E+00
    -46.138  0.0000E+00  0.0000E+00  0.0000E+00  0.0000E+00  0.0000E+00  0.0000E+00  0.0000E+00  0.0000E+00  0.0000E+00  0.0000E+00  0.0000E+00  0.0000E+00  0.0000E+00  0.0000E+00  0.0000E+00  0.0000E+00  0.0000E+00  0.0000E+00
    -45.928  0.0000E+00  0.0000E+00  0.0000E+00  0.0000E+00  0.0000E+00  0.0000E+00  0.0000E+00  0.0000E+00  0.0000E+00  0.0000E+00  0.0000E+00  0.0000E+00  0.0000E+00  0.0000E+00  0.0000E+00  0.0000E+00  0.0000E+00  0.0000E+00
    -45.719  0.0000E+00  0.0000E+00  0.0000E+00  0.0000E+00  0.0000E+00  0.0000E+00  0.0000E+00  0.0000E+00  0.0000E+00  0.0000E+00  0.0000E+00  0.0000E+00  0.0000E+00  0.0000E+00  0.0000E+00  0.0000E+00  0.0000E+00  0.0000E+00
    -45.509  0.0000E+00  0.0000E+00  0.0000E+00  0.0000E+00  0.0000E+00  0.0000E+00  0.0000E+00  0.0000E+00  0.0000E+00  0.0000E+00  0.0000E+00  0.0000E+00  0.0000E+00  0.0000E+00  0.0000E+00  0.0000E+00  0.0000E+00  0.0000E+00
    -45.299  0.0000E+00  0.0000E+00  0.0000E+00  0.0000E+00  0.0000E+00  0.0000E+00  0.0000E+00  0.0000E+00  0.0000E+00  0.0000E+00  0.0000E+00  0.0000E+00  0.0000E+00  0.0000E+00  0.0000E+00  0.0000E+00  0.0000E+00  0.0000E+00
    -45.090  0.0000E+00  0.0000E+00  0.0000E+00  0.0000E+00  0.0000E+00  0.0000E+00  0.0000E+00  0.0000E+00  0.0000E+00  0.0000E+00  0.0000E+00  0.0000E+00  0.0000E+00  0.0000E+00  0.0000E+00  0.0000E+00  0.0000E+00  0.0000E+00
    -44.880  0.0000E+00  0.0000E+00  0.0000E+00  0.0000E+00  0.0000E+00  0.0000E+00  0.0000E+00  0.0000E+00  0.0000E+00  0.0000E+00  0.0000E+00  0.0000E+00  0.0000E+00  0.0000E+00  0.0000E+00  0.0000E+00  0.0000E+00  0.0000E+00
    -44.671  0.0000E+00  0.0000E+00  0.0000E+00  0.0000E+00  0.0000E+00  0.0000E+00  0.0000E+00  0.0000E+00  0.0000E+00  0.0000E+00  0.0000E+00  0.0000E+00  0.0000E+00  0.0000E+00  0.0000E+00  0.0000E+00  0.0000E+00  0.0000E+00
    -44.461  0.0000E+00  0.0000E+00  0.0000E+00  0.0000E+00  0.0000E+00  0.0000E+00  0.0000E+00  0.0000E+00  0.0000E+00  0.0000E+00  0.0000E+00  0.0000E+00  0.0000E+00  0.0000E+00  0.0000E+00  0.0000E+00  0.0000E+00  0.0000E+00
    -44.251  0.0000E+00  0.0000E+00  0.0000E+00  0.0000E+00  0.0000E+00  0.0000E+00  0.0000E+00  0.0000E+00  0.0000E+00  0.0000E+00  0.0000E+00  0.0000E+00  0.0000E+00  0.0000E+00  0.0000E+00  0.0000E+00  0.0000E+00  0.0000E+00