       N       E                     dE             d eps       ncg     rms          rms(c)
DAV:   1     0.190994634821E+04    0.19099E+04   -0.89476E+04 98064   0.200E+03
DAV:   2     0.995812110282E+02   -0.18104E+04   -0.17809E+04 86616   0.567E+02
DAV:   3    -0.930014721782E+02   -0.19258E+03   -0.18667E+03126600   0.178E+02
DAV:   4    -0.105681197777E+03   -0.12680E+02   -0.12602E+02123984   0.468E+01
DAV:   5    -0.106088391571E+03   -0.40719E+00   -0.40595E+00115872   0.808E+00    0.292E+01
RMM:   6    -0.123561547880E+03   -0.17473E+02   -0.23056E+02 84958   0.100E+02    0.625E+01
RMM:   7    -0.103167947409E+03    0.20394E+02   -0.65423E+01 85567   0.566E+01    0.390E+01
RMM:   8    -0.955571974375E+02    0.76107E+01   -0.82253E+00 86750   0.190E+01    0.103E+01
RMM:   9    -0.959878263479E+02   -0.43063E+00   -0.31332E+00118386   0.519E+00    0.720E+00
RMM:  10    -0.962085507145E+02   -0.22072E+00   -0.10627E+00100703   0.454E+00    0.988E+00
RMM:  11    -0.960900200604E+02    0.11853E+00   -0.56431E-01 98443   0.354E+00    0.449E+00
RMM:  12    -0.960592898413E+02    0.30730E-01   -0.30757E-01113264   0.223E+00    0.197E+00
RMM:  13    -0.960853063568E+02   -0.26017E-01   -0.15637E-01124686   0.105E+00    0.191E+00
RMM:  14    -0.960793342223E+02    0.59721E-02   -0.38948E-02113895   0.769E-01    0.291E-01
RMM:  15    -0.960820369369E+02   -0.27027E-02   -0.18613E-02118827   0.344E-01    0.445E-01
RMM:  16    -0.960821108747E+02   -0.73938E-04   -0.47929E-03 92040   0.213E-01    0.173E-01
RMM:  17    -0.960822826687E+02   -0.17179E-03   -0.20070E-03 68366   0.136E-01    0.799E-02
RMM:  18    -0.960823698083E+02   -0.87140E-04   -0.80623E-04 57605   0.955E-02
   1 F= -.10189001E+03 E0= -.10188265E+03  d E =-.101890E+03  mag=     0.0000
       N       E                     dE             d eps       ncg     rms          rms(c)
DAV:   1    -0.964109340050E+02   -0.32865E+00   -0.15585E+01117168   0.352E+01    0.773E+00
RMM:   2    -0.999789125309E+02   -0.35680E+01   -0.67013E+00 92479   0.173E+01    0.304E+01
RMM:   3    -0.962129922317E+02    0.37659E+01   -0.33170E+00 87372   0.144E+01    0.515E+00
RMM:   4    -0.961769618418E+02    0.36030E-01   -0.54571E-01 95546   0.484E+00    0.237E+00
RMM:   5    -0.962936709233E+02   -0.11671E+00   -0.29575E-01 91030   0.357E+00    0.697E+00
RMM:   6    -0.961794897539E+02    0.11418E+00   -0.10455E-01 95452   0.219E+00    0.269E+00
RMM:   7    -0.961853475728E+02   -0.58578E-02   -0.36333E-02113463   0.873E-01    0.250E+00
RMM:   8    -0.961707889379E+02    0.14559E-01   -0.34880E-02108048   0.689E-01    0.687E-01
RMM:   9    -0.961714776746E+02   -0.68874E-03   -0.12400E-02111848   0.391E-01    0.322E-01
RMM:  10    -0.961716100281E+02   -0.13235E-03   -0.35701E-03100176   0.227E-01    0.180E-01
RMM:  11    -0.961717103811E+02   -0.10035E-03   -0.14488E-03 75693   0.160E-01
   2 F= -.10185396E+03 E0= -.10184765E+03  d E =0.360496E-01  mag=     0.0000
       N       E                     dE             d eps       ncg     rms          rms(c)
DAV:   1    -0.961919101482E+02   -0.20300E-01   -0.45117E+00110784   0.188E+01    0.375E+00
RMM:   2    -0.971111354357E+02   -0.91923E+00   -0.18181E+00 89716   0.915E+00    0.193E+01
RMM:   3    -0.961403502468E+02    0.97079E+00   -0.74609E-01 87616   0.680E+00    0.254E+00
RMM:   4    -0.962626784490E+02   -0.12233E+00   -0.24081E-01 97890   0.296E+00    0.594E+00
RMM:   5    -0.961316831555E+02    0.13100E+00   -0.11981E-01 87502   0.250E+00    0.129E+00
RMM:   6    -0.961275582775E+02    0.41249E-02   -0.29367E-02 90398   0.116E+00    0.420E-01
RMM:   7    -0.961276048011E+02   -0.46524E-04   -0.11050E-02112525   0.479E-01    0.406E-01
RMM:   8    -0.961270196464E+02    0.58515E-03   -0.32406E-03 89848   0.274E-01    0.169E-01
RMM:   9    -0.961269962727E+02    0.23374E-04   -0.15893E-03 79341   0.156E-01
   3 F= -.10192840E+03 E0= -.10192154E+03  d E =-.383954E-01  mag=     0.0000
       N       E                     dE             d eps       ncg     rms          rms(c)
DAV:   1    -0.961082752333E+02    0.18744E-01   -0.11393E+00 92304   0.159E+01    0.153E+00
RMM:   2    -0.962315189503E+02   -0.12324E+00   -0.57145E-01109403   0.459E+00    0.579E+00
RMM:   3    -0.961448400501E+02    0.86679E-01   -0.18606E-01 93032   0.312E+00    0.121E+00
RMM:   4    -0.961596406737E+02   -0.14801E-01   -0.59636E-02115658   0.131E+00    0.228E+00
RMM:   5    -0.961428417467E+02    0.16799E-01   -0.19291E-02 89763   0.931E-01    0.504E-01
RMM:   6    -0.961425162663E+02    0.32548E-03   -0.66891E-03 89075   0.503E-01    0.260E-01
RMM:   7    -0.961422878892E+02    0.22838E-03   -0.22151E-03 76971   0.273E-01    0.184E-01
RMM:   8    -0.961422331304E+02    0.54759E-04   -0.15267E-03 80417   0.152E-01
   4 F= -.10195709E+03 E0= -.10195045E+03  d E =-.286924E-01  mag=    -0.0000
       N       E                     dE             d eps       ncg     rms          rms(c)
DAV:   1    -0.959784065820E+02    0.16388E+00   -0.61982E+00 84912   0.373E+01    0.365E+00
RMM:   2    -0.966668294977E+02   -0.68842E+00   -0.32133E+00109272   0.109E+01    0.132E+01
RMM:   3    -0.961836340573E+02    0.48320E+00   -0.10499E+00 92404   0.741E+00    0.292E+00
RMM:   4    -0.962203705827E+02   -0.36737E-01   -0.30027E-01121590   0.288E+00    0.396E+00
RMM:   5    -0.961787082084E+02    0.41662E-01   -0.89260E-02 91726   0.194E+00    0.178E+00
RMM:   6    -0.961715557209E+02    0.71525E-02   -0.36751E-02 88903   0.125E+00    0.822E-01
RMM:   7    -0.961702992340E+02    0.12565E-02   -0.12221E-02 95678   0.613E-01    0.612E-01
RMM:   8    -0.961695082794E+02    0.79095E-03   -0.86304E-03110357   0.319E-01    0.234E-01
RMM:   9    -0.961695161978E+02   -0.79184E-05   -0.25836E-03 91099   0.207E-01    0.948E-02
RMM:  10    -0.961695216358E+02   -0.54381E-05   -0.58425E-04 57002   0.114E-01
   5 F= -.10199436E+03 E0= -.10198823E+03  d E =-.659573E-01  mag=    -0.0000
       N       E                     dE             d eps       ncg     rms          rms(c)
DAV:   1    -0.954295234998E+02    0.73999E+00   -0.24860E+01 84864   0.745E+01    0.760E+00
RMM:   2    -0.983957144637E+02   -0.29662E+01   -0.13543E+01110836   0.223E+01    0.259E+01
RMM:   3    -0.962559109129E+02    0.21398E+01   -0.43797E+00 91865   0.153E+01    0.631E+00
RMM:   4    -0.961903230624E+02    0.65588E-01   -0.10234E+00124405   0.529E+00    0.180E+00
RMM:   5    -0.961953126586E+02   -0.49896E-02   -0.21243E-01 91724   0.289E+00    0.219E+00
RMM:   6    -0.962147474404E+02   -0.19435E-01   -0.90721E-02 97156   0.184E+00    0.315E+00
RMM:   7    -0.961908827221E+02    0.23865E-01   -0.32393E-02 96350   0.107E+00    0.149E+00
RMM:   8    -0.961849424571E+02    0.59403E-02   -0.29035E-02108129   0.668E-01    0.511E-01
RMM:   9    -0.961851769927E+02   -0.23454E-03   -0.12626E-02109215   0.376E-01    0.254E-01
RMM:  10    -0.961852648720E+02   -0.87879E-04   -0.29157E-03 93280   0.219E-01    0.132E-01
RMM:  11    -0.961853526302E+02   -0.87758E-04   -0.93554E-04 64510   0.118E-01
   6 F= -.10201302E+03 E0= -.10200816E+03  d E =-.846139E-01  mag=    -0.0000
       N       E                     dE             d eps       ncg     rms          rms(c)
DAV:   1    -0.961948192686E+02   -0.95544E-02   -0.22781E+00 92064   0.173E+01    0.208E+00
RMM:   2    -0.962687969615E+02   -0.73978E-01   -0.74670E-01111173   0.549E+00    0.438E+00
RMM:   3    -0.962362181029E+02    0.32579E-01   -0.24474E-01 94780   0.357E+00    0.257E+00
RMM:   4    -0.962213406074E+02    0.14877E-01   -0.78865E-02 94197   0.184E+00    0.135E+00
RMM:   5    -0.962314212668E+02   -0.10081E-01   -0.47126E-02 97095   0.135E+00    0.233E+00
RMM:   6    -0.962139774734E+02    0.17444E-01   -0.22230E-02 86610   0.101E+00    0.397E-01
RMM:   7    -0.962141790134E+02   -0.20154E-03   -0.72529E-03110601   0.305E-01    0.242E-01
RMM:   8    -0.962138716169E+02    0.30740E-03   -0.14285E-03 74752   0.168E-01    0.100E-01
RMM:   9    -0.962138696273E+02    0.19896E-05   -0.66713E-04 58582   0.112E-01
   7 F= -.10204208E+03 E0= -.10203761E+03  d E =-.290675E-01  mag=    -0.0000
       N       E                     dE             d eps       ncg     rms          rms(c)
DAV:   1    -0.960814759335E+02    0.13240E+00   -0.20349E+01 85056   0.521E+01    0.641E+00
RMM:   2    -0.968376120170E+02   -0.75614E+00   -0.71457E+00112241   0.169E+01    0.138E+01
RMM:   3    -0.964911182922E+02    0.34649E+00   -0.23277E+00 93496   0.111E+01    0.799E+00
RMM:   4    -0.962956020766E+02    0.19552E+00   -0.70150E-01 91163   0.560E+00    0.203E+00
RMM:   5    -0.962708733223E+02    0.24729E-01   -0.26790E-01100629   0.323E+00    0.168E+00
RMM:   6    -0.963032999118E+02   -0.32427E-01   -0.14031E-01111156   0.182E+00    0.318E+00
RMM:   7    -0.962683825609E+02    0.34917E-01   -0.32765E-02 92162   0.113E+00    0.774E-01
RMM:   8    -0.962666199644E+02    0.17626E-02   -0.20716E-02115057   0.527E-01    0.308E-01
RMM:   9    -0.962666488068E+02   -0.28842E-04   -0.59533E-03104374   0.276E-01    0.127E-01
RMM:  10    -0.962667367762E+02   -0.87969E-04   -0.15899E-03 75771   0.156E-01
   8 F= -.10209372E+03 E0= -.10208996E+03  d E =-.807082E-01  mag=    -0.0000
       N       E                     dE             d eps       ncg     rms          rms(c)
DAV:   1    -0.962637353904E+02    0.29134E-02   -0.11400E+00104352   0.121E+01    0.144E+00
RMM:   2    -0.962932695507E+02   -0.29534E-01   -0.34948E-01112121   0.374E+00    0.275E+00
RMM:   3    -0.962841059485E+02    0.91636E-02   -0.11621E-01 95044   0.246E+00    0.189E+00
RMM:   4    -0.962743085404E+02    0.97974E-02   -0.38500E-02 91535   0.131E+00    0.735E-01
RMM:   5    -0.962803513505E+02   -0.60428E-02   -0.22471E-02 96943   0.935E-01    0.162E+00
RMM:   6    -0.962716789653E+02    0.86724E-02   -0.10592E-02 84722   0.691E-01    0.282E-01
RMM:   7    -0.962717763957E+02   -0.97430E-04   -0.37494E-03 97971   0.214E-01    0.157E-01
RMM:   8    -0.962716299719E+02    0.14642E-03   -0.71787E-04 59920   0.138E-01
   9 F= -.10209487E+03 E0= -.10209118E+03  d E =-.818506E-01  mag=    -0.0000
       N       E                     dE             d eps       ncg     rms          rms(c)
DAV:   1    -0.962784888519E+02   -0.67125E-02   -0.72940E-01109416   0.149E+01    0.881E-01
RMM:   2    -0.963121424097E+02   -0.33654E-01   -0.32015E-01120354   0.304E+00    0.173E+00
RMM:   3    -0.963128344096E+02   -0.69200E-03   -0.81418E-02101262   0.190E+00    0.117E+00
RMM:   4    -0.963099072027E+02    0.29272E-02   -0.22178E-02111704   0.830E-01    0.226E-01
RMM:   5    -0.963104276556E+02   -0.52045E-03   -0.59172E-03 98075   0.386E-01    0.484E-01
RMM:   6    -0.963099376518E+02    0.49000E-03   -0.18688E-03 74473   0.278E-01    0.251E-01
RMM:   7    -0.963096497110E+02    0.28794E-03   -0.90058E-04 66793   0.174E-01    0.840E-02
RMM:   8    -0.963096273927E+02    0.22318E-04   -0.41802E-04 52739   0.105E-01
  10 F= -.10211311E+03 E0= -.10210941E+03  d E =-.182394E-01  mag=     0.0000
       N       E                     dE             d eps       ncg     rms          rms(c)
DAV:   1    -0.963112297854E+02   -0.15801E-02   -0.15788E-03109536   0.691E-01    0.473E-02
RMM:   2    -0.963113886931E+02   -0.15891E-03   -0.87400E-04 74735   0.154E-01
  11 F= -.10211323E+03 E0= -.10210957E+03  d E =-.183668E-01  mag=     0.0000
       N       E                     dE             d eps       ncg     rms          rms(c)
DAV:   1    -0.963108316910E+02    0.39809E-03   -0.18023E-01110184   0.783E+00    0.380E-01
RMM:   2    -0.963203297800E+02   -0.94981E-02   -0.84751E-02118709   0.140E+00    0.789E-01
RMM:   3    -0.963207773909E+02   -0.44761E-03   -0.18218E-02 93393   0.887E-01    0.552E-01
RMM:   4    -0.963203095619E+02    0.46783E-03   -0.42851E-03108649   0.305E-01    0.158E-01
RMM:   5    -0.963204582610E+02   -0.14870E-03   -0.87209E-04 64505   0.179E-01
  12 F= -.10212284E+03 E0= -.10211915E+03  d E =-.960907E-02  mag=     0.0000
       N       E                     dE             d eps       ncg     rms          rms(c)
DAV:   1    -0.962610596603E+02    0.59250E-01   -0.15955E+00109248   0.235E+01    0.118E+00
RMM:   2    -0.963589702818E+02   -0.97911E-01   -0.76154E-01119115   0.430E+00    0.315E+00
RMM:   3    -0.963453586899E+02    0.13612E-01   -0.17291E-01 97601   0.275E+00    0.136E+00
RMM:   4    -0.963447890426E+02    0.56965E-03   -0.41533E-02127501   0.905E-01    0.581E-01
RMM:   5    -0.963453010008E+02   -0.51196E-03   -0.81042E-03 89001   0.515E-01    0.682E-01
RMM:   6    -0.963433013262E+02    0.19997E-02   -0.23348E-03 77583   0.296E-01    0.171E-01
RMM:   7    -0.963432266200E+02    0.74706E-04   -0.20706E-03 82993   0.211E-01    0.129E-01
RMM:   8    -0.963431635499E+02    0.63070E-04   -0.63847E-04 60056   0.144E-01
  13 F= -.10211811E+03 E0= -.10211443E+03  d E =-.487289E-02  mag=     0.0000
       N       E                     dE             d eps       ncg     rms          rms(c)
DAV:   1    -0.962904231673E+02    0.52803E-01   -0.72936E-01108960   0.158E+01    0.797E-01
RMM:   2    -0.963325342813E+02   -0.42111E-01   -0.34389E-01118830   0.289E+00    0.200E+00
RMM:   3    -0.963296178053E+02    0.29165E-02   -0.77940E-02 99175   0.182E+00    0.973E-01
RMM:   4    -0.963287897671E+02    0.82804E-03   -0.18154E-02123442   0.606E-01    0.331E-01
RMM:   5    -0.963292884101E+02   -0.49864E-03   -0.35617E-03 83114   0.341E-01    0.491E-01
RMM:   6    -0.963282808987E+02    0.10075E-02   -0.10280E-03 68464   0.217E-01    0.863E-02
RMM:   7    -0.963282780873E+02    0.28113E-05   -0.10350E-03 71514   0.117E-01
  14 F= -.10212849E+03 E0= -.10212482E+03  d E =-.152600E-01  mag=     0.0000
       N       E                     dE             d eps       ncg     rms          rms(c)
DAV:   1    -0.963198818832E+02    0.83990E-02   -0.40719E-02106992   0.163E+00    0.289E-01
RMM:   2    -0.963217096724E+02   -0.18278E-02   -0.81165E-03101658   0.598E-01    0.911E-01
RMM:   3    -0.963194342974E+02    0.22754E-02   -0.35257E-03 79835   0.453E-01    0.237E-01
RMM:   4    -0.963194762125E+02   -0.41915E-04   -0.14632E-03 71586   0.263E-01
  15 F= -.10213304E+03 E0= -.10212935E+03  d E =-.454642E-02  mag=    -0.0000
       N       E                     dE             d eps       ncg     rms          rms(c)
DAV:   1    -0.963176565197E+02    0.17778E-02   -0.74493E-03128832   0.744E-01    0.267E-01
RMM:   2    -0.963291221332E+02   -0.11466E-01   -0.14879E-02 84237   0.748E-01    0.182E+00
RMM:   3    -0.963173212754E+02    0.11801E-01   -0.69102E-03 79156   0.634E-01    0.129E-01
RMM:   4    -0.963174476994E+02   -0.12642E-03   -0.61562E-04 59997   0.151E-01
  16 F= -.10213292E+03 E0= -.10212920E+03  d E =-.442720E-02  mag=    -0.0000
