       N       E                     dE             d eps       ncg     rms          rms(c)
DAV:   1     0.191416140845E+04    0.19142E+04   -0.89252E+04 98616   0.199E+03
DAV:   2     0.100163035723E+03   -0.18140E+04   -0.17846E+04 86664   0.567E+02
DAV:   3    -0.933153217890E+02   -0.19348E+03   -0.18763E+03126168   0.178E+02
DAV:   4    -0.106016033624E+03   -0.12701E+02   -0.12638E+02124176   0.470E+01
DAV:   5    -0.106408856470E+03   -0.39282E+00   -0.39241E+00114888   0.802E+00    0.297E+01
RMM:   6    -0.128329448771E+03   -0.21921E+02   -0.24325E+02 88512   0.102E+02    0.690E+01
RMM:   7    -0.107050040591E+03    0.21279E+02   -0.78348E+01 85304   0.614E+01    0.387E+01
RMM:   8    -0.955693455671E+02    0.11481E+02   -0.12381E+01 85836   0.251E+01    0.836E+00
RMM:   9    -0.962151685939E+02   -0.64582E+00   -0.31569E+00131549   0.542E+00    0.742E+00
RMM:  10    -0.962972270256E+02   -0.82058E-01   -0.95717E-01115410   0.405E+00    0.778E+00
RMM:  11    -0.963127237524E+02   -0.15497E-01   -0.55499E-01114819   0.341E+00    0.514E+00
RMM:  12    -0.962792315715E+02    0.33492E-01   -0.29767E-01127512   0.217E+00    0.176E+00
RMM:  13    -0.963084302118E+02   -0.29199E-01   -0.16113E-01137559   0.134E+00    0.982E-01
RMM:  14    -0.963136278968E+02   -0.51977E-02   -0.48247E-02138774   0.626E-01    0.474E-01
RMM:  15    -0.963142912319E+02   -0.66334E-03   -0.13546E-02124808   0.305E-01    0.261E-01
RMM:  16    -0.963145579199E+02   -0.26669E-03   -0.48975E-03104627   0.188E-01    0.101E-01
RMM:  17    -0.963147728875E+02   -0.21497E-03   -0.19462E-03 78944   0.116E-01    0.973E-02
RMM:  18    -0.963148774143E+02   -0.10453E-03   -0.83642E-04 69166   0.853E-02
   1 F= -.10213035E+03 E0= -.10213035E+03  d E =0.000000E+00  mag=     0.0000
