 running   24 mpi-ranks, on    1 nodes
 distrk:  each k-point on   24 cores,    1 groups
 distr:  one band on    1 cores,   24 groups
 vasp.6.4.1 05Apr23 (build Jun 01 2023 13:46:15) complex                        
  
 POSCAR found type information on POSCAR FeSe
 POSCAR found :  2 types and      16 ions
 Reading from existing POTCAR
 scaLAPACK will be used
 -----------------------------------------------------------------------------
|                                                                             |
|           W    W    AA    RRRRR   N    N  II  N    N   GGGG   !!!           |
|           W    W   A  A   R    R  NN   N  II  NN   N  G    G  !!!           |
|           W    W  A    A  R    R  N N  N  II  N N  N  G       !!!           |
|           W WW W  AAAAAA  RRRRR   N  N N  II  N  N N  G  GGG   !            |
|           WW  WW  A    A  R   R   N   NN  II  N   NN  G    G                |
|           W    W  A    A  R    R  N    N  II  N    N   GGGG   !!!           |
|                                                                             |
|     For optimal performance we recommend to set                             |
|       NCORE = 2 up to number-of-cores-per-socket                            |
|     NCORE specifies how many cores store one orbital (NPAR=cpu/NCORE).      |
|     This setting can greatly improve the performance of VASP for DFT.       |
|     The default, NCORE=1 might be grossly inefficient on modern             |
|     multi-core architectures or massively parallel machines. Do your        |
|     own testing! More info at https://www.vasp.at/wiki/index.php/NCORE      |
|     Unfortunately you need to use the default for GW and RPA                |
|     calculations (for HF NCORE is supported but not extensively tested      |
|     yet).                                                                   |
|                                                                             |
 -----------------------------------------------------------------------------

 Reading from existing POTCAR
 LDA part: xc-table for Pade appr. of Perdew
 POSCAR, INCAR and KPOINTS ok, starting setup
 FFT: planning ... GRIDC
 FFT: planning ... GRID_SOFT
 FFT: planning ... GRID
 WAVECAR not read
 entering main loop
       N       E                     dE             d eps       ncg     rms          rms(c)
DAV:   1     0.196833002350E+04    0.19683E+04   -0.91543E+04 97224   0.199E+03
DAV:   2     0.123924435907E+03   -0.18444E+04   -0.18161E+04 85104   0.573E+02
DAV:   3    -0.796791282806E+02   -0.20360E+03   -0.19858E+03118416   0.185E+02
DAV:   4    -0.928642491021E+02   -0.13185E+02   -0.13096E+02117936   0.500E+01
DAV:   5    -0.933151055026E+02   -0.45086E+00   -0.45015E+00117984   0.884E+00    0.393E+01
RMM:   6    -0.113619951579E+03   -0.20305E+02   -0.18404E+02 84984   0.901E+01    0.497E+01
RMM:   7    -0.917334263573E+02    0.21887E+02   -0.46070E+01 85662   0.524E+01    0.311E+01
RMM:   8    -0.938539280354E+02   -0.21205E+01   -0.14073E+01 89141   0.224E+01    0.348E+01
RMM:   9    -0.895563074390E+02    0.42976E+01   -0.89931E+00 91014   0.179E+01    0.138E+01
RMM:  10    -0.902222380727E+02   -0.66593E+00   -0.56132E+00100152   0.107E+01    0.106E+01
RMM:  11    -0.899165829533E+02    0.30566E+00   -0.21145E+00 96253   0.742E+00    0.680E+00
RMM:  12    -0.900163193279E+02   -0.99736E-01   -0.10072E+00112016   0.391E+00    0.291E+00
RMM:  13    -0.900381412785E+02   -0.21822E-01   -0.37095E-01124331   0.179E+00    0.819E-01
RMM:  14    -0.900469452288E+02   -0.88040E-02   -0.94193E-02130370   0.100E+00    0.563E-01
RMM:  15    -0.900501471949E+02   -0.32020E-02   -0.20674E-02119289   0.463E-01    0.285E-01
RMM:  16    -0.900506543637E+02   -0.50717E-03   -0.70012E-03104788   0.253E-01    0.108E-01
RMM:  17    -0.900510029874E+02   -0.34862E-03   -0.22380E-03 75947   0.137E-01    0.665E-02
RMM:  18    -0.900510556519E+02   -0.52664E-04   -0.63070E-04 56876   0.108E-01
   1 F= -.95065162E+02 E0= -.95054433E+02  d E =-.950652E+02  mag=     0.0000
 curvature:   0.00 expect dE= 0.000E+00 dE for cont linesearch  0.000E+00
 trial: gam= 0.00000 g(F)=  0.190E+00 g(S)=  0.704E+00 ort = 0.000E+00 (trialstep = 0.100E+01)
 search vector abs. value=  0.894E+00
 bond charge predicted
       N       E                     dE             d eps       ncg     rms          rms(c)
DAV:   1    -0.946522974786E+02   -0.46013E+01   -0.12145E+02101760   0.582E+01    0.149E+01
RMM:   2    -0.922306293579E+02    0.24217E+01   -0.94393E+00 98859   0.218E+01    0.141E+01
RMM:   3    -0.920373300855E+02    0.19330E+00   -0.60320E+00 90467   0.175E+01    0.150E+01
RMM:   4    -0.925401450643E+02   -0.50281E+00   -0.47159E+00 92928   0.142E+01    0.193E+01
RMM:   5    -0.906565904780E+02    0.18836E+01   -0.18690E+00 88334   0.100E+01    0.288E+00
RMM:   6    -0.907418323181E+02   -0.85242E-01   -0.53162E-01120200   0.286E+00    0.318E+00
RMM:   7    -0.907311731941E+02    0.10659E-01   -0.11048E-01102099   0.172E+00    0.216E+00
RMM:   8    -0.907117810259E+02    0.19392E-01   -0.48763E-02 92814   0.127E+00    0.674E-01
RMM:   9    -0.907144002572E+02   -0.26192E-02   -0.40843E-02117330   0.652E-01    0.347E-01
RMM:  10    -0.907150639969E+02   -0.66374E-03   -0.83825E-03112373   0.342E-01    0.172E-01
RMM:  11    -0.907153093469E+02   -0.24535E-03   -0.19408E-03 81996   0.170E-01    0.938E-02
RMM:  12    -0.907153763704E+02   -0.67023E-04   -0.45829E-04 54737   0.104E-01
   2 F= -.95717259E+02 E0= -.95707724E+02  d E =-.652097E+00  mag=     0.0000
 trial-energy change:   -0.652097  1 .order   -0.658551   -0.893903   -0.423199
 step:   2.0853(harm=  1.8991)  dis= 0.07553  next Energy=   -95.938651 (dE=-0.873E+00)
 bond charge predicted
       N       E                     dE             d eps       ncg     rms          rms(c)
DAV:   1    -0.953845394439E+02   -0.46692E+01   -0.13820E+02 95472   0.622E+01    0.157E+01
RMM:   2    -0.922993145130E+02    0.30852E+01   -0.94302E+00102307   0.212E+01    0.127E+01
RMM:   3    -0.923467426866E+02   -0.47428E-01   -0.70925E+00 91264   0.185E+01    0.155E+01
RMM:   4    -0.926157423008E+02   -0.26900E+00   -0.54019E+00 92831   0.149E+01    0.205E+01
RMM:   5    -0.911262857433E+02    0.14895E+01   -0.21217E+00 86926   0.105E+01    0.847E+00
RMM:   6    -0.909797393129E+02    0.14655E+00   -0.67062E-01 92248   0.493E+00    0.372E+00
RMM:   7    -0.909697161744E+02    0.10023E-01   -0.22364E-01113000   0.232E+00    0.265E+00
RMM:   8    -0.909435930115E+02    0.26123E-01   -0.75930E-02102210   0.133E+00    0.676E-01
RMM:   9    -0.909473978255E+02   -0.38048E-02   -0.40020E-02119633   0.679E-01    0.343E-01
RMM:  10    -0.909482359922E+02   -0.83817E-03   -0.82171E-03113687   0.356E-01    0.270E-01
RMM:  11    -0.909484281442E+02   -0.19215E-03   -0.22249E-03 85980   0.205E-01    0.139E-01
RMM:  12    -0.909484873961E+02   -0.59252E-04   -0.69508E-04 59577   0.111E-01
   3 F= -.95943162E+02 E0= -.95933439E+02  d E =-.878000E+00  mag=     0.0000
 curvature:  -0.91 expect dE=-0.718E+00 dE for cont linesearch -0.217E-06
 trial: gam= 0.88408 g(F)=  0.595E+00 g(S)=  0.195E+00 ort =-0.462E-03 (trialstep = 0.731E+00)
 search vector abs. value=  0.149E+01
 bond charge predicted
       N       E                     dE             d eps       ncg     rms          rms(c)
DAV:   1    -0.911193027231E+02   -0.17087E+00   -0.44228E+01 97776   0.533E+01    0.569E+00
RMM:   2    -0.915072650534E+02   -0.38796E+00   -0.65439E+00116144   0.167E+01    0.740E+00
RMM:   3    -0.915066459201E+02    0.61913E-03   -0.23349E+00102044   0.103E+01    0.674E+00
RMM:   4    -0.914891723683E+02    0.17474E-01   -0.96296E-01111304   0.560E+00    0.498E+00
RMM:   5    -0.914331400122E+02    0.56032E-01   -0.34081E-01 93829   0.368E+00    0.410E+00
RMM:   6    -0.913577828376E+02    0.75357E-01   -0.15508E-01 95958   0.256E+00    0.999E-01
RMM:   7    -0.913563245560E+02    0.14583E-02   -0.56539E-02124856   0.906E-01    0.432E-01
RMM:   8    -0.913555553876E+02    0.76917E-03   -0.11997E-02113560   0.382E-01    0.225E-01
RMM:   9    -0.913556990793E+02   -0.14369E-03   -0.39779E-03104391   0.222E-01    0.935E-02
RMM:  10    -0.913556995482E+02   -0.46894E-06   -0.75185E-04 61069   0.132E-01
   4 F= -.96343423E+02 E0= -.96333506E+02  d E =-.400261E+00  mag=     0.0000
 trial-energy change:   -0.400261  1 .order   -0.402234   -0.577293   -0.227175
 step:   1.2345(harm=  1.2058)  dis= 0.11152  next Energy=   -96.420944 (dE=-0.478E+00)
 bond charge predicted
       N       E                     dE             d eps       ncg     rms          rms(c)
DAV:   1    -0.913200206496E+02    0.35678E-01   -0.20896E+01 96000   0.367E+01    0.385E+00
RMM:   2    -0.914941182922E+02   -0.17410E+00   -0.30978E+00117229   0.116E+01    0.447E+00
RMM:   3    -0.915050997294E+02   -0.10981E-01   -0.10621E+00105034   0.694E+00    0.405E+00
RMM:   4    -0.914887440834E+02    0.16356E-01   -0.43547E-01106604   0.393E+00    0.285E+00
RMM:   5    -0.914500076261E+02    0.38736E-01   -0.13494E-01100398   0.233E+00    0.168E+00
RMM:   6    -0.914481619792E+02    0.18456E-02   -0.55095E-02105211   0.122E+00    0.118E+00
RMM:   7    -0.914426880835E+02    0.54739E-02   -0.16933E-02100719   0.677E-01    0.267E-01
RMM:   8    -0.914425434906E+02    0.14459E-03   -0.85483E-03105691   0.312E-01    0.162E-01
RMM:   9    -0.914426652674E+02   -0.12178E-03   -0.25200E-03 93622   0.185E-01    0.526E-02
RMM:  10    -0.914426633558E+02    0.19116E-05   -0.42550E-04 54330   0.108E-01
   5 F= -.96426673E+02 E0= -.96416007E+02  d E =-.483511E+00  mag=    -0.0000
 curvature:  -1.13 expect dE=-0.170E+00 dE for cont linesearch -0.330E-03
 trial: gam= 0.18788 g(F)=  0.188E-01 g(S)=  0.132E+00 ort = 0.208E-01 (trialstep = 0.832E+00)
 search vector abs. value=  0.211E+00
 bond charge predicted
       N       E                     dE             d eps       ncg     rms          rms(c)
DAV:   1    -0.918368684342E+02   -0.39420E+00   -0.16113E+01100872   0.335E+01    0.571E+00
RMM:   2    -0.918723432814E+02   -0.35475E-01   -0.29721E+00110210   0.121E+01    0.717E+00
RMM:   3    -0.917076800317E+02    0.16466E+00   -0.13850E+00 91908   0.897E+00    0.550E+00
RMM:   4    -0.917573007999E+02   -0.49621E-01   -0.54044E-01 93976   0.496E+00    0.631E+00
RMM:   5    -0.915895791026E+02    0.16772E+00   -0.23947E-01 89147   0.343E+00    0.201E+00
RMM:   6    -0.915884945382E+02    0.10846E-02   -0.10244E-01105879   0.173E+00    0.984E-01
RMM:   7    -0.915843629409E+02    0.41316E-02   -0.26450E-02100654   0.956E-01    0.581E-01
RMM:   8    -0.915829024825E+02    0.14605E-02   -0.12128E-02108318   0.479E-01    0.217E-01
RMM:   9    -0.915829631919E+02   -0.60709E-04   -0.49226E-03102886   0.245E-01    0.827E-02
RMM:  10    -0.915830590825E+02   -0.95891E-04   -0.11762E-03 75255   0.145E-01
   6 F= -.96614010E+02 E0= -.96604057E+02  d E =-.187338E+00  mag=    -0.0000
 ZBRENT: can't locate minimum, use default step
 trial-energy change:   -0.187338  1 .order   -0.262434   -0.128518   -0.396351
 step:   3.3278(harm=  3.3278)  dis= 0.04930  next Energy=   -99.083407 (dE=-0.266E+01)
 bond charge predicted
       N       E                     dE             d eps       ncg     rms          rms(c)
DAV:   1    -0.942759653023E+02   -0.26930E+01   -0.14765E+02 98520   0.980E+01    0.163E+01
RMM:   2    -0.935732903816E+02    0.70267E+00   -0.22868E+01115090   0.325E+01    0.175E+01
RMM:   3    -0.931655317760E+02    0.40776E+00   -0.11846E+01 92994   0.245E+01    0.170E+01
RMM:   4    -0.934093514849E+02   -0.24382E+00   -0.50586E+00102143   0.145E+01    0.144E+01
RMM:   5    -0.924826252499E+02    0.92673E+00   -0.24043E+00 90795   0.108E+01    0.973E+00
RMM:   6    -0.920650134733E+02    0.41761E+00   -0.96282E-01 98732   0.609E+00    0.296E+00
RMM:   7    -0.920958495671E+02   -0.30836E-01   -0.30199E-01121581   0.244E+00    0.246E+00
RMM:   8    -0.920800741411E+02    0.15775E-01   -0.83398E-02103206   0.135E+00    0.118E+00
RMM:   9    -0.920769154446E+02    0.31587E-02   -0.70139E-02116364   0.974E-01    0.487E-01
RMM:  10    -0.920778469539E+02   -0.93151E-03   -0.14330E-02109370   0.548E-01    0.239E-01
RMM:  11    -0.920784325421E+02   -0.58559E-03   -0.52259E-03105451   0.241E-01    0.111E-01
RMM:  12    -0.920785983930E+02   -0.16585E-03   -0.11549E-03 70183   0.127E-01
   7 F= -.97972276E+02 E0= -.97963013E+02  d E =-.154560E+01  mag=    -0.0000
 curvature:  -2.22 expect dE=-0.936E+00 dE for cont linesearch -0.604E+00
 ZBRENT: increasing intervall
 opt :   8.3195  next Energy=   -97.983760 (dE=-0.156E+01)
 bond charge predicted
       N       E                     dE             d eps       ncg     rms          rms(c)
DAV:   1    -0.102326204707E+03   -0.10248E+02   -0.62827E+02100056   0.191E+02    0.329E+01
RMM:   2    -0.988251502313E+02    0.35011E+01   -0.87219E+01114932   0.608E+01    0.387E+01
RMM:   3    -0.102622346392E+03   -0.37972E+01   -0.42061E+01 90125   0.449E+01    0.523E+01
RMM:   4    -0.941615498007E+02    0.84608E+01   -0.21052E+01 92664   0.306E+01    0.208E+01
RMM:   5    -0.926660245813E+02    0.14955E+01   -0.62749E+00 96804   0.170E+01    0.720E+00
RMM:   6    -0.930421339342E+02   -0.37611E+00   -0.21623E+00135190   0.542E+00    0.611E+00
RMM:   7    -0.930769129931E+02   -0.34779E-01   -0.59624E-01 91053   0.466E+00    0.503E+00
RMM:   8    -0.930554725210E+02    0.21440E-01   -0.32456E-01 95935   0.309E+00    0.352E+00
RMM:   9    -0.930545754877E+02    0.89703E-03   -0.23739E-01113551   0.212E+00    0.105E+00
RMM:  10    -0.930617350657E+02   -0.71596E-02   -0.79346E-02127151   0.112E+00    0.573E-01
RMM:  11    -0.930647275807E+02   -0.29925E-02   -0.21817E-02121426   0.468E-01    0.492E-01
RMM:  12    -0.930652536141E+02   -0.52603E-03   -0.54901E-03105887   0.268E-01    0.220E-01
RMM:  13    -0.930651590977E+02    0.94516E-04   -0.18760E-03 80439   0.168E-01
   8 F= -.98955736E+02 E0= -.98946924E+02  d E =-.252906E+01  mag=     0.0000
 curvature:  -0.04 expect dE=-0.301E-01 dE for cont linesearch -0.393E-02
 ZBRENT: increasing intervall
 opt :  18.3028  next Energy=   -99.362311 (dE=-0.294E+01)
 bond charge predicted
       N       E                     dE             d eps       ncg     rms          rms(c)
DAV:   1    -0.140264448545E+03   -0.47199E+02   -0.30433E+03 95472   0.375E+02    0.810E+01
RMM:   2    -0.199454553296E+03   -0.59190E+02   -0.47957E+02125299   0.138E+02    0.979E+01
RMM:   3    -0.130054604344E+03    0.69400E+02   -0.20076E+02 89361   0.103E+02    0.809E+01
RMM:   4    -0.106035805878E+03    0.24019E+02   -0.68731E+01 90239   0.581E+01    0.490E+01
RMM:   5    -0.990763818027E+02    0.69594E+01   -0.29172E+01 92966   0.345E+01    0.601E+01
RMM:   6    -0.913811785089E+02    0.76952E+01   -0.16140E+01102898   0.209E+01    0.401E+01
RMM:   7    -0.903604916786E+02    0.10207E+01   -0.80378E+00 89601   0.173E+01    0.333E+01
RMM:   8    -0.899346380885E+02    0.42585E+00   -0.38840E+00127306   0.534E+00    0.305E+01
RMM:   9    -0.907932143937E+02   -0.85858E+00   -0.86587E-01127118   0.297E+00    0.313E+01
RMM:  10    -0.923483112103E+02   -0.15551E+01   -0.29641E+00130779   0.703E+00    0.264E+01
RMM:  11    -0.899828619308E+02    0.23654E+01   -0.43467E+00127872   0.727E+00    0.124E+01
RMM:  12    -0.900915036556E+02   -0.10864E+00   -0.74498E-01137171   0.234E+00    0.117E+01
RMM:  13    -0.898914291804E+02    0.20007E+00   -0.33784E-01124422   0.171E+00    0.117E+01
RMM:  14    -0.899680937047E+02   -0.76665E-01   -0.11724E-01128820   0.688E-01    0.116E+01
RMM:  15    -0.898821122638E+02    0.85981E-01   -0.89194E-02110165   0.101E+00    0.110E+01
RMM:  16    -0.900336466928E+02   -0.15153E+00   -0.65704E-02104979   0.106E+00    0.108E+01
RMM:  17    -0.904115688395E+02   -0.37792E+00   -0.48720E-01141837   0.268E+00    0.939E+00
RMM:  18    -0.907022658351E+02   -0.29070E+00   -0.32396E-01137811   0.174E+00    0.882E+00
RMM:  19    -0.909068372511E+02   -0.20457E+00   -0.38682E-01139144   0.187E+00    0.824E+00
RMM:  20    -0.909049831081E+02    0.18541E-02   -0.75292E-01151450   0.408E+00    0.739E+00
RMM:  21    -0.909946356651E+02   -0.89653E-01   -0.26765E-01137153   0.161E+00    0.606E+00
RMM:  22    -0.910606068015E+02   -0.65971E-01   -0.17316E-01134789   0.119E+00    0.430E+00
RMM:  23    -0.910775668478E+02   -0.16960E-01   -0.78198E-02131019   0.108E+00    0.204E+00
RMM:  24    -0.910926164144E+02   -0.15050E-01   -0.26900E-02116010   0.624E-01    0.157E+00
RMM:  25    -0.911028084472E+02   -0.10192E-01   -0.11682E-02112296   0.390E-01    0.165E+00
RMM:  26    -0.911222563518E+02   -0.19448E-01   -0.25204E-02129034   0.611E-01    0.121E+00
RMM:  27    -0.911284240663E+02   -0.61677E-02   -0.16382E-02119655   0.423E-01    0.808E-01
RMM:  28    -0.911312635776E+02   -0.28395E-02   -0.64346E-03107310   0.279E-01    0.539E-01
RMM:  29    -0.911319428136E+02   -0.67924E-03   -0.36475E-03 98863   0.223E-01    0.406E-01
RMM:  30    -0.911328269077E+02   -0.88409E-03   -0.41890E-03101821   0.274E-01    0.284E-01
RMM:  31    -0.911338109691E+02   -0.98406E-03   -0.33393E-03 95557   0.208E-01    0.168E-01
RMM:  32    -0.911345088062E+02   -0.69784E-03   -0.13620E-03 71991   0.143E-01    0.650E-02
RMM:  33    -0.911346226116E+02   -0.11381E-03   -0.56969E-04 57260   0.113E-01
   9 F= -.97322922E+02 E0= -.97312723E+02  d E =-.896249E+00  mag=    -0.0000
 curvature:  -4.37 expect dE=-0.743E+01 dE for cont linesearch -0.263E+01
 ZBRENT: bracketing found
 ZBRENT: interpolating
 opt :  11.1362  next Energy=   -99.152964 (dE=-0.273E+01)
 bond charge predicted
       N       E                     dE             d eps       ncg     rms          rms(c)
DAV:   1    -0.129535001882E+03   -0.38400E+02   -0.17137E+03 95520   0.332E+02    0.597E+01
RMM:   2    -0.130350753284E+03   -0.81575E+00   -0.43667E+02113431   0.126E+02    0.452E+01
RMM:   3    -0.110162543219E+03    0.20188E+02   -0.10294E+02 85598   0.808E+01    0.625E+01
RMM:   4    -0.101729888357E+03    0.84327E+01   -0.40298E+01 94422   0.415E+01    0.382E+01
RMM:   5    -0.106470465599E+03   -0.47406E+01   -0.40549E+01104425   0.337E+01    0.529E+01
RMM:   6    -0.954521041963E+02    0.11018E+02   -0.14721E+01 85913   0.249E+01    0.252E+01
RMM:   7    -0.917941535868E+02    0.36580E+01   -0.48587E+00 90422   0.133E+01    0.747E+00
RMM:   8    -0.921929656793E+02   -0.39881E+00   -0.27457E+00134222   0.467E+00    0.603E+00
RMM:   9    -0.923124497033E+02   -0.11948E+00   -0.51748E-01 98221   0.339E+00    0.510E+00
RMM:  10    -0.923861917550E+02   -0.73742E-01   -0.30919E-01129368   0.163E+00    0.388E+00
RMM:  11    -0.924112154962E+02   -0.25024E-01   -0.82178E-02127506   0.667E-01    0.393E+00
RMM:  12    -0.923768800896E+02    0.34335E-01   -0.62406E-02105908   0.107E+00    0.271E+00
RMM:  13    -0.923483052753E+02    0.28575E-01   -0.14783E-01129108   0.158E+00    0.161E+00
RMM:  14    -0.923416485888E+02    0.66567E-02   -0.73519E-02121101   0.101E+00    0.107E+00
RMM:  15    -0.923500750011E+02   -0.84264E-02   -0.22755E-02115700   0.518E-01    0.617E-01
RMM:  16    -0.923514048932E+02   -0.13299E-02   -0.10244E-02106198   0.349E-01    0.350E-01
RMM:  17    -0.923518423603E+02   -0.43747E-03   -0.50412E-03 97190   0.285E-01    0.258E-01
RMM:  18    -0.923526003390E+02   -0.75798E-03   -0.15235E-03 76578   0.170E-01    0.191E-01
RMM:  19    -0.923526957897E+02   -0.95451E-04   -0.68115E-04 58691   0.119E-01
  10 F= -.98241835E+02 E0= -.98232751E+02  d E =-.181516E+01  mag=    -0.0000
 curvature:  -0.33 expect dE=-0.277E+00 dE for cont linesearch -0.747E-02
 ZBRENT: interpolating
 opt :  13.4489  next Energy=   -98.335083 (dE=-0.191E+01)
 bond charge predicted
       N       E                     dE             d eps       ncg     rms          rms(c)
DAV:   1    -0.951929029746E+02   -0.28403E+01   -0.15534E+02 95472   0.920E+01    0.186E+01
RMM:   2    -0.987531733625E+02   -0.35603E+01   -0.24489E+01107785   0.325E+01    0.327E+01
RMM:   3    -0.952298206055E+02    0.35234E+01   -0.10626E+01103280   0.228E+01    0.355E+01
RMM:   4    -0.941021123873E+02    0.11277E+01   -0.57042E+00 88239   0.162E+01    0.218E+01
RMM:   5    -0.930142407539E+02    0.10879E+01   -0.30672E+00 87480   0.119E+01    0.142E+01
RMM:   6    -0.923343695418E+02    0.67987E+00   -0.10716E+00 88960   0.744E+00    0.560E+00
RMM:   7    -0.923399023051E+02   -0.55328E-02   -0.36961E-01130314   0.219E+00    0.309E+00
RMM:   8    -0.923621590993E+02   -0.22257E-01   -0.91880E-02 91191   0.172E+00    0.223E+00
RMM:   9    -0.923906610251E+02   -0.28502E-01   -0.78301E-02122488   0.888E-01    0.240E+00
RMM:  10    -0.923685308779E+02    0.22130E-01   -0.19579E-02107373   0.606E-01    0.192E+00
RMM:  11    -0.923453058940E+02    0.23225E-01   -0.49721E-02110101   0.917E-01    0.913E-01
RMM:  12    -0.923496049310E+02   -0.42990E-02   -0.20019E-02108400   0.507E-01    0.725E-01
RMM:  13    -0.923513312642E+02   -0.17263E-02   -0.76852E-03101754   0.360E-01    0.291E-01
RMM:  14    -0.923525755799E+02   -0.12443E-02   -0.32866E-03 99635   0.230E-01    0.260E-01
RMM:  15    -0.923529094929E+02   -0.33391E-03   -0.14173E-03 73248   0.167E-01    0.150E-01
RMM:  16    -0.923530035958E+02   -0.94103E-04   -0.86877E-04 62996   0.135E-01
  11 F= -.98547969E+02 E0= -.98538062E+02  d E =-.212130E+01  mag=     0.0000
 curvature:  -4.09 expect dE=-0.361E+01 dE for cont linesearch -0.484E-01
 ZBRENT: interpolating
 opt :  12.4805  next Energy=   -98.572157 (dE=-0.215E+01)
 bond charge predicted
       N       E                     dE             d eps       ncg     rms          rms(c)
DAV:   1    -0.929114203882E+02   -0.55851E+00   -0.27708E+01 97296   0.409E+01    0.773E+00
RMM:   2    -0.930983208765E+02   -0.18690E+00   -0.47423E+00111127   0.145E+01    0.135E+01
RMM:   3    -0.933356702690E+02   -0.23735E+00   -0.21635E+00 94014   0.106E+01    0.153E+01
RMM:   4    -0.927640261548E+02    0.57164E+00   -0.12335E+00 84872   0.772E+00    0.109E+01
RMM:   5    -0.926175302813E+02    0.14650E+00   -0.78355E-01 85873   0.600E+00    0.680E+00
RMM:   6    -0.924166585700E+02    0.20087E+00   -0.27869E-01 89804   0.374E+00    0.261E+00
RMM:   7    -0.924474534488E+02   -0.30795E-01   -0.11829E-01130075   0.102E+00    0.296E+00
RMM:   8    -0.924071402506E+02    0.40313E-01   -0.43325E-02105595   0.854E-01    0.162E+00
RMM:   9    -0.923956960023E+02    0.11444E-01   -0.21195E-02 92526   0.578E-01    0.109E+00
RMM:  10    -0.923912583945E+02    0.44376E-02   -0.20589E-02108741   0.529E-01    0.339E-01
RMM:  11    -0.923925969511E+02   -0.13386E-02   -0.63632E-03106452   0.276E-01    0.219E-01
RMM:  12    -0.923928669963E+02   -0.27005E-03   -0.23534E-03 88407   0.186E-01    0.961E-02
RMM:  13    -0.923929751116E+02   -0.10812E-03   -0.79883E-04 61527   0.112E-01
  12 F= -.98447215E+02 E0= -.98437602E+02  d E =-.202054E+01  mag=     0.0000
 curvature:  -2.04 expect dE=-0.299E+02 dE for cont linesearch -0.405E+00
 ZBRENT: interpolating
 opt :  13.2586  next Energy=   -98.552721 (dE=-0.213E+01)
 bond charge predicted
       N       E                     dE             d eps       ncg     rms          rms(c)
DAV:   1    -0.926897746993E+02   -0.29691E+00   -0.17696E+01 95904   0.319E+01    0.618E+00
RMM:   2    -0.927982427501E+02   -0.10847E+00   -0.27030E+00113133   0.108E+01    0.107E+01
RMM:   3    -0.928523205559E+02   -0.54078E-01   -0.12590E+00101100   0.799E+00    0.122E+01
RMM:   4    -0.925761698086E+02    0.27615E+00   -0.76384E-01 85042   0.595E+00    0.766E+00
RMM:   5    -0.924798945944E+02    0.96275E-01   -0.44801E-01 86132   0.450E+00    0.548E+00
RMM:   6    -0.923651214559E+02    0.11477E+00   -0.17157E-01 87652   0.300E+00    0.800E-01
RMM:   7    -0.923728066347E+02   -0.76852E-02   -0.52338E-02131402   0.788E-01    0.812E-01
RMM:   8    -0.923746514317E+02   -0.18448E-02   -0.94941E-03115326   0.307E-01    0.807E-01
RMM:   9    -0.923729995576E+02    0.16519E-02   -0.21341E-03 76617   0.170E-01    0.756E-01
RMM:  10    -0.923675832366E+02    0.54163E-02   -0.45577E-03 92518   0.293E-01    0.436E-01
RMM:  11    -0.923661834866E+02    0.13998E-02   -0.64057E-03117232   0.336E-01    0.203E-01
RMM:  12    -0.923663629137E+02   -0.17943E-03   -0.26992E-03 90336   0.176E-01    0.963E-02
RMM:  13    -0.923664820545E+02   -0.11914E-03   -0.48987E-04 56230   0.103E-01
  13 F= -.98553267E+02 E0= -.98543377E+02  d E =-.212659E+01  mag=     0.0000
 curvature:  -0.02 expect dE=-0.199E-01 dE for cont linesearch -0.208E-04
 trial: gam= 5.18256 g(F)=  0.682E+00 g(S)=  0.147E+00 ort =-0.135E-01 (trialstep = 0.110E+00)
 search vector abs. value=  0.635E+01
 bond charge predicted
       N       E                     dE             d eps       ncg     rms          rms(c)
DAV:   1    -0.925640923268E+02   -0.19773E+00   -0.85563E+00 95952   0.224E+01    0.438E+00
RMM:   2    -0.926375170291E+02   -0.73425E-01   -0.13390E+00108353   0.768E+00    0.801E+00
RMM:   3    -0.925939525294E+02    0.43564E-01   -0.66132E-01 92168   0.604E+00    0.754E+00
RMM:   4    -0.926403081888E+02   -0.46356E-01   -0.42172E-01 85606   0.427E+00    0.839E+00
RMM:   5    -0.924312959569E+02    0.20901E+00   -0.26700E-01 85771   0.359E+00    0.259E+00
RMM:   6    -0.924004928753E+02    0.30803E-01   -0.78205E-02 87145   0.199E+00    0.594E-01
RMM:   7    -0.924041715638E+02   -0.36787E-02   -0.30554E-02124873   0.573E-01    0.623E-01
RMM:   8    -0.924048402549E+02   -0.66869E-03   -0.52884E-03103611   0.244E-01    0.627E-01
RMM:   9    -0.924025114488E+02    0.23288E-02   -0.28310E-03 84691   0.242E-01    0.515E-01
RMM:  10    -0.924009804975E+02    0.15310E-02   -0.24715E-03 87503   0.180E-01    0.341E-01
RMM:  11    -0.923998378554E+02    0.11426E-02   -0.40180E-03113934   0.270E-01    0.183E-01
RMM:  12    -0.923998378483E+02    0.70395E-08   -0.13866E-03 76960   0.147E-01
  14 F= -.98599419E+02 E0= -.98589397E+02  d E =-.461519E-01  mag=    -0.0000
 trial-energy change:   -0.046152  1 .order   -0.053855   -0.083629   -0.024082
 step:   0.1546(harm=  0.1546)  dis= 0.01200  next Energy=   -98.611992 (dE=-0.587E-01)
 bond charge predicted
       N       E                     dE             d eps       ncg     rms          rms(c)
DAV:   1    -0.924349769392E+02   -0.35139E-01   -0.14145E+00101544   0.892E+00    0.178E+00
RMM:   2    -0.924438584260E+02   -0.88815E-02   -0.21938E-01107832   0.315E+00    0.323E+00
RMM:   3    -0.924370125899E+02    0.68458E-02   -0.10933E-01 91118   0.246E+00    0.297E+00
RMM:   4    -0.924470482152E+02   -0.10036E-01   -0.68406E-02 85551   0.174E+00    0.348E+00
RMM:   5    -0.924137044471E+02    0.33344E-01   -0.44774E-02 86667   0.146E+00    0.118E+00
RMM:   6    -0.924071723665E+02    0.65321E-02   -0.13387E-02 85786   0.820E-01    0.248E-01
RMM:   7    -0.924077455706E+02   -0.57320E-03   -0.55917E-03107143   0.240E-01    0.238E-01
RMM:   8    -0.924078040360E+02   -0.58465E-04   -0.87972E-04 63186   0.137E-01
  15 F= -.98607205E+02 E0= -.98597088E+02  d E =-.539383E-01  mag=    -0.0000
 curvature:  -0.65 expect dE=-0.739E+00 dE for cont linesearch -0.159E-02
 trial: gam= 0.61303 g(F)=  0.749E+00 g(S)=  0.394E+00 ort = 0.125E+00 (trialstep = 0.119E+00)
 search vector abs. value=  0.368E+01
 bond charge predicted
       N       E                     dE             d eps       ncg     rms          rms(c)
DAV:   1    -0.925672064039E+02   -0.15946E+00   -0.53404E+00105408   0.237E+01    0.326E+00
RMM:   2    -0.926277989894E+02   -0.60593E-01   -0.11219E+00113459   0.680E+00    0.543E+00
RMM:   3    -0.926083214987E+02    0.19477E-01   -0.46853E-01 95513   0.491E+00    0.450E+00
RMM:   4    -0.925688386314E+02    0.39483E-01   -0.16625E-01103610   0.260E+00    0.237E+00
RMM:   5    -0.925956968663E+02   -0.26858E-01   -0.89022E-02 92137   0.183E+00    0.362E+00
RMM:   6    -0.925511743865E+02    0.44522E-01   -0.48471E-02 96488   0.133E+00    0.794E-01
RMM:   7    -0.925542375227E+02   -0.30631E-02   -0.16307E-02114098   0.443E-01    0.728E-01
RMM:   8    -0.925520191358E+02    0.22184E-02   -0.33918E-03 89967   0.220E-01    0.646E-01
RMM:   9    -0.925474350007E+02    0.45841E-02   -0.51707E-03 89159   0.298E-01    0.409E-01
RMM:  10    -0.925459325450E+02    0.15025E-02   -0.59735E-03114349   0.291E-01    0.174E-01
RMM:  11    -0.925462745782E+02   -0.34203E-03   -0.21757E-03 87390   0.170E-01    0.119E-01
RMM:  12    -0.925464155217E+02   -0.14094E-03   -0.47188E-04 55046   0.936E-02
  16 F= -.98739699E+02 E0= -.98729437E+02  d E =-.132494E+00  mag=     0.0000
 ZBRENT: can't locate minimum, use default step
 trial-energy change:   -0.132494  1 .order   -0.133341   -0.145162   -0.121521
 step:   0.4760(harm=  0.7308)  dis= 0.03624  next Energy=   -99.052878 (dE=-0.446E+00)
 bond charge predicted
       N       E                     dE             d eps       ncg     rms          rms(c)
DAV:   1    -0.929355852007E+02   -0.38931E+00   -0.47314E+01 95328   0.714E+01    0.964E+00
RMM:   2    -0.938126816790E+02   -0.87710E+00   -0.11793E+01114227   0.219E+01    0.178E+01
RMM:   3    -0.933204271602E+02    0.49225E+00   -0.43617E+00 92621   0.150E+01    0.122E+01
RMM:   4    -0.937314315816E+02   -0.41100E+00   -0.18176E+00110288   0.802E+00    0.169E+01
RMM:   5    -0.929817501512E+02    0.74968E+00   -0.74490E-01 91649   0.566E+00    0.646E+00
RMM:   6    -0.928719462549E+02    0.10980E+00   -0.34149E-01 88715   0.376E+00    0.250E+00
RMM:   7    -0.928573991550E+02    0.14547E-01   -0.10409E-01121343   0.136E+00    0.124E+00
RMM:   8    -0.928560378206E+02    0.13613E-02   -0.31593E-02106299   0.747E-01    0.555E-01
RMM:   9    -0.928584047135E+02   -0.23669E-02   -0.14542E-02114372   0.437E-01    0.531E-01
RMM:  10    -0.928606879312E+02   -0.22832E-02   -0.48500E-03103545   0.232E-01    0.626E-01
RMM:  11    -0.928562261729E+02    0.44618E-02   -0.54498E-03 91744   0.311E-01    0.441E-01
RMM:  12    -0.928550715145E+02    0.11547E-02   -0.58720E-03100903   0.275E-01    0.244E-01
RMM:  13    -0.928555400265E+02   -0.46851E-03   -0.20903E-03 85413   0.158E-01    0.955E-02
RMM:  14    -0.928557016144E+02   -0.16159E-03   -0.51748E-04 55371   0.977E-02
  17 F= -.98785381E+02 E0= -.98774767E+02  d E =-.178176E+00  mag=    -0.0000
 curvature:  -0.91 expect dE=-0.531E+01 dE for cont linesearch -0.589E-02
 trial: gam= 5.93572 g(F)=  0.417E+01 g(S)=  0.165E+01 ort =-0.154E+00 (trialstep = 0.524E-02)
 search vector abs. value=  0.134E+03
 bond charge predicted
       N       E                     dE             d eps       ncg     rms          rms(c)
DAV:   1    -0.928680869909E+02   -0.12547E-01   -0.39926E-01120864   0.745E+00    0.889E-01
RMM:   2    -0.928803878309E+02   -0.12301E-01   -0.11307E-01113294   0.208E+00    0.207E+00
RMM:   3    -0.928727735392E+02    0.76143E-02   -0.41436E-02 92555   0.147E+00    0.105E+00
RMM:   4    -0.928787051049E+02   -0.59316E-02   -0.19545E-02109412   0.845E-01    0.156E+00
RMM:   5    -0.928705247587E+02    0.81803E-02   -0.71750E-03 83253   0.565E-01    0.535E-01
RMM:   6    -0.928695280901E+02    0.99667E-03   -0.31831E-03 78780   0.372E-01    0.143E-01
RMM:   7    -0.928695192636E+02    0.88265E-05   -0.12390E-03 74275   0.130E-01
  18 F= -.98812103E+02 E0= -.98801509E+02  d E =-.267217E-01  mag=     0.0000
 ZBRENT: can't locate minimum, use default step
 trial-energy change:   -0.026722  1 .order   -0.026644   -0.025736   -0.027553
 step:   0.0210(harm=  0.0210)  dis= 0.00931  next Energy=   -98.902863 (dE=-0.117E+00)
 bond charge predicted
       N       E                     dE             d eps       ncg     rms          rms(c)
DAV:   1    -0.928875791263E+02   -0.18051E-01   -0.35530E+00100032   0.224E+01    0.263E+00
RMM:   2    -0.929824445071E+02   -0.94865E-01   -0.10143E+00113168   0.620E+00    0.572E+00
RMM:   3    -0.929349973060E+02    0.47447E-01   -0.36171E-01 93258   0.431E+00    0.326E+00
RMM:   4    -0.929943717249E+02   -0.59374E-01   -0.18276E-01113702   0.249E+00    0.501E+00
RMM:   5    -0.929100431837E+02    0.84329E-01   -0.65732E-02 88841   0.171E+00    0.149E+00
RMM:   6    -0.929028260532E+02    0.72171E-02   -0.28559E-02 87506   0.110E+00    0.471E-01
RMM:   7    -0.929023560509E+02    0.47000E-03   -0.94504E-03114278   0.380E-01    0.194E-01
RMM:   8    -0.929021923947E+02    0.16366E-03   -0.21827E-03 84720   0.185E-01    0.109E-01
RMM:   9    -0.929022199595E+02   -0.27565E-04   -0.94278E-04 66112   0.128E-01
  19 F= -.98900881E+02 E0= -.98890379E+02  d E =-.115500E+00  mag=     0.0000
 curvature:  -0.44 expect dE=-0.611E+01 dE for cont linesearch -0.119E+00
 ZBRENT: increasing intervall
 opt :   0.0524  next Energy=   -99.114752 (dE=-0.329E+00)
 bond charge predicted
       N       E                     dE             d eps       ncg     rms          rms(c)
DAV:   1    -0.927944271104E+02    0.10777E+00   -0.13567E+01 84864   0.451E+01    0.520E+00
RMM:   2    -0.932174231294E+02   -0.42300E+00   -0.46986E+00114806   0.130E+01    0.109E+01
RMM:   3    -0.930574014071E+02    0.16002E+00   -0.14909E+00 93194   0.857E+00    0.645E+00
RMM:   4    -0.932534189095E+02   -0.19602E+00   -0.68084E-01112976   0.470E+00    0.977E+00
RMM:   5    -0.929655489401E+02    0.28787E+00   -0.24451E-01 90198   0.324E+00    0.323E+00
RMM:   6    -0.929346875091E+02    0.30861E-01   -0.11397E-01 87252   0.220E+00    0.111E+00
RMM:   7    -0.929326714162E+02    0.20161E-02   -0.35083E-02122228   0.764E-01    0.567E-01
RMM:   8    -0.929338468094E+02   -0.11754E-02   -0.97647E-03109818   0.355E-01    0.533E-01
RMM:   9    -0.929352933661E+02   -0.14466E-02   -0.35605E-03 91119   0.199E-01    0.590E-01
RMM:  10    -0.929326185615E+02    0.26748E-02   -0.16859E-03 75329   0.178E-01    0.483E-01
RMM:  11    -0.929285660353E+02    0.40525E-02   -0.11559E-02116598   0.395E-01    0.226E-01
RMM:  12    -0.929300772171E+02   -0.15112E-02   -0.21008E-03 78789   0.165E-01    0.126E-01
RMM:  13    -0.929302471580E+02   -0.16994E-03   -0.57346E-04 56648   0.117E-01
  20 F= -.99062457E+02 E0= -.99051972E+02  d E =-.277076E+00  mag=    -0.0000
 curvature:  -0.79 expect dE=-0.184E+01 dE for cont linesearch -0.489E-01
 ZBRENT: increasing intervall
 opt :   0.1154  next Energy=   -99.045944 (dE=-0.261E+00)
 bond charge predicted
       N       E                     dE             d eps       ncg     rms          rms(c)
DAV:   1    -0.923310567054E+02    0.59902E+00   -0.55653E+01 84864   0.911E+01    0.105E+01
RMM:   2    -0.938731622019E+02   -0.15421E+01   -0.18721E+01115782   0.262E+01    0.191E+01
RMM:   3    -0.934125387602E+02    0.46062E+00   -0.60054E+00 93356   0.171E+01    0.138E+01
RMM:   4    -0.934663811494E+02   -0.53842E-01   -0.21647E+00108564   0.876E+00    0.150E+01
RMM:   5    -0.930418884480E+02    0.42449E+00   -0.85975E-01 98668   0.571E+00    0.858E+00
RMM:   6    -0.928563601151E+02    0.18553E+00   -0.43370E-01 88654   0.417E+00    0.299E+00
RMM:   7    -0.928456620845E+02    0.10698E-01   -0.12463E-01115325   0.153E+00    0.194E+00
RMM:   8    -0.928398673900E+02    0.57947E-02   -0.54101E-02103030   0.101E+00    0.803E-01
RMM:   9    -0.928487391115E+02   -0.88717E-02   -0.32598E-02120236   0.624E-01    0.100E+00
RMM:  10    -0.928483431021E+02    0.39601E-03   -0.79043E-03109154   0.271E-01    0.971E-01
RMM:  11    -0.928438610514E+02    0.44821E-02   -0.58578E-03 89825   0.377E-01    0.984E-01
RMM:  12    -0.928363700037E+02    0.74910E-02   -0.13060E-02114012   0.432E-01    0.534E-01
RMM:  13    -0.928383102060E+02   -0.19402E-02   -0.34906E-03 91847   0.231E-01    0.248E-01
RMM:  14    -0.928392124076E+02   -0.90220E-03   -0.20386E-03 84529   0.192E-01    0.112E-01
RMM:  15    -0.928393187320E+02   -0.10632E-03   -0.73826E-04 61360   0.113E-01
  21 F= -.99004751E+02 E0= -.98994457E+02  d E =-.219370E+00  mag=    -0.0000
 curvature:   0.27 expect dE= 0.316E+00 dE for cont linesearch  0.173E-01
 ZBRENT: bracketing found
 ZBRENT: interpolating
 opt :   0.0835  next Energy=   -99.107257 (dE=-0.322E+00)
 bond charge predicted
       N       E                     dE             d eps       ncg     rms          rms(c)
DAV:   1    -0.928797633214E+02   -0.40551E-01   -0.15030E+01100896   0.447E+01    0.563E+00
RMM:   2    -0.933139221073E+02   -0.43416E+00   -0.41342E+00113812   0.122E+01    0.123E+01
RMM:   3    -0.931239732301E+02    0.18995E+00   -0.15522E+00 94454   0.889E+00    0.885E+00
RMM:   4    -0.934472723828E+02   -0.32330E+00   -0.95614E-01104480   0.582E+00    0.120E+01
RMM:   5    -0.929208711493E+02    0.52640E+00   -0.37536E-01 88272   0.421E+00    0.235E+00
RMM:   6    -0.929068064852E+02    0.14065E-01   -0.12864E-01 86064   0.235E+00    0.736E-01
RMM:   7    -0.929094700931E+02   -0.26636E-02   -0.48046E-02126080   0.877E-01    0.472E-01
RMM:   8    -0.929098569389E+02   -0.38685E-03   -0.10491E-02112560   0.375E-01    0.468E-01
RMM:   9    -0.929116554911E+02   -0.17986E-02   -0.45285E-03100514   0.231E-01    0.542E-01
RMM:  10    -0.929092030868E+02    0.24524E-02   -0.17124E-03 73132   0.188E-01    0.389E-01
RMM:  11    -0.929069308119E+02    0.22723E-02   -0.46566E-03 94610   0.256E-01    0.150E-01
RMM:  12    -0.929076231399E+02   -0.69233E-03   -0.16154E-03 77144   0.138E-01    0.105E-01
RMM:  13    -0.929078226627E+02   -0.19952E-03   -0.32886E-04 51839   0.912E-02
  22 F= -.99075812E+02 E0= -.99065520E+02  d E =-.290431E+00  mag=    -0.0000
 curvature:  -0.69 expect dE=-0.598E+00 dE for cont linesearch -0.693E-02
 ZBRENT: interpolating
 opt :   0.0746  next Energy=   -99.080991 (dE=-0.296E+00)
 bond charge predicted
       N       E                     dE             d eps       ncg     rms          rms(c)
DAV:   1    -0.929085613814E+02   -0.93824E-03   -0.11035E+00 89568   0.127E+01    0.152E+00
RMM:   2    -0.929415954771E+02   -0.33034E-01   -0.37707E-01117034   0.368E+00    0.315E+00
RMM:   3    -0.929320156088E+02    0.95799E-02   -0.12175E-01 94004   0.246E+00    0.214E+00
RMM:   4    -0.929537046677E+02   -0.21689E-01   -0.69626E-02110462   0.150E+00    0.312E+00
RMM:   5    -0.929197164116E+02    0.33988E-01   -0.24807E-02 87200   0.106E+00    0.715E-01
RMM:   6    -0.929183009867E+02    0.14154E-02   -0.10025E-02 86690   0.647E-01    0.207E-01
RMM:   7    -0.929183352563E+02   -0.34270E-04   -0.36718E-03 96372   0.223E-01    0.120E-01
RMM:   8    -0.929183073122E+02    0.27944E-04   -0.75873E-04 60514   0.127E-01
  23 F= -.99083593E+02 E0= -.99073210E+02  d E =-.298212E+00  mag=     0.0000
 curvature:  -0.51 expect dE=-0.342E+00 dE for cont linesearch -0.120E-02
 trial: gam= 0.16830 g(F)=  0.397E+00 g(S)=  0.267E+00 ort =-0.558E+00 (trialstep = 0.191E-01)
 search vector abs. value=  0.427E+01
 bond charge predicted
       N       E                     dE             d eps       ncg     rms          rms(c)
DAV:   1    -0.929274072281E+02   -0.90720E-02   -0.13949E-01 94320   0.506E+00    0.485E-01
RMM:   2    -0.929339804271E+02   -0.65732E-02   -0.52690E-02117963   0.134E+00    0.120E+00
RMM:   3    -0.929319083559E+02    0.20721E-02   -0.14283E-02 98846   0.832E-01    0.628E-01
RMM:   4    -0.929341260467E+02   -0.22177E-02   -0.73422E-03104761   0.475E-01    0.964E-01
RMM:   5    -0.929313936496E+02    0.27324E-02   -0.25983E-03 74150   0.349E-01    0.305E-01
RMM:   6    -0.929318408060E+02   -0.44716E-03   -0.13283E-03 72696   0.165E-01    0.323E-01
RMM:   7    -0.929314577084E+02    0.38310E-03   -0.29042E-04 49979   0.856E-02    0.294E-01
RMM:   8    -0.929301214012E+02    0.13363E-02   -0.17516E-03 74058   0.180E-01    0.128E-01
RMM:   9    -0.929303461700E+02   -0.22477E-03   -0.77696E-04 61916   0.110E-01    0.653E-02
RMM:  10    -0.929304411461E+02   -0.94976E-04   -0.14767E-04 47459   0.723E-02
  24 F= -.99094640E+02 E0= -.99084326E+02  d E =-.110471E-01  mag=     0.0000
 ZBRENT: can't locate minimum, use default step
 trial-energy change:   -0.011047  1 .order   -0.011035   -0.010894   -0.011175
 step:   0.0765(harm=  0.0765)  dis= 0.00688  next Energy=   -99.129416 (dE=-0.458E-01)
 bond charge predicted
       N       E                     dE             d eps       ncg     rms          rms(c)
DAV:   1    -0.929351678113E+02   -0.48216E-02   -0.12182E+00 85056   0.152E+01    0.140E+00
RMM:   2    -0.929811518426E+02   -0.45984E-01   -0.46901E-01116983   0.397E+00    0.300E+00
RMM:   3    -0.929748162561E+02    0.63356E-02   -0.12622E-01101061   0.245E+00    0.189E+00
RMM:   4    -0.929973133985E+02   -0.22497E-01   -0.67413E-02114130   0.141E+00    0.311E+00
RMM:   5    -0.929646514546E+02    0.32662E-01   -0.22298E-02 87786   0.101E+00    0.499E-01
RMM:   6    -0.929648886576E+02   -0.23720E-03   -0.86091E-03 91180   0.546E-01    0.230E-01
RMM:   7    -0.929647912658E+02    0.97392E-04   -0.27101E-03 85569   0.246E-01    0.175E-01
RMM:   8    -0.929650143584E+02   -0.22309E-03   -0.13061E-03 74613   0.134E-01    0.205E-01
RMM:   9    -0.929649208525E+02    0.93506E-04   -0.24426E-04 50754   0.790E-02
  25 F= -.99126209E+02 E0= -.99116036E+02  d E =-.426161E-01  mag=     0.0000
 curvature:  -0.43 expect dE=-0.272E+00 dE for cont linesearch -0.292E-01
 ZBRENT: increasing intervall
 opt :   0.1911  next Energy=   -99.182099 (dE=-0.985E-01)
 bond charge predicted
       N       E                     dE             d eps       ncg     rms          rms(c)
DAV:   1    -0.929056343139E+02    0.59380E-01   -0.49011E+00 84864   0.304E+01    0.284E+00
RMM:   2    -0.931208219340E+02   -0.21519E+00   -0.19114E+00116598   0.799E+00    0.698E+00
RMM:   3    -0.930522851855E+02    0.68537E-01   -0.52343E-01 98272   0.501E+00    0.330E+00
RMM:   4    -0.931755237928E+02   -0.12324E+00   -0.27877E-01116376   0.282E+00    0.696E+00
RMM:   5    -0.930214613830E+02    0.15406E+00   -0.95352E-02 88856   0.208E+00    0.101E+00
RMM:   6    -0.930233305540E+02   -0.18692E-02   -0.36204E-02 91264   0.112E+00    0.540E-01
RMM:   7    -0.930243318350E+02   -0.10013E-02   -0.12349E-02104159   0.500E-01    0.539E-01
RMM:   8    -0.930255500318E+02   -0.12182E-02   -0.48514E-03 98327   0.210E-01    0.597E-01
RMM:   9    -0.930220700388E+02    0.34800E-02   -0.28349E-03 83082   0.250E-01    0.467E-01
RMM:  10    -0.930197778946E+02    0.22921E-02   -0.47501E-03 97974   0.263E-01    0.350E-01
RMM:  11    -0.930199769867E+02   -0.19909E-03   -0.28290E-03 93889   0.207E-01    0.137E-01
RMM:  12    -0.930203398893E+02   -0.36290E-03   -0.55280E-04 56176   0.117E-01    0.516E-02
RMM:  13    -0.930203883535E+02   -0.48464E-04   -0.20529E-04 49976   0.809E-02
  26 F= -.99177896E+02 E0= -.99167818E+02  d E =-.943026E-01  mag=     0.0000
 curvature:  -0.83 expect dE=-0.558E+00 dE for cont linesearch -0.311E-01
 ZBRENT: increasing intervall
 opt :   0.4205  next Energy=   -99.238488 (dE=-0.155E+00)
 bond charge predicted
       N       E                     dE             d eps       ncg     rms          rms(c)
DAV:   1    -0.926376905493E+02    0.38265E+00   -0.19921E+01 87168   0.607E+01    0.561E+00
RMM:   2    -0.934684990927E+02   -0.83081E+00   -0.74776E+00116362   0.160E+01    0.138E+01
RMM:   3    -0.932227122043E+02    0.24579E+00   -0.20606E+00 98634   0.983E+00    0.683E+00
RMM:   4    -0.937345691486E+02   -0.51186E+00   -0.11453E+00115726   0.564E+00    0.157E+01
RMM:   5    -0.930759247710E+02    0.65864E+00   -0.40705E-01 89480   0.426E+00    0.231E+00
RMM:   6    -0.930879574740E+02   -0.12033E-01   -0.13918E-01 92682   0.212E+00    0.150E+00
RMM:   7    -0.930816275608E+02    0.63299E-02   -0.41097E-02101774   0.105E+00    0.823E-01
RMM:   8    -0.930800533694E+02    0.15742E-02   -0.19635E-02100246   0.647E-01    0.322E-01
RMM:   9    -0.930806625836E+02   -0.60921E-03   -0.10050E-02110155   0.343E-01    0.173E-01
RMM:  10    -0.930812631580E+02   -0.60057E-03   -0.28589E-03 91582   0.182E-01    0.207E-01
RMM:  11    -0.930814926005E+02   -0.22944E-03   -0.77911E-04 60677   0.106E-01    0.232E-01
RMM:  12    -0.930808195562E+02    0.67304E-03   -0.66145E-04 59442   0.126E-01    0.118E-01
RMM:  13    -0.930808749481E+02   -0.55392E-04   -0.48565E-04 57012   0.792E-02
  27 F= -.99235408E+02 E0= -.99225251E+02  d E =-.151815E+00  mag=     0.0000
 curvature:  -1.61 expect dE=-0.165E+01 dE for cont linesearch -0.383E-02
 trial: gam= 0.40306 g(F)=  0.323E+00 g(S)=  0.698E+00 ort = 0.101E+00 (trialstep = 0.994E-01)
 search vector abs. value=  0.180E+01
 bond charge predicted
       N       E                     dE             d eps       ncg     rms          rms(c)
DAV:   1    -0.932054496117E+02   -0.12463E+00   -0.14437E+00112896   0.896E+00    0.149E+00
RMM:   2    -0.932443112116E+02   -0.38862E-01   -0.21959E-01111648   0.309E+00    0.408E+00
RMM:   3    -0.932034736518E+02    0.40838E-01   -0.80783E-02104090   0.202E+00    0.164E+00
RMM:   4    -0.932134017250E+02   -0.99281E-02   -0.47730E-02 93854   0.136E+00    0.250E+00
RMM:   5    -0.931986362652E+02    0.14765E-01   -0.25507E-02 85414   0.107E+00    0.102E+00
RMM:   6    -0.931952298111E+02    0.34065E-02   -0.89872E-03 84824   0.647E-01    0.230E-01
RMM:   7    -0.931953641825E+02   -0.13437E-03   -0.38235E-03 99046   0.216E-01    0.204E-01
RMM:   8    -0.931954623620E+02   -0.98179E-04   -0.81136E-04 62015   0.142E-01
  28 F= -.99309752E+02 E0= -.99299716E+02  d E =-.743446E-01  mag=    -0.0000
 trial-energy change:   -0.074345  1 .order   -0.058773   -0.105546   -0.012000
 step:   0.1056(harm=  0.1121)  dis= 0.00655  next Energy=   -99.310129 (dE=-0.747E-01)
 bond charge predicted
       N       E                     dE             d eps       ncg     rms          rms(c)
DAV:   1    -0.932026319058E+02   -0.72677E-02   -0.59746E-03125424   0.562E-01    0.232E-01
RMM:   2    -0.932048822984E+02   -0.22504E-02   -0.25295E-03 82782   0.297E-01    0.743E-01
RMM:   3    -0.932032508167E+02    0.16315E-02   -0.12696E-03 65510   0.264E-01    0.319E-01
RMM:   4    -0.932030281068E+02    0.22271E-03   -0.31106E-04 47358   0.788E-02    0.306E-01
RMM:   5    -0.932022827161E+02    0.74539E-03   -0.67433E-04 58609   0.154E-01    0.243E-01
RMM:   6    -0.932023827640E+02   -0.10005E-03   -0.57911E-04 56102   0.127E-01
  29 F= -.99309913E+02 E0= -.99299873E+02  d E =-.745058E-01  mag=    -0.0000
 curvature:  -0.07 expect dE=-0.155E+00 dE for cont linesearch -0.178E-05
 trial: gam= 2.35188 g(F)=  0.201E+01 g(S)=  0.218E+00 ort = 0.677E-02 (trialstep = 0.148E-01)
 search vector abs. value=  0.122E+02
 bond charge predicted
       N       E                     dE             d eps       ncg     rms          rms(c)
DAV:   1    -0.932251350526E+02   -0.22852E-01   -0.28657E-01105600   0.858E+00    0.559E-01
RMM:   2    -0.932349651576E+02   -0.98301E-02   -0.11458E-01118258   0.171E+00    0.509E-01
RMM:   3    -0.932406638303E+02   -0.56987E-02   -0.26990E-02 98614   0.104E+00    0.125E+00
RMM:   4    -0.932368472868E+02    0.38165E-02   -0.69399E-03 92790   0.526E-01    0.356E-01
RMM:   5    -0.932378408344E+02   -0.99355E-03   -0.36254E-03 93486   0.319E-01    0.668E-01
RMM:   6    -0.932365083321E+02    0.13325E-02   -0.12697E-03 68654   0.234E-01    0.126E-01
RMM:   7    -0.932366186176E+02   -0.11029E-03   -0.61296E-04 58464   0.103E-01
  30 F= -.99342141E+02 E0= -.99332187E+02  d E =-.322279E-01  mag=    -0.0000
 ZBRENT: can't locate minimum, use default step
 trial-energy change:   -0.032228  1 .order   -0.032954   -0.033291   -0.032618
 step:   0.0593(harm=  0.7337)  dis= 0.01009  next Energy=  -100.134120 (dE=-0.824E+00)
 bond charge predicted
       N       E                     dE             d eps       ncg     rms          rms(c)
DAV:   1    -0.932351770775E+02    0.13313E-02   -0.25534E+00102336   0.259E+01    0.162E+00
RMM:   2    -0.933321237722E+02   -0.96947E-01   -0.10488E+00119004   0.536E+00    0.221E+00
RMM:   3    -0.933706829212E+02   -0.38559E-01   -0.25263E-01102948   0.319E+00    0.331E+00
RMM:   4    -0.933518972079E+02    0.18786E-01   -0.67372E-02 94834   0.161E+00    0.210E+00
RMM:   5    -0.933421787529E+02    0.97185E-02   -0.28245E-02 99776   0.940E-01    0.849E-01
RMM:   6    -0.933424925397E+02   -0.31379E-03   -0.12037E-02 89822   0.630E-01    0.684E-01
RMM:   7    -0.933446417171E+02   -0.21492E-02   -0.64050E-03 99764   0.292E-01    0.750E-01
RMM:   8    -0.933411866273E+02    0.34551E-02   -0.18664E-03 75258   0.198E-01    0.610E-01
RMM:   9    -0.933349239580E+02    0.62627E-02   -0.98761E-03109178   0.391E-01    0.307E-01
RMM:  10    -0.933371190036E+02   -0.21950E-02   -0.21999E-03 84768   0.192E-01    0.121E-01
RMM:  11    -0.933374789366E+02   -0.35993E-03   -0.55282E-04 56544   0.119E-01    0.571E-02
RMM:  12    -0.933375062304E+02   -0.27294E-04   -0.16502E-04 49524   0.812E-02
  31 F= -.99439028E+02 E0= -.99429235E+02  d E =-.129114E+00  mag=     0.0000
 curvature:  -0.24 expect dE=-0.606E+00 dE for cont linesearch -0.943E-01
 ZBRENT: increasing intervall
 opt :   0.1482  next Energy=   -99.633556 (dE=-0.324E+00)
 bond charge predicted
       N       E                     dE             d eps       ncg     rms          rms(c)
DAV:   1    -0.931215938013E+02    0.21589E+00   -0.10312E+01101712   0.519E+01    0.325E+00
RMM:   2    -0.935624040422E+02   -0.44081E+00   -0.42727E+00119508   0.107E+01    0.617E+00
RMM:   3    -0.936153173661E+02   -0.52913E-01   -0.98550E-01102164   0.633E+00    0.542E+00
RMM:   4    -0.936077993940E+02    0.75180E-02   -0.30033E-01 98750   0.322E+00    0.528E+00
RMM:   5    -0.935365913143E+02    0.71208E-01   -0.11129E-01 92542   0.211E+00    0.151E+00
RMM:   6    -0.935312176670E+02    0.53736E-02   -0.47098E-02 94912   0.126E+00    0.602E-01
RMM:   7    -0.935310725702E+02    0.14510E-03   -0.18719E-02100174   0.663E-01    0.522E-01
RMM:   8    -0.935321212466E+02   -0.10487E-02   -0.84978E-03110194   0.337E-01    0.451E-01
RMM:   9    -0.935319706214E+02    0.15063E-03   -0.20947E-03 85134   0.151E-01    0.433E-01
RMM:  10    -0.935306863171E+02    0.12843E-02   -0.73519E-04 60260   0.140E-01    0.371E-01
RMM:  11    -0.935292181736E+02    0.14681E-02   -0.27663E-03 90428   0.226E-01    0.171E-01
RMM:  12    -0.935293677631E+02   -0.14959E-03   -0.13808E-03 73568   0.137E-01
  32 F= -.99632338E+02 E0= -.99622812E+02  d E =-.322424E+00  mag=     0.0000
 curvature:  -0.49 expect dE=-0.995E+00 dE for cont linesearch -0.194E+00
 ZBRENT: increasing intervall
 opt :   0.3260  next Energy=  -100.021302 (dE=-0.711E+00)
 bond charge predicted
       N       E                     dE             d eps       ncg     rms          rms(c)
DAV:   1    -0.922636112684E+02    0.12656E+01   -0.42325E+01102288   0.104E+02    0.658E+00
RMM:   2    -0.943991383319E+02   -0.21355E+01   -0.17874E+01123974   0.222E+01    0.173E+01
RMM:   3    -0.941140921727E+02    0.28505E+00   -0.37872E+00 98858   0.126E+01    0.920E+00
RMM:   4    -0.943796072037E+02   -0.26552E+00   -0.14690E+00101046   0.685E+00    0.141E+01
RMM:   5    -0.938876252081E+02    0.49198E+00   -0.49322E-01 90692   0.468E+00    0.275E+00
RMM:   6    -0.938704858403E+02    0.17139E-01   -0.18392E-01 96218   0.241E+00    0.124E+00
RMM:   7    -0.938731578746E+02   -0.26720E-02   -0.77337E-02101950   0.142E+00    0.115E+00
RMM:   8    -0.938743011666E+02   -0.11433E-02   -0.37923E-02116704   0.732E-01    0.656E-01
RMM:   9    -0.938779852956E+02   -0.36841E-02   -0.11079E-02114890   0.318E-01    0.745E-01
RMM:  10    -0.938749622301E+02    0.30231E-02   -0.27410E-03 85916   0.218E-01    0.655E-01
RMM:  11    -0.938673637641E+02    0.75985E-02   -0.11379E-02112518   0.421E-01    0.286E-01
RMM:  12    -0.938700370400E+02   -0.26733E-02   -0.27344E-03 87626   0.221E-01    0.126E-01
RMM:  13    -0.938705251940E+02   -0.48815E-03   -0.89322E-04 65352   0.124E-01    0.652E-02
RMM:  14    -0.938705873542E+02   -0.62160E-04   -0.25779E-04 51250   0.894E-02
  33 F= -.99991558E+02 E0= -.99982071E+02  d E =-.681644E+00  mag=     0.0000
 curvature:  -0.99 expect dE=-0.410E+00 dE for cont linesearch -0.189E+00
 ZBRENT: increasing intervall
 opt :   0.6816  next Energy=  -100.297734 (dE=-0.988E+00)
 bond charge predicted
       N       E                     dE             d eps       ncg     rms          rms(c)
DAV:   1    -0.881814212881E+02    0.56891E+01   -0.18586E+02103728   0.211E+02    0.136E+01
RMM:   2    -0.101170840462E+03   -0.12989E+02   -0.81174E+01126222   0.477E+01    0.535E+01
RMM:   3    -0.955762005852E+02    0.55946E+01   -0.15531E+01 93542   0.267E+01    0.195E+01
RMM:   4    -0.962566283943E+02   -0.68043E+00   -0.69494E+00100092   0.148E+01    0.245E+01
RMM:   5    -0.944458768296E+02    0.18108E+01   -0.20013E+00 89246   0.946E+00    0.625E+00
RMM:   6    -0.943036488812E+02    0.14223E+00   -0.69564E-01 95558   0.483E+00    0.309E+00
RMM:   7    -0.943589571492E+02   -0.55308E-01   -0.36780E-01 94264   0.322E+00    0.308E+00
RMM:   8    -0.943828428302E+02   -0.23886E-01   -0.22164E-01120952   0.169E+00    0.198E+00
RMM:   9    -0.944132562583E+02   -0.30413E-01   -0.68587E-02126698   0.777E-01    0.224E+00
RMM:  10    -0.943963287888E+02    0.16927E-01   -0.13713E-02106744   0.425E-01    0.210E+00
RMM:  11    -0.943357951210E+02    0.60534E-01   -0.78140E-02131896   0.112E+00    0.131E+00
RMM:  12    -0.943313469811E+02    0.44481E-02   -0.52851E-02125488   0.855E-01    0.101E+00
RMM:  13    -0.943448062224E+02   -0.13459E-01   -0.21668E-02108894   0.568E-01    0.643E-01
RMM:  14    -0.943487816486E+02   -0.39754E-02   -0.71796E-03 91612   0.427E-01    0.342E-01
RMM:  15    -0.943489620964E+02   -0.18045E-03   -0.39205E-03 87990   0.264E-01    0.231E-01
RMM:  16    -0.943492025466E+02   -0.24045E-03   -0.84790E-04 63030   0.147E-01    0.878E-02
RMM:  17    -0.943493633822E+02   -0.16084E-03   -0.40167E-04 54180   0.906E-02
  34 F= -.10015490E+03 E0= -.10014567E+03  d E =-.844987E+00  mag=    -0.0000
 curvature:  -1.60 expect dE=-0.202E+01 dE for cont linesearch -0.939E-01
 ZBRENT: increasing intervall
 opt :   1.3928  next Energy=  -100.271509 (dE=-0.962E+00)
 bond charge predicted
       N       E                     dE             d eps       ncg     rms          rms(c)
DAV:   1    -0.755116987257E+02    0.18838E+02   -0.96479E+02120864   0.405E+02    0.292E+01
RMM:   2    -0.153619623362E+03   -0.78108E+02   -0.33414E+02127590   0.108E+02    0.977E+01
RMM:   3    -0.941874689996E+02    0.59432E+02   -0.76946E+01 90812   0.627E+01    0.193E+01
RMM:   4    -0.103095926667E+03   -0.89085E+01   -0.27443E+01109858   0.278E+01    0.479E+01
RMM:   5    -0.946053109312E+02    0.84906E+01   -0.86092E+00 94524   0.188E+01    0.108E+01
RMM:   6    -0.940618544963E+02    0.54346E+00   -0.30641E+00 98608   0.955E+00    0.530E+00
RMM:   7    -0.941427277689E+02   -0.80873E-01   -0.16792E+00 98748   0.641E+00    0.453E+00
RMM:   8    -0.943026408460E+02   -0.15991E+00   -0.11418E+00126522   0.317E+00    0.329E+00
RMM:   9    -0.944253959386E+02   -0.12276E+00   -0.32469E-01129092   0.165E+00    0.325E+00
RMM:  10    -0.945119550086E+02   -0.86559E-01   -0.15219E-01124184   0.115E+00    0.290E+00
RMM:  11    -0.946340816949E+02   -0.12213E+00   -0.36875E-01130776   0.196E+00    0.320E+00
RMM:  12    -0.946290895159E+02    0.49922E-02   -0.18360E-01126776   0.111E+00    0.221E+00
RMM:  13    -0.946228075690E+02    0.62819E-02   -0.47341E-02118431   0.676E-01    0.100E+00
RMM:  14    -0.946256045480E+02   -0.27970E-02   -0.14323E-02108750   0.443E-01    0.708E-01
RMM:  15    -0.946286617925E+02   -0.30572E-02   -0.15733E-02 98522   0.504E-01    0.335E-01
RMM:  16    -0.946298700425E+02   -0.12082E-02   -0.28935E-03 84364   0.246E-01    0.163E-01
RMM:  17    -0.946300083527E+02   -0.13831E-03   -0.12713E-03 70936   0.156E-01
  35 F= -.99789967E+02 E0= -.99778947E+02  d E =-.480054E+00  mag=     0.0000
 curvature:  -1.99 expect dE=-0.792E+01 dE for cont linesearch -0.807E+00
 ZBRENT: bracketing found
 ZBRENT: interpolating
 opt :   0.8775  next Energy=  -100.237671 (dE=-0.928E+00)
 bond charge predicted
       N       E                     dE             d eps       ncg     rms          rms(c)
DAV:   1    -0.842409923403E+02    0.10389E+02   -0.41312E+02109488   0.272E+02    0.181E+01
RMM:   2    -0.930784653800E+02   -0.88375E+01   -0.11382E+02115848   0.632E+01    0.205E+01
RMM:   3    -0.992301756854E+02   -0.61517E+01   -0.39983E+01123582   0.350E+01    0.323E+01
RMM:   4    -0.957553657747E+02    0.34748E+01   -0.82862E+00 89676   0.183E+01    0.137E+01
RMM:   5    -0.960415563160E+02   -0.28619E+00   -0.35118E+00 98806   0.110E+01    0.179E+01
RMM:   6    -0.951385850289E+02    0.90297E+00   -0.13989E+00 87930   0.771E+00    0.670E+00
RMM:   7    -0.951370486725E+02    0.15364E-02   -0.51849E-01113080   0.322E+00    0.514E+00
RMM:   8    -0.951315294161E+02    0.55193E-02   -0.22440E-01107730   0.198E+00    0.383E+00
RMM:   9    -0.951089132535E+02    0.22616E-01   -0.27505E-01115748   0.163E+00    0.114E+00
RMM:  10    -0.951152867488E+02   -0.63735E-02   -0.78775E-02118137   0.105E+00    0.653E-01
RMM:  11    -0.951178839855E+02   -0.25972E-02   -0.23781E-02123760   0.514E-01    0.736E-01
RMM:  12    -0.951173964106E+02    0.48757E-03   -0.67956E-03 91637   0.410E-01    0.296E-01
RMM:  13    -0.951180633139E+02   -0.66690E-03   -0.31607E-03 92132   0.190E-01    0.350E-01
RMM:  14    -0.951181057084E+02   -0.42395E-04   -0.12391E-03 66956   0.141E-01
  36 F= -.10091621E+03 E0= -.10090521E+03  d E =-.160630E+01  mag=     0.0000
 curvature:  -0.20 expect dE=-0.324E+00 dE for cont linesearch -0.140E-03
 trial: gam= 0.81745 g(F)=  0.269E+00 g(S)=  0.132E+01 ort = 0.914E-01 (trialstep = 0.187E+00)
 search vector abs. value=  0.989E+01
 bond charge predicted
       N       E                     dE             d eps       ncg     rms          rms(c)
DAV:   1    -0.944571752233E+02    0.66089E+00   -0.40198E+01 85296   0.873E+01    0.770E+00
RMM:   2    -0.953413192391E+02   -0.88414E+00   -0.15132E+01117414   0.227E+01    0.637E+00
RMM:   3    -0.961447890650E+02   -0.80347E+00   -0.45412E+00100374   0.144E+01    0.164E+01
RMM:   4    -0.954700614236E+02    0.67473E+00   -0.13399E+00 97282   0.728E+00    0.430E+00
RMM:   5    -0.955770568277E+02   -0.10700E+00   -0.62535E-01106136   0.432E+00    0.831E+00
RMM:   6    -0.953980699826E+02    0.17899E+00   -0.20169E-01 89004   0.280E+00    0.117E+00
RMM:   7    -0.954025335032E+02   -0.44635E-02   -0.76400E-02121710   0.110E+00    0.928E-01
RMM:   8    -0.953983784500E+02    0.41551E-02   -0.19154E-02113790   0.568E-01    0.421E-01
RMM:   9    -0.953986710046E+02   -0.29255E-03   -0.75835E-03111840   0.348E-01    0.239E-01
RMM:  10    -0.953986047301E+02    0.66275E-04   -0.21235E-03 84974   0.192E-01    0.128E-01
RMM:  11    -0.953986841819E+02   -0.79452E-04   -0.60174E-04 57770   0.112E-01
  37 F= -.10115422E+03 E0= -.10114338E+03  d E =-.238013E+00  mag=    -0.0000
 trial-energy change:   -0.238013  1 .order   -0.033697   -0.311488    0.244095
 step:   0.1587(harm=  0.1050)  dis= 0.01955  next Energy=  -101.172183 (dE=-0.256E+00)
 bond charge predicted
       N       E                     dE             d eps       ncg     rms          rms(c)
DAV:   1    -0.953375889057E+02    0.61016E-01   -0.91298E-01 99264   0.131E+01    0.117E+00
RMM:   2    -0.953557473458E+02   -0.18158E-01   -0.34561E-01115650   0.337E+00    0.778E-01
RMM:   3    -0.953668554057E+02   -0.11108E-01   -0.93773E-02100848   0.206E+00    0.166E+00
RMM:   4    -0.953633435040E+02    0.35119E-02   -0.32688E-02105510   0.104E+00    0.115E+00
RMM:   5    -0.953610460270E+02    0.22975E-02   -0.13718E-02 92232   0.706E-01    0.881E-01
RMM:   6    -0.953595535022E+02    0.14925E-02   -0.47274E-03 85818   0.396E-01    0.366E-01
RMM:   7    -0.953591758774E+02    0.37762E-03   -0.15276E-03 74144   0.192E-01    0.113E-01
RMM:   8    -0.953591031561E+02    0.72721E-04   -0.65405E-04 59402   0.110E-01
  38 F= -.10115029E+03 E0= -.10113944E+03  d E =-.234078E+00  mag=    -0.0000
 curvature:  -0.18 expect dE=-0.219E+00 dE for cont linesearch -0.160E-01
 ZBRENT: interpolating
 opt :   0.1707  next Energy=  -101.155926 (dE=-0.240E+00)
 bond charge predicted
       N       E                     dE             d eps       ncg     rms          rms(c)
DAV:   1    -0.953720025429E+02   -0.12827E-01   -0.16328E-01 98784   0.550E+00    0.490E-01
RMM:   2    -0.953761340075E+02   -0.41315E-02   -0.61283E-02114426   0.143E+00    0.677E-01
RMM:   3    -0.953787194402E+02   -0.25854E-02   -0.16763E-02102588   0.866E-01    0.106E+00
RMM:   4    -0.953759874382E+02    0.27320E-02   -0.63347E-03 91528   0.511E-01    0.190E-01
RMM:   5    -0.953758189318E+02    0.16851E-03   -0.18655E-03 80978   0.268E-01
  39 F= -.10115916E+03 E0= -.10114831E+03  d E =-.242948E+00  mag=    -0.0000
 curvature:  -0.06 expect dE=-0.619E-01 dE for cont linesearch -0.118E-02
 trial: gam=-0.09951 g(F)=  0.399E+00 g(S)=  0.579E+00 ort = 0.430E+00 (trialstep = 0.184E+00)
 search vector abs. value=  0.991E+00
 bond charge predicted
       N       E                     dE             d eps       ncg     rms          rms(c)
DAV:   1    -0.955518029532E+02   -0.17582E+00   -0.26251E+00105552   0.165E+01    0.221E+00
RMM:   2    -0.956884204991E+02   -0.13662E+00   -0.68178E-01112850   0.515E+00    0.762E+00
RMM:   3    -0.955613162616E+02    0.12710E+00   -0.26142E-01 94804   0.366E+00    0.237E+00
RMM:   4    -0.955822002685E+02   -0.20884E-01   -0.10429E-01 93672   0.201E+00    0.328E+00
RMM:   5    -0.955558389671E+02    0.26361E-01   -0.60457E-02 88130   0.161E+00    0.160E+00
RMM:   6    -0.955473334300E+02    0.85055E-02   -0.22129E-02 88118   0.995E-01    0.371E-01
RMM:   7    -0.955472807376E+02    0.52692E-04   -0.80374E-03110448   0.330E-01    0.215E-01
RMM:   8    -0.955469822381E+02    0.29850E-03   -0.15378E-03 76946   0.184E-01    0.110E-01
RMM:   9    -0.955469890344E+02   -0.67964E-05   -0.59422E-04 56612   0.112E-01
  40 F= -.10130491E+03 E0= -.10129428E+03  d E =-.145747E+00  mag=    -0.0000
 trial-energy change:   -0.145747  1 .order   -0.143120   -0.172210   -0.114031
 step:   0.4091(harm=  0.5447)  dis= 0.02155  next Energy=  -101.379458 (dE=-0.220E+00)
 bond charge predicted
       N       E                     dE             d eps       ncg     rms          rms(c)
DAV:   1    -0.957291701546E+02   -0.18219E+00   -0.39130E+00105984   0.202E+01    0.268E+00
RMM:   2    -0.959169502337E+02   -0.18778E+00   -0.99877E-01113092   0.623E+00    0.900E+00
RMM:   3    -0.957449764816E+02    0.17197E+00   -0.38194E-01 95192   0.442E+00    0.298E+00
RMM:   4    -0.957681245904E+02   -0.23148E-01   -0.15052E-01 94372   0.243E+00    0.369E+00
RMM:   5    -0.957371306435E+02    0.30994E-01   -0.87709E-02 88978   0.193E+00    0.207E+00
RMM:   6    -0.957228716417E+02    0.14259E-01   -0.33489E-02 88798   0.121E+00    0.461E-01
RMM:   7    -0.957228878436E+02   -0.16202E-04   -0.12133E-02115020   0.399E-01    0.274E-01
RMM:   8    -0.957224942663E+02    0.39358E-03   -0.23905E-03 87866   0.210E-01    0.136E-01
RMM:   9    -0.957224889410E+02    0.53253E-05   -0.92154E-04 65356   0.130E-01
  41 F= -.10133688E+03 E0= -.10132658E+03  d E =-.177725E+00  mag=    -0.0000
 curvature:  -0.25 expect dE=-0.573E+01 dE for cont linesearch -0.112E+00
 ZBRENT: interpolating
 opt :   0.2922  next Energy=  -101.338432 (dE=-0.179E+00)
 bond charge predicted
       N       E                     dE             d eps       ncg     rms          rms(c)
DAV:   1    -0.956366346032E+02    0.85860E-01   -0.10453E+00102144   0.105E+01    0.141E+00
RMM:   2    -0.956906644296E+02   -0.54030E-01   -0.28731E-01114844   0.335E+00    0.461E+00
RMM:   3    -0.956419519900E+02    0.48712E-01   -0.11130E-01 93374   0.240E+00    0.153E+00
RMM:   4    -0.956508642785E+02   -0.89123E-02   -0.42637E-02 97750   0.127E+00    0.225E+00
RMM:   5    -0.956392347258E+02    0.11630E-01   -0.22427E-02 86366   0.978E-01    0.960E-01
RMM:   6    -0.956361555887E+02    0.30791E-02   -0.84336E-03 86278   0.611E-01    0.195E-01
RMM:   7    -0.956361484287E+02    0.71600E-05   -0.29613E-03 91978   0.207E-01    0.170E-01
RMM:   8    -0.956360198802E+02    0.12855E-03   -0.48635E-04 54136   0.126E-01
  42 F= -.10135484E+03 E0= -.10134446E+03  d E =-.195683E+00  mag=     0.0000
 curvature:  -0.07 expect dE=-0.330E+00 dE for cont linesearch -0.425E-02
 ZBRENT: interpolating
 opt :   0.3421  next Energy=  -101.362359 (dE=-0.203E+00)
 bond charge predicted
       N       E                     dE             d eps       ncg     rms          rms(c)
DAV:   1    -0.956745904954E+02   -0.38442E-01   -0.19632E-01106368   0.450E+00    0.618E-01
RMM:   2    -0.956863979138E+02   -0.11807E-01   -0.52813E-02111430   0.144E+00    0.221E+00
RMM:   3    -0.956751170413E+02    0.11281E-01   -0.21279E-02 90046   0.106E+00    0.631E-01
RMM:   4    -0.956771468346E+02   -0.20298E-02   -0.81315E-03 91996   0.557E-01    0.967E-01
RMM:   5    -0.956747182741E+02    0.24286E-02   -0.43128E-03 75888   0.440E-01    0.397E-01
RMM:   6    -0.956741974986E+02    0.52078E-03   -0.15424E-03 71132   0.264E-01    0.895E-02
RMM:   7    -0.956741835337E+02    0.13965E-04   -0.48070E-04 56358   0.946E-02
  43 F= -.10136024E+03 E0= -.10134992E+03  d E =-.201084E+00  mag=    -0.0000
 curvature:  -0.13 expect dE=-0.119E+01 dE for cont linesearch -0.470E-03
 trial: gam= 9.79774 g(F)=  0.374E+01 g(S)=  0.537E+01 ort =-0.596E-01 (trialstep = 0.207E-02)
 search vector abs. value=  0.103E+03
 bond charge predicted
       N       E                     dE             d eps       ncg     rms          rms(c)
DAV:   1    -0.956851168800E+02   -0.10919E-01   -0.28218E-02103440   0.165E+00    0.200E-01
RMM:   2    -0.956853549801E+02   -0.23810E-03   -0.66536E-03117470   0.486E-01    0.206E-01
RMM:   3    -0.956859026158E+02   -0.54764E-03   -0.18820E-03 79020   0.293E-01    0.464E-01
RMM:   4    -0.956852945887E+02    0.60803E-03   -0.73930E-04 62810   0.193E-01    0.895E-02
RMM:   5    -0.956854144153E+02   -0.11983E-03   -0.37052E-04 51352   0.126E-01
  44 F= -.10137742E+03 E0= -.10136716E+03  d E =-.171764E-01  mag=     0.0000
 ZBRENT: can't locate minimum, use default step
 trial-energy change:   -0.017176  1 .order   -0.017059   -0.017667   -0.016451
 step:   0.0083(harm=  0.0301)  dis= 0.00490  next Energy=  -101.488646 (dE=-0.128E+00)
 bond charge predicted
       N       E                     dE             d eps       ncg     rms          rms(c)
DAV:   1    -0.957145432805E+02   -0.29249E-01   -0.25123E-01 84864   0.493E+00    0.574E-01
RMM:   2    -0.957195108614E+02   -0.49676E-02   -0.64396E-02122292   0.154E+00    0.106E+00
RMM:   3    -0.957190509713E+02    0.45989E-03   -0.16625E-02 99026   0.874E-01    0.851E-01
RMM:   4    -0.957175457256E+02    0.15052E-02   -0.62220E-03 97442   0.471E-01    0.419E-01
RMM:   5    -0.957179465497E+02   -0.40082E-03   -0.31024E-03 77896   0.362E-01    0.623E-01
RMM:   6    -0.957169881661E+02    0.95838E-03   -0.14692E-03 69620   0.250E-01    0.994E-02
RMM:   7    -0.957169688250E+02    0.19341E-04   -0.53482E-04 57724   0.103E-01
  45 F= -.10142143E+03 E0= -.10141123E+03  d E =-.611894E-01  mag=     0.0000
 curvature:  -0.07 expect dE=-0.500E+00 dE for cont linesearch -0.273E-01
 ZBRENT: increasing intervall
 opt :   0.0207  next Energy=  -101.478447 (dE=-0.118E+00)
 bond charge predicted
       N       E                     dE             d eps       ncg     rms          rms(c)
DAV:   1    -0.957638305519E+02   -0.46842E-01   -0.99675E-01 84864   0.987E+00    0.117E+00
RMM:   2    -0.957800397567E+02   -0.16209E-01   -0.25526E-01123126   0.310E+00    0.186E+00
RMM:   3    -0.957834973998E+02   -0.34576E-02   -0.68334E-02100972   0.176E+00    0.196E+00
RMM:   4    -0.957757307307E+02    0.77667E-02   -0.27417E-02 98020   0.101E+00    0.100E+00
RMM:   5    -0.957767870826E+02   -0.10564E-02   -0.13947E-02 87814   0.763E-01    0.132E+00
RMM:   6    -0.957725910880E+02    0.41960E-02   -0.65237E-03 82690   0.514E-01    0.238E-01
RMM:   7    -0.957725353318E+02    0.55756E-04   -0.26295E-03 90262   0.194E-01    0.134E-01
RMM:   8    -0.957724426486E+02    0.92683E-04   -0.66307E-04 58980   0.117E-01
  46 F= -.10147850E+03 E0= -.10146844E+03  d E =-.118252E+00  mag=    -0.0000
 curvature:  -0.15 expect dE=-0.115E+01 dE for cont linesearch -0.141E-01
 ZBRENT: increasing intervall
 opt :   0.0456  next Energy=  -101.477917 (dE=-0.118E+00)
 bond charge predicted
       N       E                     dE             d eps       ncg     rms          rms(c)
DAV:   1    -0.958174607057E+02   -0.44925E-01   -0.39797E+00 84864   0.198E+01    0.230E+00
RMM:   2    -0.958791655391E+02   -0.61705E-01   -0.10242E+00123388   0.609E+00    0.343E+00
RMM:   3    -0.959030747676E+02   -0.23909E-01   -0.27250E-01101130   0.351E+00    0.413E+00
RMM:   4    -0.958706968986E+02    0.32378E-01   -0.11515E-01 97856   0.210E+00    0.227E+00
RMM:   5    -0.958709041587E+02   -0.20726E-03   -0.57575E-02 87074   0.157E+00    0.263E+00
RMM:   6    -0.958541875430E+02    0.16717E-01   -0.26045E-02 87334   0.104E+00    0.557E-01
RMM:   7    -0.958539340346E+02    0.25351E-03   -0.10607E-02110562   0.377E-01    0.287E-01
RMM:   8    -0.958536317662E+02    0.30227E-03   -0.28815E-03 89766   0.208E-01    0.113E-01
RMM:   9    -0.958536790130E+02   -0.47247E-04   -0.97490E-04 66168   0.128E-01
  47 F= -.10150207E+03 E0= -.10149271E+03  d E =-.141827E+00  mag=     0.0000
 curvature:   0.01 expect dE= 0.686E-01 dE for cont linesearch  0.987E-05
 trial: gam= 0.48869 g(F)=  0.829E+01 g(S)=  0.288E+01 ort =-0.407E+00 (trialstep = 0.108E-01)
 search vector abs. value=  0.354E+02
 bond charge predicted
       N       E                     dE             d eps       ncg     rms          rms(c)
DAV:   1    -0.958371674400E+02    0.16464E-01   -0.37493E-01109440   0.958E+00    0.622E-01
RMM:   2    -0.958612461338E+02   -0.24079E-01   -0.14326E-01116168   0.211E+00    0.228E+00
RMM:   3    -0.958508503332E+02    0.10396E-01   -0.37206E-02 99208   0.131E+00    0.668E-01
RMM:   4    -0.958509343770E+02   -0.84044E-04   -0.91352E-03118050   0.445E-01    0.315E-01
RMM:   5    -0.958515142619E+02   -0.57988E-03   -0.21455E-03 76858   0.294E-01    0.575E-01
RMM:   6    -0.958505570827E+02    0.95718E-03   -0.10426E-03 66796   0.229E-01    0.898E-02
RMM:   7    -0.958505591955E+02   -0.21128E-05   -0.47172E-04 53192   0.123E-01
  48 F= -.10160280E+03 E0= -.10159367E+03  d E =-.100728E+00  mag=    -0.0000
 trial-energy change:   -0.100728  1 .order   -0.095154   -0.118351   -0.071957
 step:   0.0183(harm=  0.0275)  dis= 0.00595  next Energy=  -101.629786 (dE=-0.128E+00)
 bond charge predicted
       N       E                     dE             d eps       ncg     rms          rms(c)
DAV:   1    -0.958407232536E+02    0.98338E-02   -0.17904E-01105264   0.665E+00    0.408E-01
RMM:   2    -0.958491259606E+02   -0.84027E-02   -0.67553E-02120286   0.143E+00    0.106E+00
RMM:   3    -0.958479057591E+02    0.12202E-02   -0.16395E-02101118   0.838E-01    0.553E-01
RMM:   4    -0.958478715623E+02    0.34197E-04   -0.46385E-03105586   0.328E-01    0.371E-01
RMM:   5    -0.958475684202E+02    0.30314E-03   -0.11156E-03 65468   0.222E-01    0.268E-01
RMM:   6    -0.958473794119E+02    0.18901E-03   -0.41334E-04 51920   0.130E-01
  49 F= -.10163764E+03 E0= -.10162866E+03  d E =-.135570E+00  mag=    -0.0000
 curvature:  -0.03 expect dE=-0.222E-01 dE for cont linesearch -0.744E-02
 ZBRENT: increasing intervall
 opt :   0.0333  next Energy=  -101.625076 (dE=-0.123E+00)
 bond charge predicted
       N       E                     dE             d eps       ncg     rms          rms(c)
DAV:   1    -0.958124004262E+02    0.35168E-01   -0.72134E-01101808   0.133E+01    0.842E-01
RMM:   2    -0.958547698136E+02   -0.42369E-01   -0.27685E-01116828   0.291E+00    0.293E+00
RMM:   3    -0.958393534498E+02    0.15416E-01   -0.69779E-02102278   0.177E+00    0.918E-01
RMM:   4    -0.958392009499E+02    0.15250E-03   -0.17530E-02122608   0.608E-01    0.376E-01
RMM:   5    -0.958405037402E+02   -0.13028E-02   -0.41198E-03 82842   0.385E-01    0.791E-01
RMM:   6    -0.958386063815E+02    0.18974E-02   -0.21528E-03 74586   0.325E-01    0.122E-01
RMM:   7    -0.958385877127E+02    0.18669E-04   -0.91992E-04 68662   0.167E-01
  50 F= -.10165271E+03 E0= -.10164396E+03  d E =-.150644E+00  mag=     0.0000
 curvature:   0.05 expect dE= 0.264E-01 dE for cont linesearch  0.602E-05
 trial: gam= 0.12703 g(F)=  0.633E-01 g(S)=  0.443E+00 ort =-0.639E-01 (trialstep = 0.153E-01)
 search vector abs. value=  0.106E+01
 bond charge predicted
       N       E                     dE             d eps       ncg     rms          rms(c)
DAV:   1    -0.958455963512E+02   -0.69900E-02   -0.23277E-02107616   0.195E+00    0.212E-01
RMM:   2    -0.958465067613E+02   -0.91041E-03   -0.85413E-03114894   0.535E-01    0.544E-01
RMM:   3    -0.958461128978E+02    0.39386E-03   -0.25377E-03 80378   0.356E-01    0.328E-01
RMM:   4    -0.958459876599E+02    0.12524E-03   -0.92748E-04 69420   0.198E-01
  51 F= -.10166037E+03 E0= -.10165170E+03  d E =-.765057E-02  mag=    -0.0000
 ZBRENT: can't locate minimum, use default step
 trial-energy change:   -0.007651  1 .order   -0.007630   -0.007616   -0.007645
 step:   0.0612(harm=  0.0612)  dis= 0.00254  next Energy=  -101.683414 (dE=-0.307E-01)
 bond charge predicted
       N       E                     dE             d eps       ncg     rms          rms(c)
DAV:   1    -0.958646545014E+02   -0.18542E-01   -0.21001E-01 86400   0.581E+00    0.805E-01
RMM:   2    -0.959139412924E+02   -0.49287E-01   -0.11877E-01 99586   0.220E+00    0.439E+00
RMM:   3    -0.958668057600E+02    0.47136E-01   -0.44222E-02 91180   0.157E+00    0.592E-01
RMM:   4    -0.958673070435E+02   -0.50128E-03   -0.90054E-03 97604   0.594E-01    0.371E-01
RMM:   5    -0.958690008922E+02   -0.16938E-02   -0.58565E-03 85796   0.448E-01    0.859E-01
RMM:   6    -0.958667418912E+02    0.22590E-02   -0.25177E-03 73784   0.338E-01    0.138E-01
RMM:   7    -0.958667812595E+02   -0.39368E-04   -0.86441E-04 66540   0.114E-01
  52 F= -.10168188E+03 E0= -.10167340E+03  d E =-.291613E-01  mag=     0.0000
 curvature:  -0.10 expect dE=-0.467E-01 dE for cont linesearch -0.190E-01
 ZBRENT: increasing intervall
 opt :   0.1529  next Energy=  -101.719345 (dE=-0.666E-01)
 bond charge predicted
       N       E                     dE             d eps       ncg     rms          rms(c)
DAV:   1    -0.958951213074E+02   -0.28379E-01   -0.83587E-01 84864   0.115E+01    0.146E+00
RMM:   2    -0.960123742817E+02   -0.11725E+00   -0.39180E-01104272   0.392E+00    0.680E+00
RMM:   3    -0.959076082588E+02    0.10477E+00   -0.13873E-01 93692   0.273E+00    0.128E+00
RMM:   4    -0.959183942697E+02   -0.10786E-01   -0.40856E-02 96948   0.121E+00    0.199E+00
RMM:   5    -0.959073146410E+02    0.11080E-01   -0.23923E-02 87964   0.101E+00    0.857E-01
RMM:   6    -0.959048010246E+02    0.25136E-02   -0.79076E-03 88986   0.557E-01    0.240E-01
RMM:   7    -0.959047942168E+02    0.68078E-05   -0.29210E-03 89654   0.210E-01    0.170E-01
RMM:   8    -0.959046967470E+02    0.97470E-04   -0.56515E-04 56382   0.120E-01
  53 F= -.10172085E+03 E0= -.10171274E+03  d E =-.681368E-01  mag=     0.0000
 curvature:  -0.19 expect dE=-0.811E-01 dE for cont linesearch -0.294E-01
 ZBRENT: increasing intervall
 opt :   0.3365  next Energy=  -101.785067 (dE=-0.132E+00)
 bond charge predicted
       N       E                     dE             d eps       ncg     rms          rms(c)
DAV:   1    -0.959255934593E+02   -0.20799E-01   -0.33233E+00 84864   0.230E+01    0.287E+00
RMM:   2    -0.963688384707E+02   -0.44325E+00   -0.15348E+00104404   0.767E+00    0.132E+01
RMM:   3    -0.959784971371E+02    0.39034E+00   -0.53375E-01 93580   0.534E+00    0.254E+00
RMM:   4    -0.960155707582E+02   -0.37074E-01   -0.15933E-01 96600   0.240E+00    0.376E+00
RMM:   5    -0.959763972238E+02    0.39174E-01   -0.94814E-02 89204   0.202E+00    0.173E+00
RMM:   6    -0.959658362541E+02    0.10561E-01   -0.31460E-02 91838   0.111E+00    0.488E-01
RMM:   7    -0.959656295186E+02    0.20674E-03   -0.11007E-02114918   0.410E-01    0.287E-01
RMM:   8    -0.959653295238E+02    0.29999E-03   -0.22435E-03 87066   0.210E-01    0.179E-01
RMM:   9    -0.959652974088E+02    0.32115E-04   -0.10271E-03 68582   0.127E-01
  54 F= -.10177820E+03 E0= -.10177065E+03  d E =-.125483E+00  mag=    -0.0000
 curvature:  -0.42 expect dE=-0.739E-01 dE for cont linesearch -0.183E-01
 ZBRENT: increasing intervall
 opt :   0.7035  next Energy=  -101.788115 (dE=-0.135E+00)
 bond charge predicted
       N       E                     dE             d eps       ncg     rms          rms(c)
DAV:   1    -0.958646427885E+02    0.10069E+00   -0.13339E+01 84864   0.463E+01    0.540E+00
RMM:   2    -0.971563630534E+02   -0.12917E+01   -0.55606E+00106530   0.144E+01    0.220E+01
RMM:   3    -0.960941066499E+02    0.10623E+01   -0.18811E+00 95400   0.988E+00    0.484E+00
RMM:   4    -0.961947576932E+02   -0.10065E+00   -0.60416E-01 96554   0.477E+00    0.669E+00
RMM:   5    -0.960753793745E+02    0.11938E+00   -0.36448E-01 90554   0.396E+00    0.362E+00
RMM:   6    -0.960275549097E+02    0.47824E-01   -0.12512E-01 94624   0.218E+00    0.108E+00
RMM:   7    -0.960254223563E+02    0.21326E-02   -0.41681E-02125886   0.773E-01    0.399E-01
RMM:   8    -0.960249400671E+02    0.48229E-03   -0.81878E-03111286   0.354E-01    0.274E-01
RMM:   9    -0.960249101849E+02    0.29882E-04   -0.34589E-03 96306   0.219E-01    0.137E-01
RMM:  10    -0.960249624358E+02   -0.52251E-04   -0.97398E-04 62612   0.133E-01
  55 F= -.10167130E+03 E0= -.10166460E+03  d E =-.185843E-01  mag=     0.0000
 curvature:  -0.23 expect dE=-0.465E+01 dE for cont linesearch -0.245E+00
 ZBRENT: bracketing found
 ZBRENT: interpolating
 opt :   0.3980  next Energy=  -101.784796 (dE=-0.132E+00)
 bond charge predicted
       N       E                     dE             d eps       ncg     rms          rms(c)
DAV:   1    -0.958617990083E+02    0.16311E+00   -0.90586E+00 85056   0.382E+01    0.438E+00
RMM:   2    -0.965400951397E+02   -0.67830E+00   -0.38725E+00110974   0.123E+01    0.133E+01
RMM:   3    -0.960296939476E+02    0.51040E+00   -0.13106E+00 93472   0.824E+00    0.439E+00
RMM:   4    -0.959985253494E+02    0.31169E-01   -0.35862E-01106848   0.360E+00    0.223E+00
RMM:   5    -0.960610012990E+02   -0.62476E-01   -0.20075E-01 91478   0.272E+00    0.479E+00
RMM:   6    -0.959800059697E+02    0.80995E-01   -0.87271E-02 94012   0.188E+00    0.668E-01
RMM:   7    -0.959829689263E+02   -0.29630E-02   -0.24658E-02118138   0.640E-01    0.919E-01
RMM:   8    -0.959813276882E+02    0.16412E-02   -0.54591E-03 94742   0.328E-01    0.486E-01
RMM:   9    -0.959806519395E+02    0.67575E-03   -0.38002E-03 96516   0.236E-01    0.196E-01
RMM:  10    -0.959806812380E+02   -0.29299E-04   -0.92250E-04 65506   0.143E-01
  56 F= -.10178832E+03 E0= -.10178098E+03  d E =-.135602E+00  mag=     0.0000
 curvature:  -0.01 expect dE=-0.787E-03 dE for cont linesearch -0.717E-04
 trial: gam= 0.05294 g(F)=  0.328E-01 g(S)=  0.949E-01 ort = 0.111E+00 (trialstep = 0.918E-01)
 search vector abs. value=  0.142E+00
 reached required accuracy - stopping structural energy minimisation
