unknown system                          
           1
     5.694642   -5.712070    0.961842
     4.846892    5.032397    1.173203
     1.339800    0.042075    6.310377
   Fe   Se
     8     8
unknown system                          
           1
     5.694642   -5.712070    0.961842
     4.846892    5.032397    1.173203
     1.339800    0.042075    6.310377
   Fe   Se
     8     8
Direct configuration=     1
   0.97308282  0.96923907  0.01167774
   0.02691718  0.53076093  0.98832226
   0.47308282  0.96923907  0.01167774
   0.52691718  0.53076093  0.98832226
   0.25000000  0.25000000  0.00000000
   0.25000000  0.75000000  0.00000000
   0.75000000  0.25000000  0.00000000
   0.75000000  0.75000000  0.00000000
   0.32927823  0.07341952  0.72258873
   0.34727156  0.58142453  0.72308468
   0.82927823  0.07341952  0.72258873
   0.84727156  0.58142453  0.72308468
   0.17072177  0.42658048  0.27741127
   0.15272844  0.91857547  0.27691532
   0.67072177  0.42658048  0.27741127
   0.65272844  0.91857547  0.27691532
