  16  16   1   0
  0.1993750E+02  0.7083892E-09  0.6781167E-09  0.7139807E-09  0.5000000E-15
  1.000000000000000E-004
  CAR 
 unknown system                          
      8.84339853    -52.90176694  301      3.34084478      1.00000000
    -52.902  0.0000E+00  0.0000E+00  0.0000E+00  0.0000E+00
    -52.696  0.0000E+00  0.0000E+00  0.0000E+00  0.0000E+00
    -52.490  0.0000E+00  0.0000E+00  0.0000E+00  0.0000E+00
    -52.284  0.0000E+00  0.0000E+00  0.0000E+00  0.0000E+00
    -52.078  0.0000E+00  0.0000E+00  0.0000E+00  0.0000E+00
    -51.873  0.0000E+00  0.0000E+00  0.0000E+00  0.0000E+00
    -51.667  0.0000E+00  0.0000E+00  0.0000E+00  0.0000E+00
    -51.461  0.0000E+00  0.0000E+00  0.0000E+00  0.0000E+00
    -51.255  0.0000E+00  0.0000E+00  0.0000E+00  0.0000E+00
    -51.049  0.0000E+00  0.0000E+00  0.0000E+00  0.0000E+00
    -50.844  0.0000E+00  0.0000E+00  0.0000E+00  0.0000E+00
    -50.638  0.0000E+00  0.0000E+00  0.0000E+00  0.0000E+00
    -50.432  0.0000E+00  0.0000E+00  0.0000E+00  0.0000E+00
    -50.226  0.2084E-05  0.2084E-05  0.4289E-06  0.4289E-06
    -50.020  0.1622E+00  0.1622E+00  0.3339E-01  0.3339E-01
    -49.815  0.3587E-01  0.3587E-01  0.4077E-01  0.4077E-01
    -49.609  0.3203E+00  0.3203E+00  0.1067E+00  0.1067E+00
    -49.403  0.5795E+00  0.5795E+00  0.2260E+00  0.2260E+00
    -49.197  0.7996E-01  0.7996E-01  0.2424E+00  0.2424E+00
    -48.991  0.1071E-06  0.1071E-06  0.2424E+00  0.2424E+00
    -48.785  0.0000E+00  0.0000E+00  0.2424E+00  0.2424E+00
    -48.580  0.0000E+00  0.0000E+00  0.2424E+00  0.2424E+00
    -48.374  0.0000E+00  0.0000E+00  0.2424E+00  0.2424E+00
    -48.168  0.0000E+00  0.0000E+00  0.2424E+00  0.2424E+00
    -47.962  0.0000E+00  0.0000E+00  0.2424E+00  0.2424E+00
    -47.756  0.0000E+00  0.0000E+00  0.2424E+00  0.2424E+00
    -47.551  0.0000E+00  0.0000E+00  0.2424E+00  0.2424E+00
    -47.345  0.0000E+00  0.0000E+00  0.2424E+00  0.2424E+00
    -47.139  0.0000E+00  0.0000E+00  0.2424E+00  0.2424E+00
    -46.933  0.0000E+00  0.0000E+00  0.2424E+00  0.2424E+00
    -46.727  0.0000E+00  0.0000E+00  0.2424E+00  0.2424E+00
    -46.521  0.0000E+00  0.0000E+00  0.2424E+00  0.2424E+00
    -46.316  0.0000E+00  0.0000E+00  0.2424E+00  0.2424E+00
    -46.110  0.0000E+00  0.0000E+00  0.2424E+00  0.2424E+00
    -45.904  0.0000E+00  0.0000E+00  0.2424E+00  0.2424E+00
    -45.698  0.0000E+00  0.0000E+00  0.2424E+00  0.2424E+00
    -45.492  0.0000E+00  0.0000E+00  0.2424E+00  0.2424E+00
    -45.287  0.0000E+00  0.0000E+00  0.2424E+00  0.2424E+00
    -45.081  0.0000E+00  0.0000E+00  0.2424E+00  0.2424E+00
    -44.875  0.0000E+00  0.0000E+00  0.2424E+00  0.2424E+00
    -44.669  0.0000E+00  0.0000E+00  0.2424E+00  0.2424E+00
    -44.463  0.0000E+00  0.0000E+00  0.2424E+00  0.2424E+00
    -44.257  0.0000E+00  0.0000E+00  0.2424E+00  0.2424E+00
    -44.052  0.0000E+00  0.0000E+00  0.2424E+00  0.2424E+00
    -43.846  0.0000E+00  0.0000E+00  0.2424E+00  0.2424E+00
    -43.640  0.0000E+00  0.0000E+00  0.2424E+00  0.2424E+00
    -43.434  0.0000E+00  0.0000E+00  0.2424E+00  0.2424E+00
    -43.228  0.0000E+00  0.0000E+00  0.2424E+00  0.2424E+00
    -43.023  0.0000E+00  0.0000E+00  0.2424E+00  0.2424E+00
    -42.817  0.0000E+00  0.0000E+00  0.2424E+00  0.2424E+00
    -42.611  0.0000E+00  0.0000E+00  0.2424E+00  0.2424E+00
    -42.405  0.0000E+00  0.0000E+00  0.2424E+00  0.2424E+00
    -42.199  0.0000E+00  0.0000E+00  0.2424E+00  0.2424E+00
    -41.993  0.0000E+00  0.0000E+00  0.2424E+00  0.2424E+00
    -41.788  0.0000E+00  0.0000E+00  0.2424E+00  0.2424E+00
    -41.582  0.0000E+00  0.0000E+00  0.2424E+00  0.2424E+00
    -41.376  0.0000E+00  0.0000E+00  0.2424E+00  0.2424E+00
    -41.170  0.0000E+00  0.0000E+00  0.2424E+00  0.2424E+00
    -40.964  0.0000E+00  0.0000E+00  0.2424E+00  0.2424E+00
    -40.759  0.0000E+00  0.0000E+00  0.2424E+00  0.2424E+00
    -40.553  0.0000E+00  0.0000E+00  0.2424E+00  0.2424E+00
    -40.347  0.0000E+00  0.0000E+00  0.2424E+00  0.2424E+00
    -40.141  0.0000E+00  0.0000E+00  0.2424E+00  0.2424E+00
    -39.935  0.0000E+00  0.0000E+00  0.2424E+00  0.2424E+00
    -39.729  0.0000E+00  0.0000E+00  0.2424E+00  0.2424E+00
    -39.524  0.0000E+00  0.0000E+00  0.2424E+00  0.2424E+00
    -39.318  0.0000E+00  0.0000E+00  0.2424E+00  0.2424E+00
    -39.112  0.0000E+00  0.0000E+00  0.2424E+00  0.2424E+00
    -38.906  0.0000E+00  0.0000E+00  0.2424E+00  0.2424E+00
    -38.700  0.0000E+00  0.0000E+00  0.2424E+00  0.2424E+00
    -38.495  0.0000E+00  0.0000E+00  0.2424E+00  0.2424E+00
    -38.289  0.0000E+00  0.0000E+00  0.2424E+00  0.2424E+00
    -38.083  0.0000E+00  0.0000E+00  0.2424E+00  0.2424E+00
    -37.877  0.0000E+00  0.0000E+00  0.2424E+00  0.2424E+00
    -37.671  0.0000E+00  0.0000E+00  0.2424E+00  0.2424E+00
    -37.465  0.0000E+00  0.0000E+00  0.2424E+00  0.2424E+00
    -37.260  0.0000E+00  0.0000E+00  0.2424E+00  0.2424E+00
    -37.054  0.0000E+00  0.0000E+00  0.2424E+00  0.2424E+00
    -36.848  0.0000E+00  0.0000E+00  0.2424E+00  0.2424E+00
    -36.642  0.0000E+00  0.0000E+00  0.2424E+00  0.2424E+00
    -36.436  0.0000E+00  0.0000E+00  0.2424E+00  0.2424E+00
    -36.231  0.0000E+00  0.0000E+00  0.2424E+00  0.2424E+00
    -36.025  0.0000E+00  0.0000E+00  0.2424E+00  0.2424E+00
    -35.819  0.0000E+00  0.0000E+00  0.2424E+00  0.2424E+00
    -35.613  0.0000E+00  0.0000E+00  0.2424E+00  0.2424E+00
    -35.407  0.0000E+00  0.0000E+00  0.2424E+00  0.2424E+00
    -35.201  0.0000E+00  0.0000E+00  0.2424E+00  0.2424E+00
    -34.996  0.0000E+00  0.0000E+00  0.2424E+00  0.2424E+00
    -34.790  0.0000E+00  0.0000E+00  0.2424E+00  0.2424E+00
    -34.584  0.0000E+00  0.0000E+00  0.2424E+00  0.2424E+00
    -34.378  0.0000E+00  0.0000E+00  0.2424E+00  0.2424E+00
    -34.172  0.0000E+00  0.0000E+00  0.2424E+00  0.2424E+00
    -33.967  0.0000E+00  0.0000E+00  0.2424E+00  0.2424E+00
    -33.761  0.0000E+00  0.0000E+00  0.2424E+00  0.2424E+00
    -33.555  0.0000E+00  0.0000E+00  0.2424E+00  0.2424E+00
    -33.349  0.0000E+00  0.0000E+00  0.2424E+00  0.2424E+00
    -33.143  0.0000E+00  0.0000E+00  0.2424E+00  0.2424E+00
    -32.937  0.0000E+00  0.0000E+00  0.2424E+00  0.2424E+00
    -32.732  0.0000E+00  0.0000E+00  0.2424E+00  0.2424E+00
    -32.526  0.0000E+00  0.0000E+00  0.2424E+00  0.2424E+00
    -32.320  0.0000E+00  0.0000E+00  0.2424E+00  0.2424E+00
    -32.114  0.0000E+00  0.0000E+00  0.2424E+00  0.2424E+00
    -31.908  0.0000E+00  0.0000E+00  0.2424E+00  0.2424E+00
    -31.703  0.0000E+00  0.0000E+00  0.2424E+00  0.2424E+00
    -31.497  0.0000E+00  0.0000E+00  0.2424E+00  0.2424E+00
    -31.291  0.0000E+00  0.0000E+00  0.2424E+00  0.2424E+00
    -31.085  0.0000E+00  0.0000E+00  0.2424E+00  0.2424E+00
    -30.879  0.0000E+00  0.0000E+00  0.2424E+00  0.2424E+00
    -30.674  0.0000E+00  0.0000E+00  0.2424E+00  0.2424E+00
    -30.468  0.0000E+00  0.0000E+00  0.2424E+00  0.2424E+00
    -30.262  0.0000E+00  0.0000E+00  0.2424E+00  0.2424E+00
    -30.056  0.0000E+00  0.0000E+00  0.2424E+00  0.2424E+00
    -29.850  0.0000E+00  0.0000E+00  0.2424E+00  0.2424E+00
    -29.644  0.0000E+00  0.0000E+00  0.2424E+00  0.2424E+00
    -29.439  0.0000E+00  0.0000E+00  0.2424E+00  0.2424E+00
    -29.233  0.0000E+00  0.0000E+00  0.2424E+00  0.2424E+00
    -29.027  0.0000E+00  0.0000E+00  0.2424E+00  0.2424E+00
    -28.821  0.0000E+00  0.0000E+00  0.2424E+00  0.2424E+00
    -28.615  0.0000E+00  0.0000E+00  0.2424E+00  0.2424E+00
    -28.410  0.0000E+00  0.0000E+00  0.2424E+00  0.2424E+00
    -28.204  0.0000E+00  0.0000E+00  0.2424E+00  0.2424E+00
    -27.998  0.0000E+00  0.0000E+00  0.2424E+00  0.2424E+00
    -27.792  0.0000E+00  0.0000E+00  0.2424E+00  0.2424E+00
    -27.586  0.0000E+00  0.0000E+00  0.2424E+00  0.2424E+00
    -27.380  0.0000E+00  0.0000E+00  0.2424E+00  0.2424E+00
    -27.175  0.0000E+00  0.0000E+00  0.2424E+00  0.2424E+00
    -26.969  0.0000E+00  0.0000E+00  0.2424E+00  0.2424E+00
    -26.763  0.0000E+00  0.0000E+00  0.2424E+00  0.2424E+00
    -26.557  0.0000E+00  0.0000E+00  0.2424E+00  0.2424E+00
    -26.351  0.0000E+00  0.0000E+00  0.2424E+00  0.2424E+00
    -26.146  0.0000E+00  0.0000E+00  0.2424E+00  0.2424E+00
    -25.940  0.0000E+00  0.0000E+00  0.2424E+00  0.2424E+00
    -25.734  0.0000E+00  0.0000E+00  0.2424E+00  0.2424E+00
    -25.528  0.0000E+00  0.0000E+00  0.2424E+00  0.2424E+00
    -25.322  0.0000E+00  0.0000E+00  0.2424E+00  0.2424E+00
    -25.116  0.0000E+00  0.0000E+00  0.2424E+00  0.2424E+00
    -24.911  0.0000E+00  0.0000E+00  0.2424E+00  0.2424E+00
    -24.705  0.0000E+00  0.0000E+00  0.2424E+00  0.2424E+00
    -24.499  0.0000E+00  0.0000E+00  0.2424E+00  0.2424E+00
    -24.293  0.0000E+00  0.0000E+00  0.2424E+00  0.2424E+00
    -24.087  0.0000E+00  0.0000E+00  0.2424E+00  0.2424E+00
    -23.882  0.0000E+00  0.0000E+00  0.2424E+00  0.2424E+00
    -23.676  0.0000E+00  0.0000E+00  0.2424E+00  0.2424E+00
    -23.470  0.0000E+00  0.0000E+00  0.2424E+00  0.2424E+00
    -23.264  0.0000E+00  0.0000E+00  0.2424E+00  0.2424E+00
    -23.058  0.0000E+00  0.0000E+00  0.2424E+00  0.2424E+00
    -22.852  0.0000E+00  0.0000E+00  0.2424E+00  0.2424E+00
    -22.647  0.0000E+00  0.0000E+00  0.2424E+00  0.2424E+00
    -22.441  0.0000E+00  0.0000E+00  0.2424E+00  0.2424E+00
    -22.235  0.0000E+00  0.0000E+00  0.2424E+00  0.2424E+00
    -22.029  0.0000E+00  0.0000E+00  0.2424E+00  0.2424E+00
    -21.823  0.0000E+00  0.0000E+00  0.2424E+00  0.2424E+00
    -21.618  0.0000E+00  0.0000E+00  0.2424E+00  0.2424E+00
    -21.412  0.0000E+00  0.0000E+00  0.2424E+00  0.2424E+00
    -21.206  0.0000E+00  0.0000E+00  0.2424E+00  0.2424E+00
    -21.000  0.0000E+00  0.0000E+00  0.2424E+00  0.2424E+00
    -20.794  0.0000E+00  0.0000E+00  0.2424E+00  0.2424E+00
    -20.588  0.0000E+00  0.0000E+00  0.2424E+00  0.2424E+00
    -20.383  0.0000E+00  0.0000E+00  0.2424E+00  0.2424E+00
    -20.177  0.0000E+00  0.0000E+00  0.2424E+00  0.2424E+00
    -19.971  0.0000E+00  0.0000E+00  0.2424E+00  0.2424E+00
    -19.765  0.0000E+00  0.0000E+00  0.2424E+00  0.2424E+00
    -19.559  0.0000E+00  0.0000E+00  0.2424E+00  0.2424E+00
    -19.354  0.0000E+00  0.0000E+00  0.2424E+00  0.2424E+00
    -19.148  0.0000E+00  0.0000E+00  0.2424E+00  0.2424E+00
    -18.942  0.0000E+00  0.0000E+00  0.2424E+00  0.2424E+00
    -18.736  0.0000E+00  0.0000E+00  0.2424E+00  0.2424E+00
    -18.530  0.0000E+00  0.0000E+00  0.2424E+00  0.2424E+00
    -18.324  0.0000E+00  0.0000E+00  0.2424E+00  0.2424E+00
    -18.119  0.0000E+00  0.0000E+00  0.2424E+00  0.2424E+00
    -17.913  0.0000E+00  0.0000E+00  0.2424E+00  0.2424E+00
    -17.707  0.0000E+00  0.0000E+00  0.2424E+00  0.2424E+00
    -17.501  0.0000E+00  0.0000E+00  0.2424E+00  0.2424E+00
    -17.295  0.0000E+00  0.0000E+00  0.2424E+00  0.2424E+00
    -17.090  0.0000E+00  0.0000E+00  0.2424E+00  0.2424E+00
    -16.884  0.0000E+00  0.0000E+00  0.2424E+00  0.2424E+00
    -16.678  0.0000E+00  0.0000E+00  0.2424E+00  0.2424E+00
    -16.472  0.0000E+00  0.0000E+00  0.2424E+00  0.2424E+00
    -16.266  0.0000E+00  0.0000E+00  0.2424E+00  0.2424E+00
    -16.060  0.0000E+00  0.0000E+00  0.2424E+00  0.2424E+00
    -15.855  0.0000E+00  0.0000E+00  0.2424E+00  0.2424E+00
    -15.649  0.0000E+00  0.0000E+00  0.2424E+00  0.2424E+00
    -15.443  0.0000E+00  0.0000E+00  0.2424E+00  0.2424E+00
    -15.237  0.0000E+00  0.0000E+00  0.2424E+00  0.2424E+00
    -15.031  0.0000E+00  0.0000E+00  0.2424E+00  0.2424E+00
    -14.826  0.0000E+00  0.0000E+00  0.2424E+00  0.2424E+00
    -14.620  0.0000E+00  0.0000E+00  0.2424E+00  0.2424E+00
    -14.414  0.0000E+00  0.0000E+00  0.2424E+00  0.2424E+00
    -14.208  0.0000E+00  0.0000E+00  0.2424E+00  0.2424E+00
    -14.002  0.0000E+00  0.0000E+00  0.2424E+00  0.2424E+00
    -13.796  0.0000E+00  0.0000E+00  0.2424E+00  0.2424E+00
    -13.591  0.0000E+00  0.0000E+00  0.2424E+00  0.2424E+00
    -13.385  0.0000E+00  0.0000E+00  0.2424E+00  0.2424E+00
    -13.179  0.0000E+00  0.0000E+00  0.2424E+00  0.2424E+00
    -12.973  0.0000E+00  0.0000E+00  0.2424E+00  0.2424E+00
    -12.767  0.0000E+00  0.0000E+00  0.2424E+00  0.2424E+00
    -12.562  0.0000E+00  0.0000E+00  0.2424E+00  0.2424E+00
    -12.356  0.0000E+00  0.0000E+00  0.2424E+00  0.2424E+00
    -12.150  0.0000E+00  0.0000E+00  0.2424E+00  0.2424E+00
    -11.944  0.0000E+00  0.0000E+00  0.2424E+00  0.2424E+00
    -11.738  0.0000E+00  0.0000E+00  0.2424E+00  0.2424E+00
    -11.533  0.5751E-09  0.5751E-09  0.2424E+00  0.2424E+00
    -11.327  0.1671E-02  0.1671E-02  0.2428E+00  0.2428E+00
    -11.121  0.1717E-01  0.1717E-01  0.2463E+00  0.2463E+00
    -10.915  0.2251E-01  0.2251E-01  0.2509E+00  0.2509E+00
    -10.709  0.2738E-01  0.2738E-01  0.2566E+00  0.2566E+00
    -10.503  0.4023E-01  0.4023E-01  0.2649E+00  0.2649E+00
    -10.298  0.3916E-01  0.3916E-01  0.2729E+00  0.2729E+00
    -10.092  0.3020E-01  0.3020E-01  0.2791E+00  0.2791E+00
     -9.886  0.5450E-01  0.5450E-01  0.2903E+00  0.2903E+00
     -9.680  0.8874E-01  0.8874E-01  0.3086E+00  0.3086E+00
     -9.474  0.7007E-01  0.7007E-01  0.3230E+00  0.3230E+00
     -9.269  0.9835E-03  0.9835E-03  0.3232E+00  0.3232E+00
     -9.063  0.0000E+00  0.0000E+00  0.3232E+00  0.3232E+00
     -8.857  0.0000E+00  0.0000E+00  0.3232E+00  0.3232E+00
     -8.651  0.0000E+00  0.0000E+00  0.3232E+00  0.3232E+00
     -8.445  0.0000E+00  0.0000E+00  0.3232E+00  0.3232E+00
     -8.239  0.0000E+00  0.0000E+00  0.3232E+00  0.3232E+00
     -8.034  0.0000E+00  0.0000E+00  0.3232E+00  0.3232E+00
     -7.828  0.0000E+00  0.0000E+00  0.3232E+00  0.3232E+00
     -7.622  0.0000E+00  0.0000E+00  0.3232E+00  0.3232E+00
     -7.416  0.0000E+00  0.0000E+00  0.3232E+00  0.3232E+00
     -7.210  0.0000E+00  0.0000E+00  0.3232E+00  0.3232E+00
     -7.005  0.0000E+00  0.0000E+00  0.3232E+00  0.3232E+00
     -6.799  0.0000E+00  0.0000E+00  0.3232E+00  0.3232E+00
     -6.593  0.0000E+00  0.0000E+00  0.3232E+00  0.3232E+00
     -6.387  0.0000E+00  0.0000E+00  0.3232E+00  0.3232E+00
     -6.181  0.0000E+00  0.0000E+00  0.3232E+00  0.3232E+00
     -5.975  0.0000E+00  0.0000E+00  0.3232E+00  0.3232E+00
     -5.770  0.0000E+00  0.0000E+00  0.3232E+00  0.3232E+00
     -5.564  0.0000E+00  0.0000E+00  0.3232E+00  0.3232E+00
     -5.358  0.0000E+00  0.0000E+00  0.3232E+00  0.3232E+00
     -5.152  0.0000E+00  0.0000E+00  0.3232E+00  0.3232E+00
     -4.946  0.0000E+00  0.0000E+00  0.3232E+00  0.3232E+00
     -4.741  0.0000E+00  0.0000E+00  0.3232E+00  0.3232E+00
     -4.535  0.0000E+00  0.0000E+00  0.3232E+00  0.3232E+00
     -4.329  0.0000E+00  0.0000E+00  0.3232E+00  0.3232E+00
     -4.123  0.0000E+00  0.0000E+00  0.3232E+00  0.3232E+00
     -3.917  0.0000E+00  0.0000E+00  0.3232E+00  0.3232E+00
     -3.711  0.0000E+00  0.0000E+00  0.3232E+00  0.3232E+00
     -3.506  0.1421E-18  0.1421E-18  0.3232E+00  0.3232E+00
     -3.300  0.2101E-05  0.2101E-05  0.3232E+00  0.3232E+00
     -3.094  0.1870E-02  0.1870E-02  0.3236E+00  0.3236E+00
     -2.888  0.6119E-02  0.6119E-02  0.3249E+00  0.3249E+00
     -2.682  0.1069E-01  0.1069E-01  0.3271E+00  0.3271E+00
     -2.477  0.4074E-01  0.4074E-01  0.3355E+00  0.3355E+00
     -2.271  0.5496E-01  0.5496E-01  0.3468E+00  0.3468E+00
     -2.065  0.5392E-01  0.5392E-01  0.3579E+00  0.3579E+00
     -1.859  0.4301E-01  0.4301E-01  0.3667E+00  0.3667E+00
     -1.653  0.4488E-01  0.4488E-01  0.3760E+00  0.3760E+00
     -1.447  0.4777E-01  0.4777E-01  0.3858E+00  0.3858E+00
     -1.242  0.7469E-01  0.7469E-01  0.4012E+00  0.4012E+00
     -1.036  0.8527E-01  0.8527E-01  0.4187E+00  0.4187E+00
     -0.830  0.8554E-01  0.8554E-01  0.4363E+00  0.4363E+00
     -0.624  0.5691E-01  0.5691E-01  0.4480E+00  0.4480E+00
     -0.418  0.8153E-01  0.8153E-01  0.4648E+00  0.4648E+00
     -0.213  0.1380E+00  0.1380E+00  0.4932E+00  0.4932E+00
     -0.007  0.5801E-01  0.5801E-01  0.5052E+00  0.5052E+00
      0.199  0.5051E-01  0.5051E-01  0.5156E+00  0.5156E+00
      0.405  0.6006E-01  0.6006E-01  0.5279E+00  0.5279E+00
      0.611  0.6794E-01  0.6794E-01  0.5419E+00  0.5419E+00
      0.817  0.1512E+00  0.1512E+00  0.5730E+00  0.5730E+00
      1.022  0.9824E-01  0.9824E-01  0.5932E+00  0.5932E+00
      1.228  0.7633E-01  0.7633E-01  0.6090E+00  0.6090E+00
      1.434  0.7042E-01  0.7042E-01  0.6234E+00  0.6234E+00
      1.640  0.6473E-01  0.6473E-01  0.6368E+00  0.6368E+00
      1.846  0.8053E-01  0.8053E-01  0.6533E+00  0.6533E+00
      2.051  0.1003E+00  0.1003E+00  0.6740E+00  0.6740E+00
      2.257  0.8671E-01  0.8671E-01  0.6918E+00  0.6918E+00
      2.463  0.1113E+00  0.1113E+00  0.7148E+00  0.7148E+00
      2.669  0.1261E+00  0.1261E+00  0.7407E+00  0.7407E+00
      2.875  0.1389E+00  0.1389E+00  0.7693E+00  0.7693E+00
      3.081  0.9979E-01  0.9979E-01  0.7898E+00  0.7898E+00
      3.286  0.6571E-01  0.6571E-01  0.8034E+00  0.8034E+00
      3.492  0.1257E+00  0.1257E+00  0.8292E+00  0.8292E+00
      3.698  0.1001E+00  0.1001E+00  0.8498E+00  0.8498E+00
      3.904  0.6009E-01  0.6009E-01  0.8622E+00  0.8622E+00
      4.110  0.5019E-01  0.5019E-01  0.8725E+00  0.8725E+00
      4.315  0.5866E-01  0.5866E-01  0.8846E+00  0.8846E+00
      4.521  0.1160E+00  0.1160E+00  0.9085E+00  0.9085E+00
      4.727  0.8103E-01  0.8103E-01  0.9252E+00  0.9252E+00
      4.933  0.2670E-01  0.2670E-01  0.9307E+00  0.9307E+00
      5.139  0.2873E-01  0.2873E-01  0.9366E+00  0.9366E+00
      5.345  0.6408E-01  0.6408E-01  0.9498E+00  0.9498E+00
      5.550  0.6123E-01  0.6123E-01  0.9624E+00  0.9624E+00
      5.756  0.2628E-01  0.2628E-01  0.9678E+00  0.9678E+00
      5.962  0.9087E-02  0.9058E-02  0.9696E+00  0.9696E+00
      6.168  0.2894E-03  0.3219E-03  0.9697E+00  0.9697E+00
      6.374  0.1463E-09  0.2357E-07  0.9697E+00  0.9697E+00
      6.579  0.0000E+00  0.0000E+00  0.9697E+00  0.9697E+00
      6.785  0.0000E+00  0.0000E+00  0.9697E+00  0.9697E+00
      6.991  0.0000E+00  0.0000E+00  0.9697E+00  0.9697E+00
      7.197  0.0000E+00  0.0000E+00  0.9697E+00  0.9697E+00
      7.403  0.0000E+00  0.0000E+00  0.9697E+00  0.9697E+00
      7.608  0.0000E+00  0.0000E+00  0.9697E+00  0.9697E+00
      7.814  0.0000E+00  0.0000E+00  0.9697E+00  0.9697E+00
      8.020  0.0000E+00  0.0000E+00  0.9697E+00  0.9697E+00
      8.226  0.0000E+00  0.0000E+00  0.9697E+00  0.9697E+00
      8.432  0.0000E+00  0.0000E+00  0.9697E+00  0.9697E+00
      8.638  0.0000E+00  0.0000E+00  0.9697E+00  0.9697E+00
      8.843  0.0000E+00  0.0000E+00  0.9697E+00  0.9697E+00
      8.84339853    -52.90176694  301      3.34084478      1.00000000
    -52.902  0.0000E+00  0.0000E+00  0.0000E+00  0.0000E+00  0.0000E+00  0.0000E+00  0.0000E+00  0.0000E+00  0.0000E+00  0.0000E+00  0.0000E+00  0.0000E+00  0.0000E+00  0.0000E+00  0.0000E+00  0.0000E+00  0.0000E+00  0.0000E+00
    -52.696  0.0000E+00  0.0000E+00  0.0000E+00  0.0000E+00  0.0000E+00  0.0000E+00  0.0000E+00  0.0000E+00  0.0000E+00  0.0000E+00  0.0000E+00  0.0000E+00  0.0000E+00  0.0000E+00  0.0000E+00  0.0000E+00  0.0000E+00  0.0000E+00
    -52.490  0.0000E+00  0.0000E+00  0.0000E+00  0.0000E+00  0.0000E+00  0.0000E+00  0.0000E+00  0.0000E+00  0.0000E+00  0.0000E+00  0.0000E+00  0.0000E+00  0.0000E+00  0.0000E+00  0.0000E+00  0.0000E+00  0.0000E+00  0.0000E+00
    -52.284  0.0000E+00  0.0000E+00  0.0000E+00  0.0000E+00  0.0000E+00  0.0000E+00  0.0000E+00  0.0000E+00  0.0000E+00  0.0000E+00  0.0000E+00  0.0000E+00  0.0000E+00  0.0000E+00  0.0000E+00  0.0000E+00  0.0000E+00  0.0000E+00
    -52.078  0.0000E+00  0.0000E+00  0.0000E+00  0.0000E+00  0.0000E+00  0.0000E+00  0.0000E+00  0.0000E+00  0.0000E+00  0.0000E+00  0.0000E+00  0.0000E+00  0.0000E+00  0.0000E+00  0.0000E+00  0.0000E+00  0.0000E+00  0.0000E+00
    -51.873  0.0000E+00  0.0000E+00  0.0000E+00  0.0000E+00  0.0000E+00  0.0000E+00  0.0000E+00  0.0000E+00  0.0000E+00  0.0000E+00  0.0000E+00  0.0000E+00  0.0000E+00  0.0000E+00  0.0000E+00  0.0000E+00  0.0000E+00  0.0000E+00
    -51.667  0.0000E+00  0.0000E+00  0.0000E+00  0.0000E+00  0.0000E+00  0.0000E+00  0.0000E+00  0.0000E+00  0.0000E+00  0.0000E+00  0.0000E+00  0.0000E+00  0.0000E+00  0.0000E+00  0.0000E+00  0.0000E+00  0.0000E+00  0.0000E+00
    -51.461  0.0000E+00  0.0000E+00  0.0000E+00  0.0000E+00  0.0000E+00  0.0000E+00  0.0000E+00  0.0000E+00  0.0000E+00  0.0000E+00  0.0000E+00  0.0000E+00  0.0000E+00  0.0000E+00  0.0000E+00  0.0000E+00  0.0000E+00  0.0000E+00
    -51.255  0.0000E+00  0.0000E+00  0.0000E+00  0.0000E+00  0.0000E+00  0.0000E+00  0.0000E+00  0.0000E+00  0.0000E+00  0.0000E+00  0.0000E+00  0.0000E+00  0.0000E+00  0.0000E+00  0.0000E+00  0.0000E+00  0.0000E+00  0.0000E+00
    -51.049  0.0000E+00  0.0000E+00  0.0000E+00  0.0000E+00  0.0000E+00  0.0000E+00  0.0000E+00  0.0000E+00  0.0000E+00  0.0000E+00  0.0000E+00  0.0000E+00  0.0000E+00  0.0000E+00  0.0000E+00  0.0000E+00  0.0000E+00  0.0000E+00
    -50.844  0.0000E+00  0.0000E+00  0.0000E+00  0.0000E+00  0.0000E+00  0.0000E+00  0.0000E+00  0.0000E+00  0.0000E+00  0.0000E+00  0.0000E+00  0.0000E+00  0.0000E+00  0.0000E+00  0.0000E+00  0.0000E+00  0.0000E+00  0.0000E+00
    -50.638  0.0000E+00  0.0000E+00  0.0000E+00  0.0000E+00  0.0000E+00  0.0000E+00  0.0000E+00  0.0000E+00  0.0000E+00  0.0000E+00  0.0000E+00  0.0000E+00  0.0000E+00  0.0000E+00  0.0000E+00  0.0000E+00  0.0000E+00  0.0000E+00
    -50.432  0.0000E+00  0.0000E+00  0.0000E+00  0.0000E+00  0.0000E+00  0.0000E+00  0.0000E+00  0.0000E+00  0.0000E+00  0.0000E+00  0.0000E+00  0.0000E+00  0.0000E+00  0.0000E+00  0.0000E+00  0.0000E+00  0.0000E+00  0.0000E+00
    -50.226  0.7356E-08  0.5485E-08  0.4735E-05  0.8325E-05  0.5781E-06  0.2201E-06  0.1081E-04  0.3945E-05  0.1591E-09  0.1214E-09  0.5873E-11  0.3346E-11  0.3458E-08  0.2885E-08  0.1151E-08  0.2561E-09  0.2407E-08  0.1883E-08
    -50.020  0.3529E-03  0.3474E-03  0.4744E+00  0.5010E+00  0.2539E-01  0.2411E-01  0.4806E+00  0.4563E+00  0.6186E-05  0.5946E-05  0.2314E-06  0.2113E-06  0.1722E-03  0.1751E-03  0.5868E-04  0.4694E-04  0.4989E-03  0.4904E-03
    -49.815  0.4201E-04  0.4507E-04  0.1566E+00  0.7324E-01  0.3163E-02  0.8133E-02  0.6013E-01  0.1575E+00  0.6488E-06  0.9104E-06  0.2289E-07  0.5089E-07  0.2338E-04  0.2054E-04  0.6293E-05  0.1623E-04  0.1554E-03  0.1625E-03
    -49.609  0.8942E-04  0.9045E-04  0.1864E+01  0.1856E+01  0.2084E+01  0.2167E+01  0.1912E+01  0.1917E+01  0.4417E-05  0.4154E-05  0.5816E-05  0.3628E-05  0.2001E-04  0.2017E-04  0.8892E-05  0.1091E-04  0.5957E-04  0.6013E-04
    -49.403  0.9468E-04  0.9570E-04  0.1740E+01  0.1826E+01  0.2698E+01  0.2611E+01  0.1837E+01  0.1757E+01  0.4113E-04  0.4093E-04  0.1903E-04  0.2118E-04  0.3434E-04  0.3449E-04  0.2444E-04  0.2339E-04  0.6556E-04  0.6634E-04
    -49.197  0.1719E-04  0.1757E-04  0.6038E+00  0.5829E+00  0.2875E-01  0.2803E-01  0.5493E+00  0.5510E+00  0.3902E-05  0.4366E-05  0.1758E-06  0.2107E-06  0.6546E-05  0.6198E-05  0.2439E-05  0.3472E-05  0.4036E-04  0.4047E-04
    -48.991  0.6013E-11  0.6123E-11  0.7978E-06  0.7541E-06  0.3631E-07  0.3719E-07  0.7015E-06  0.7361E-06  0.1040E-11  0.1330E-11  0.4040E-13  0.8036E-13  0.2489E-11  0.2192E-11  0.2241E-11  0.3023E-11  0.4590E-10  0.4777E-10
    -48.785  0.0000E+00  0.0000E+00  0.0000E+00  0.0000E+00  0.0000E+00  0.0000E+00  0.0000E+00  0.0000E+00  0.0000E+00  0.0000E+00  0.0000E+00  0.0000E+00  0.0000E+00  0.0000E+00  0.0000E+00  0.0000E+00  0.0000E+00  0.0000E+00
    -48.580  0.0000E+00  0.0000E+00  0.0000E+00  0.0000E+00  0.0000E+00  0.0000E+00  0.0000E+00  0.0000E+00  0.0000E+00  0.0000E+00  0.0000E+00  0.0000E+00  0.0000E+00  0.0000E+00  0.0000E+00  0.0000E+00  0.0000E+00  0.0000E+00
    -48.374  0.0000E+00  0.0000E+00  0.0000E+00  0.0000E+00  0.0000E+00  0.0000E+00  0.0000E+00  0.0000E+00  0.0000E+00  0.0000E+00  0.0000E+00  0.0000E+00  0.0000E+00  0.0000E+00  0.0000E+00  0.0000E+00  0.0000E+00  0.0000E+00
    -48.168  0.0000E+00  0.0000E+00  0.0000E+00  0.0000E+00  0.0000E+00  0.0000E+00  0.0000E+00  0.0000E+00  0.0000E+00  0.0000E+00  0.0000E+00  0.0000E+00  0.0000E+00  0.0000E+00  0.0000E+00  0.0000E+00  0.0000E+00  0.0000E+00
    -47.962  0.0000E+00  0.0000E+00  0.0000E+00  0.0000E+00  0.0000E+00  0.0000E+00  0.0000E+00  0.0000E+00  0.0000E+00  0.0000E+00  0.0000E+00  0.0000E+00  0.0000E+00  0.0000E+00  0.0000E+00  0.0000E+00  0.0000E+00  0.0000E+00
    -47.756  0.0000E+00  0.0000E+00  0.0000E+00  0.0000E+00  0.0000E+00  0.0000E+00  0.0000E+00  0.0000E+00  0.0000E+00  0.0000E+00  0.0000E+00  0.0000E+00  0.0000E+00  0.0000E+00  0.0000E+00  0.0000E+00  0.0000E+00  0.0000E+00
    -47.551  0.0000E+00  0.0000E+00  0.0000E+00  0.0000E+00  0.0000E+00  0.0000E+00  0.0000E+00  0.0000E+00  0.0000E+00  0.0000E+00  0.0000E+00  0.0000E+00  0.0000E+00  0.0000E+00  0.0000E+00  0.0000E+00  0.0000E+00  0.0000E+00
    -47.345  0.0000E+00  0.0000E+00  0.0000E+00  0.0000E+00  0.0000E+00  0.0000E+00  0.0000E+00  0.0000E+00  0.0000E+00  0.0000E+00  0.0000E+00  0.0000E+00  0.0000E+00  0.0000E+00  0.0000E+00  0.0000E+00  0.0000E+00  0.0000E+00
    -47.139  0.0000E+00  0.0000E+00  0.0000E+00  0.0000E+00  0.0000E+00  0.0000E+00  0.0000E+00  0.0000E+00  0.0000E+00  0.0000E+00  0.0000E+00  0.0000E+00  0.0000E+00  0.0000E+00  0.0000E+00  0.0000E+00  0.0000E+00  0.0000E+00
    -46.933  0.0000E+00  0.0000E+00  0.0000E+00  0.0000E+00  0.0000E+00  0.0000E+00  0.0000E+00  0.0000E+00  0.0000E+00  0.0000E+00  0.0000E+00  0.0000E+00  0.0000E+00  0.0000E+00  0.0000E+00  0.0000E+00  0.0000E+00  0.0000E+00
    -46.727  0.0000E+00  0.0000E+00  0.0000E+00  0.0000E+00  0.0000E+00  0.0000E+00  0.0000E+00  0.0000E+00  0.0000E+00  0.0000E+00  0.0000E+00  0.0000E+00  0.0000E+00  0.0000E+00  0.0000E+00  0.0000E+00  0.0000E+00  0.0000E+00
    -46.521  0.0000E+00  0.0000E+00  0.0000E+00  0.0000E+00  0.0000E+00  0.0000E+00  0.0000E+00  0.0000E+00  0.0000E+00  0.0000E+00  0.0000E+00  0.0000E+00  0.0000E+00  0.0000E+00  0.0000E+00  0.0000E+00  0.0000E+00  0.0000E+00
    -46.316  0.0000E+00  0.0000E+00  0.0000E+00  0.0000E+00  0.0000E+00  0.0000E+00  0.0000E+00  0.0000E+00  0.0000E+00  0.0000E+00  0.0000E+00  0.0000E+00  0.0000E+00  0.0000E+00  0.0000E+00  0.0000E+00  0.0000E+00  0.0000E+00
    -46.110  0.0000E+00  0.0000E+00  0.0000E+00  0.0000E+00  0.0000E+00  0.0000E+00  0.0000E+00  0.0000E+00  0.0000E+00  0.0000E+00  0.0000E+00  0.0000E+00  0.0000E+00  0.0000E+00  0.0000E+00  0.0000E+00  0.0000E+00  0.0000E+00
    -45.904  0.0000E+00  0.0000E+00  0.0000E+00  0.0000E+00  0.0000E+00  0.0000E+00  0.0000E+00  0.0000E+00  0.0000E+00  0.0000E+00  0.0000E+00  0.0000E+00  0.0000E+00  0.0000E+00  0.0000E+00  0.0000E+00  0.0000E+00  0.0000E+00
    -45.698  0.0000E+00  0.0000E+00  0.0000E+00  0.0000E+00  0.0000E+00  0.0000E+00  0.0000E+00  0.0000E+00  0.0000E+00  0.0000E+00  0.0000E+00  0.0000E+00  0.0000E+00  0.0000E+00  0.0000E+00  0.0000E+00  0.0000E+00  0.0000E+00
    -45.492  0.0000E+00  0.0000E+00  0.0000E+00  0.0000E+00  0.0000E+00  0.0000E+00  0.0000E+00  0.0000E+00  0.0000E+00  0.0000E+00  0.0000E+00  0.0000E+00  0.0000E+00  0.0000E+00  0.0000E+00  0.0000E+00  0.0000E+00  0.0000E+00
    -45.287  0.0000E+00  0.0000E+00  0.0000E+00  0.0000E+00  0.0000E+00  0.0000E+00  0.0000E+00  0.0000E+00  0.0000E+00  0.0000E+00  0.0000E+00  0.0000E+00  0.0000E+00  0.0000E+00  0.0000E+00  0.0000E+00  0.0000E+00  0.0000E+00
    -45.081  0.0000E+00  0.0000E+00  0.0000E+00  0.0000E+00  0.0000E+00  0.0000E+00  0.0000E+00  0.0000E+00  0.0000E+00  0.0000E+00  0.0000E+00  0.0000E+00  0.0000E+00  0.0000E+00  0.0000E+00  0.0000E+00  0.0000E+00  0.0000E+00
    -44.875  0.0000E+00  0.0000E+00  0.0000E+00  0.0000E+00  0.0000E+00  0.0000E+00  0.0000E+00  0.0000E+00  0.0000E+00  0.0000E+00  0.0000E+00  0.0000E+00  0.0000E+00  0.0000E+00  0.0000E+00  0.0000E+00  0.0000E+00  0.0000E+00
    -44.669  0.0000E+00  0.0000E+00  0.0000E+00  0.0000E+00  0.0000E+00  0.0000E+00  0.0000E+00  0.0000E+00  0.0000E+00  0.0000E+00  0.0000E+00  0.0000E+00  0.0000E+00  0.0000E+00  0.0000E+00  0.0000E+00  0.0000E+00  0.0000E+00
    -44.463  0.0000E+00  0.0000E+00  0.0000E+00  0.0000E+00  0.0000E+00  0.0000E+00  0.0000E+00  0.0000E+00  0.0000E+00  0.0000E+00  0.0000E+00  0.0000E+00  0.0000E+00  0.0000E+00  0.0000E+00  0.0000E+00  0.0000E+00  0.0000E+00
    -44.257  0.0000E+00  0.0000E+00  0.0000E+00  0.0000E+00  0.0000E+00  0.0000E+00  0.0000E+00  0.0000E+00  0.0000E+00  0.0000E+00  0.0000E+00  0.0000E+00  0.0000E+00  0.0000E+00  0.0000E+00  0.0000E+00  0.0000E+00  0.0000E+00
    -44.052  0.0000E+00  0.0000E+00  0.0000E+00  0.0000E+00  0.0000E+00  0.0000E+00  0.0000E+00  0.0000E+00  0.0000E+00  0.0000E+00  0.0000E+00  0.0000E+00  0.0000E+00  0.0000E+00  0.0000E+00  0.0000E+00  0.0000E+00  0.0000E+00
    -43.846  0.0000E+00  0.0000E+00  0.0000E+00  0.0000E+00  0.0000E+00  0.0000E+00  0.0000E+00  0.0000E+00  0.0000E+00  0.0000E+00  0.0000E+00  0.0000E+00  0.0000E+00  0.0000E+00  0.0000E+00  0.0000E+00  0.0000E+00  0.0000E+00
    -43.640  0.0000E+00  0.0000E+00  0.0000E+00  0.0000E+00  0.0000E+00  0.0000E+00  0.0000E+00  0.0000E+00  0.0000E+00  0.0000E+00  0.0000E+00  0.0000E+00  0.0000E+00  0.0000E+00  0.0000E+00  0.0000E+00  0.0000E+00  0.0000E+00
    -43.434  0.0000E+00  0.0000E+00  0.0000E+00  0.0000E+00  0.0000E+00  0.0000E+00  0.0000E+00  0.0000E+00  0.0000E+00  0.0000E+00  0.0000E+00  0.0000E+00  0.0000E+00  0.0000E+00  0.0000E+00  0.0000E+00  0.0000E+00  0.0000E+00
    -43.228  0.0000E+00  0.0000E+00  0.0000E+00  0.0000E+00  0.0000E+00  0.0000E+00  0.0000E+00  0.0000E+00  0.0000E+00  0.0000E+00  0.0000E+00  0.0000E+00  0.0000E+00  0.0000E+00  0.0000E+00  0.0000E+00  0.0000E+00  0.0000E+00
    -43.023  0.0000E+00  0.0000E+00  0.0000E+00  0.0000E+00  0.0000E+00  0.0000E+00  0.0000E+00  0.0000E+00  0.0000E+00  0.0000E+00  0.0000E+00  0.0000E+00  0.0000E+00  0.0000E+00  0.0000E+00  0.0000E+00  0.0000E+00  0.0000E+00
    -42.817  0.0000E+00  0.0000E+00  0.0000E+00  0.0000E+00  0.0000E+00  0.0000E+00  0.0000E+00  0.0000E+00  0.0000E+00  0.0000E+00  0.0000E+00  0.0000E+00  0.0000E+00  0.0000E+00  0.0000E+00  0.0000E+00  0.0000E+00  0.0000E+00
    -42.611  0.0000E+00  0.0000E+00  0.0000E+00  0.0000E+00  0.0000E+00  0.0000E+00  0.0000E+00  0.0000E+00  0.0000E+00  0.0000E+00  0.0000E+00  0.0000E+00  0.0000E+00  0.0000E+00  0.0000E+00  0.0000E+00  0.0000E+00  0.0000E+00