unknown system                          
           1
     4.942705   -5.010194    1.164096
     4.682844    4.862291    1.032810
     1.084609   -0.101500    6.964687
   Fe   Se
     8     8
unknown system                          
           1
     4.942705   -5.010194    1.164096
     4.682844    4.862291    1.032810
     1.084609   -0.101500    6.964687
   Fe   Se
     8     8
Direct configuration=     1
   0.95786159  0.00010718  0.99982242
   0.04213841  0.49989282  0.00017758
   0.45786159  0.00010718  0.99982242
   0.54213841  0.49989282  0.00017758
   0.25000000  0.25000000  0.00000000
   0.25000000  0.75000000  0.00000000
   0.75000000  0.25000000  0.00000000
   0.75000000  0.75000000  0.00000000
   0.25748573  0.06261232  0.75413834
   0.37778054  0.56234897  0.75464277
   0.75748573  0.06261232  0.75413834
   0.87778054  0.56234897  0.75464277
   0.24251427  0.43738768  0.24586166
   0.12221946  0.93765103  0.24535723
   0.74251427  0.43738768  0.24586166
   0.62221946  0.93765103  0.24535723
