       N       E                     dE             d eps       ncg     rms          rms(c)
DAV:   1    -0.110972901173E+02   -0.11097E+02   -0.47059E+03  7168   0.145E+02
DAV:   2    -0.150451949038E+02   -0.39479E+01   -0.39238E+01 10944   0.926E+00
DAV:   3    -0.150469894591E+02   -0.17946E-02   -0.17753E-02  7168   0.275E-01
DAV:   4    -0.150469902989E+02   -0.83977E-06   -0.82298E-06 14144   0.483E-03
DAV:   5    -0.150469902988E+02    0.81741E-10   -0.60517E-12  7168   0.402E-06    0.271E+00
DAV:   6    -0.149937344137E+02    0.53256E-01   -0.61282E-03 11200   0.932E-02    0.158E+00
DAV:   7    -0.149555269778E+02    0.38207E-01   -0.17499E-02 11392   0.147E-01    0.277E-01
DAV:   8    -0.149554325723E+02    0.94405E-04   -0.39761E-05  9984   0.857E-03    0.550E-02
DAV:   9    -0.149554352369E+02   -0.26646E-05   -0.39364E-06 12800   0.239E-03    0.133E-03
DAV:  10    -0.149554344678E+02    0.76910E-06   -0.66210E-09  7872   0.156E-04
   1 F= -.14955434E+02 E0= -.14955434E+02  d E =0.000000E+00
