 vasp.6.4.3 19Mar24 (build Mar 26 2024 14:05:37) complex                        
  
 executed on             LinuxIFC date 2025.01.03  05:06:41
 running   64 mpi-ranks, on    1 nodes
 distrk:  each k-point on   64 cores,    1 groups
 distr:  one band on NCORE=   1 cores,   64 groups


--------------------------------------------------------------------------------------------------------


 INCAR:
   ALGO = Normal
   EDIFF = 1e-06
   EDIFFG = -0.01
   ENCUT = 520
   GGA = Pe
   IBRION = -1
   ISIF = 4
   ISMEAR = -5
   LCHARG = False
   LREAL = False
   LWAVE = False
   NELM = 200
   NSW = 0
   PREC = Accurate
   SIGMA = 0.2

 POTCAR:    PAW_PBE Al 04Jan2001                  
 -----------------------------------------------------------------------------
|                                                                             |
|           W    W    AA    RRRRR   N    N  II  N    N   GGGG   !!!           |
|           W    W   A  A   R    R  NN   N  II  NN   N  G    G  !!!           |
|           W    W  A    A  R    R  N N  N  II  N N  N  G       !!!           |
|           W WW W  AAAAAA  RRRRR   N  N N  II  N  N N  G  GGG   !            |
|           WW  WW  A    A  R   R   N   NN  II  N   NN  G    G                |
|           W    W  A    A  R    R  N    N  II  N    N   GGGG   !!!           |
|                                                                             |
|     For optimal performance we recommend to set                             |
|       NCORE = 2 up to number-of-cores-per-socket                            |
|     NCORE specifies how many cores store one orbital (NPAR=cpu/NCORE).      |
|     This setting can greatly improve the performance of VASP for DFT.       |
|     The default, NCORE=1 might be grossly inefficient on modern             |
|     multi-core architectures or massively parallel machines. Do your        |
|     own testing! More info at https://www.vasp.at/wiki/index.php/NCORE      |
|     Unfortunately you need to use the default for GW and RPA                |
|     calculations (for HF NCORE is supported but not extensively tested      |
|     yet).                                                                   |
|                                                                             |
 -----------------------------------------------------------------------------

 POTCAR:    PAW_PBE Al 04Jan2001                  
   SHA256 =  17880443556af62b473fe41b62a467bd001ad55d2cabe504a3f22e34d4e9db96 Al/POTCAR             
   COPYR  = (c) Copyright 04Jan2001 Georg Kresse                                                    
   COPYR  = This file is part of the software VASP. Any use, copying, and all other rights are regul
   COPYR  = If you do not have a valid VASP license, you may not use, copy or distribute this file. 
   VRHFIN =Al: s2p1                                                                                 
   LEXCH  = PE                                                                                      
   EATOM  =    53.5387 eV,    3.9350 Ry                                                             
                                                                                                    
   TITEL  = PAW_PBE Al 04Jan2001                                                                    
   LULTRA =        F    use ultrasoft PP ?                                                          
   IUNSCR =        1    unscreen: 0-lin 1-nonlin 2-no                                               
   RPACOR =    1.500    partial core radius                                                         
   POMASS =   26.981; ZVAL   =    3.000    mass and valenz                                          
   RCORE  =    1.900    outmost cutoff radius                                                       
   RWIGS  =    2.650; RWIGS  =    1.402    wigner-seitz radius (au A)                               
   ENMAX  =  240.300; ENMIN  =  180.225 eV                                                          
   ICORE  =        2    local potential                                                             
   LCOR   =        T    correct aug charges                                                         
   LPAW   =        T    paw PP                                                                      
   EAUG   =  291.052                                                                                
   DEXC   =    0.000                                                                                
   RMAX   =    1.939    core radius for proj-oper                                                   
   RAUG   =    1.300    factor for augmentation sphere                                              
   RDEP   =    1.966    radius for radial grids                                                     
   RDEPT  =    1.856    core radius for aug-charge                                                  
                                                                                                    
   Atomic configuration                                                                             
    6 entries                                                                                       
     n  l   j            E        occ.                                                              
     1  0  0.50     -1511.1048   2.0000                                                             
     2  0  0.50      -108.1629   2.0000                                                             
     2  1  1.50       -69.6402   6.0000                                                             
     3  0  0.50        -7.7528   2.0000                                                             
     3  1  1.50        -2.7121   1.0000                                                             
     3  2  2.50        -2.7212   0.0000                                                             
   Description                                                                                      
     l       E           TYP  RCUT    TYP  RCUT                                                     
     0     -7.7528455     23  1.900                                                                 
     0     -3.3096929     23  1.900                                                                 
     1     -2.7120682     23  1.900                                                                 
     1     13.6058260     23  1.900                                                                 
     2     -2.7211652      7  1.900                                                                 
  local pseudopotential read in
  partial core-charges read in
  partial kinetic energy density read in
  atomic valenz-charges read in
  non local Contribution for L=           0  read in
    real space projection operators read in
  non local Contribution for L=           0  read in
    real space projection operators read in
  non local Contribution for L=           1  read in
    real space projection operators read in
  non local Contribution for L=           1  read in
    real space projection operators read in
    PAW grid and wavefunctions read in
 
   number of l-projection  operators is LMAX  =           4
   number of lm-projection operators is LMMAX =           8
 
  PAW_PBE Al 04Jan2001                  :
 energy of atom  1       EATOM=  -53.5387
 kinetic energy error for atom=    0.0002 (will be added to EATOM!!)
 
 
 POSCAR: Al4
  positions in direct lattice
  velocities in cartesian coordinates


 exchange-correlation table for PE
   RHO(1)=    0.500       N(1)  =     2000
   RHO(2)=  100.500       N(2)  =     4000
 


--------------------------------------------------------------------------------------------------------


 ion  position               nearest neighbor table
   1  0.000  0.000  0.000-   2 2.83   3 2.83   4 2.83   2 2.83   3 2.83   2 2.83   4 2.83   2 2.83
                             3 2.83   4 2.83   3 2.83   4 2.83
   2  0.000  0.500  0.500-   1 2.83   3 2.83   4 2.83   1 2.83   4 2.83   1 2.83   3 2.83   1 2.83
                             3 2.83   4 2.83   4 2.83   3 2.83
   3  0.500  0.000  0.500-   1 2.83   2 2.83   4 2.83   1 2.83   4 2.83   2 2.83   4 2.83   4 2.83
                             1 2.83   2 2.83   1 2.83   2 2.83
   4  0.500  0.500  0.000-   1 2.83   2 2.83   3 2.83   2 2.83   3 2.83   1 2.83   3 2.83   3 2.83
                             1 2.83   2 2.83   2 2.83   1 2.83
 
  LATTYP: Found a simple cubic cell.
 ALAT       =     4.0000000000
  
  Lattice vectors:
  
 A1 = (   4.0000000000,   0.0000000000,   0.0000000000)
 A2 = (   0.0000000000,   4.0000000000,   0.0000000000)
 A3 = (   0.0000000000,   0.0000000000,   4.0000000000)


Analysis of symmetry for initial positions (statically):
=====================================================================
 Subroutine PRICEL returns following result:
 
  LATTYP: Found a face centered cubic cell.
 ALAT       =     4.0000000000
  
  Lattice vectors:
  
 A1 = (   2.0000000000,  -2.0000000000,   0.0000000000)
 A2 = (   2.0000000000,   0.0000000000,   2.0000000000)
 A3 = (  -0.0000000000,  -2.0000000000,   2.0000000000)
 
   4 primitive cells build up your supercell.
 

 Routine SETGRP: Setting up the symmetry group for a 
 simple cubic supercell.


 Subroutine GETGRP returns: Found 48 space group operations
 (whereof 48 operations were pure point group operations)
 out of a pool of 48 trial point group operations.


The static configuration has the point symmetry O_h .


Analysis of symmetry for dynamics (positions and initial velocities):
=====================================================================
 Subroutine PRICEL returns following result:
 
  LATTYP: Found a face centered cubic cell.
 ALAT       =     4.0000000000
  
  Lattice vectors:
  
 A1 = (   2.0000000000,  -2.0000000000,   0.0000000000)
 A2 = (   2.0000000000,   0.0000000000,   2.0000000000)
 A3 = (  -0.0000000000,  -2.0000000000,   2.0000000000)
 
   4 primitive cells build up your supercell.
 

 Routine SETGRP: Setting up the symmetry group for a 
 simple cubic supercell.


 Subroutine GETGRP returns: Found 48 space group operations
 (whereof 48 operations were pure point group operations)
 out of a pool of 48 trial point group operations.


The dynamic configuration has the point symmetry O_h .


 Subroutine INISYM returns: Found 48 space group operations
 (whereof 48 operations are pure point group operations),
 and found     4 'primitive' translations


----------------------------------------------------------------------------------------

                                     Primitive cell                                     

  volume of cell :      16.0000

  direct lattice vectors                    reciprocal lattice vectors
     2.000000000 -2.000000000  0.000000000     0.250000000 -0.250000000 -0.250000000
     2.000000000  0.000000000  2.000000000     0.250000000  0.250000000  0.250000000
    -0.000000000 -2.000000000  2.000000000    -0.250000000 -0.250000000  0.250000000

  length of vectors
     2.828427125  2.828427125  2.828427125     0.433012702  0.433012702  0.433012702

  position of ions in fractional coordinates (direct lattice)
     0.000000000  0.000000000  0.000000000

  ion indices of the primitive-cell ions
   primitive index   ion index
                 1           1

----------------------------------------------------------------------------------------

 
 
 KPOINTS: pymatgen with grid density = 4001 / numb

Automatic generation of k-mesh.
 Grid dimensions read from file:
 generate k-points for:   10   10   10

 Generating k-lattice:

  Cartesian coordinates                     Fractional coordinates (reciprocal lattice)
     0.025000000 -0.000000000  0.000000000     0.100000000 -0.000000000  0.000000000
     0.000000000  0.025000000  0.000000000     0.000000000  0.100000000  0.000000000
    -0.000000000 -0.000000000  0.025000000     0.000000000  0.000000000  0.100000000

  Length of vectors
     0.025000000  0.025000000  0.025000000

  Shift w.r.t. Gamma in fractional coordinates (k-lattice)
     0.000000000  0.000000000  0.000000000

 TETIRR: Found    492 inequivalent tetrahedra from     6000
 
 Subroutine IBZKPT returns following result:
 ===========================================
 
 Found     56 irreducible k-points:
 
 Following reciprocal coordinates:
            Coordinates               Weight
  0.000000  0.000000  0.000000      1.000000
  0.100000  0.000000  0.000000      6.000000
  0.200000  0.000000  0.000000      6.000000
  0.300000  0.000000  0.000000      6.000000
  0.400000  0.000000  0.000000      6.000000
  0.500000  0.000000  0.000000      3.000000
  0.100000  0.100000  0.000000     12.000000
  0.200000  0.100000  0.000000     24.000000
  0.300000  0.100000  0.000000     24.000000
  0.400000  0.100000  0.000000     24.000000
  0.500000  0.100000  0.000000     12.000000
  0.200000  0.200000  0.000000     12.000000
  0.300000  0.200000  0.000000     24.000000
  0.400000  0.200000  0.000000     24.000000
  0.500000  0.200000  0.000000     12.000000
  0.300000  0.300000  0.000000     12.000000
  0.400000  0.300000  0.000000     24.000000
  0.500000  0.300000  0.000000     12.000000
  0.400000  0.400000  0.000000     12.000000
  0.500000  0.400000  0.000000     12.000000
  0.500000  0.500000  0.000000      3.000000
  0.100000  0.100000  0.100000      8.000000
  0.200000  0.100000  0.100000     24.000000
  0.300000  0.100000  0.100000     24.000000
  0.400000  0.100000  0.100000     24.000000
  0.500000  0.100000  0.100000     12.000000
  0.200000  0.200000  0.100000     24.000000
  0.300000  0.200000  0.100000     48.000000
  0.400000  0.200000  0.100000     48.000000
  0.500000  0.200000  0.100000     24.000000
  0.300000  0.300000  0.100000     24.000000
  0.400000  0.300000  0.100000     48.000000
  0.500000  0.300000  0.100000     24.000000
  0.400000  0.400000  0.100000     24.000000
  0.500000  0.400000  0.100000     24.000000
  0.500000  0.500000  0.100000      6.000000
  0.200000  0.200000  0.200000      8.000000
  0.300000  0.200000  0.200000     24.000000
  0.400000  0.200000  0.200000     24.000000
  0.500000  0.200000  0.200000     12.000000
  0.300000  0.300000  0.200000     24.000000
  0.400000  0.300000  0.200000     48.000000
  0.500000  0.300000  0.200000     24.000000
  0.400000  0.400000  0.200000     24.000000
  0.500000  0.400000  0.200000     24.000000
  0.500000  0.500000  0.200000      6.000000
  0.300000  0.300000  0.300000      8.000000
  0.400000  0.300000  0.300000     24.000000
  0.500000  0.300000  0.300000     12.000000
  0.400000  0.400000  0.300000     24.000000
  0.500000  0.400000  0.300000     24.000000
  0.500000  0.500000  0.300000      6.000000
  0.400000  0.400000  0.400000      8.000000
  0.500000  0.400000  0.400000     12.000000
  0.500000  0.500000  0.400000      6.000000
  0.500000  0.500000  0.500000      1.000000
 
 Following cartesian coordinates:
            Coordinates               Weight
  0.000000  0.000000  0.000000      1.000000
  0.025000  0.000000  0.000000      6.000000
  0.050000  0.000000  0.000000      6.000000
  0.075000  0.000000  0.000000      6.000000
  0.100000  0.000000  0.000000      6.000000
  0.125000  0.000000  0.000000      3.000000
  0.025000  0.025000  0.000000     12.000000
  0.050000  0.025000  0.000000     24.000000
  0.075000  0.025000  0.000000     24.000000
  0.100000  0.025000  0.000000     24.000000
  0.125000  0.025000  0.000000     12.000000
  0.050000  0.050000  0.000000     12.000000
  0.075000  0.050000  0.000000     24.000000
  0.100000  0.050000  0.000000     24.000000
  0.125000  0.050000  0.000000     12.000000
  0.075000  0.075000  0.000000     12.000000
  0.100000  0.075000  0.000000     24.000000
  0.125000  0.075000  0.000000     12.000000
  0.100000  0.100000  0.000000     12.000000
  0.125000  0.100000  0.000000     12.000000
  0.125000  0.125000  0.000000      3.000000
  0.025000  0.025000  0.025000      8.000000
  0.050000  0.025000  0.025000     24.000000
  0.075000  0.025000  0.025000     24.000000
  0.100000  0.025000  0.025000     24.000000
  0.125000  0.025000  0.025000     12.000000
  0.050000  0.050000  0.025000     24.000000
  0.075000  0.050000  0.025000     48.000000
  0.100000  0.050000  0.025000     48.000000
  0.125000  0.050000  0.025000     24.000000
  0.075000  0.075000  0.025000     24.000000
  0.100000  0.075000  0.025000     48.000000
  0.125000  0.075000  0.025000     24.000000
  0.100000  0.100000  0.025000     24.000000
  0.125000  0.100000  0.025000     24.000000
  0.125000  0.125000  0.025000      6.000000
  0.050000  0.050000  0.050000      8.000000
  0.075000  0.050000  0.050000     24.000000
  0.100000  0.050000  0.050000     24.000000
  0.125000  0.050000  0.050000     12.000000
  0.075000  0.075000  0.050000     24.000000
  0.100000  0.075000  0.050000     48.000000
  0.125000  0.075000  0.050000     24.000000
  0.100000  0.100000  0.050000     24.000000
  0.125000  0.100000  0.050000     24.000000
  0.125000  0.125000  0.050000      6.000000
  0.075000  0.075000  0.075000      8.000000
  0.100000  0.075000  0.075000     24.000000
  0.125000  0.075000  0.075000     12.000000
  0.100000  0.100000  0.075000     24.000000
  0.125000  0.100000  0.075000     24.000000
  0.125000  0.125000  0.075000      6.000000
  0.100000  0.100000  0.100000      8.000000
  0.125000  0.100000  0.100000     12.000000
  0.125000  0.125000  0.100000      6.000000
  0.125000  0.125000  0.125000      1.000000
 


--------------------------------------------------------------------------------------------------------




 Dimension of arrays:
   k-points           NKPTS =     56   k-points in BZ     NKDIM =     56   number of bands    NBANDS=     64
   number of dos      NEDOS =    301   number of ions     NIONS =      4
   non local maximal  LDIM  =      4   non local SUM 2l+1 LMDIM =      8
   total plane-waves  NPLWV =  27000
   max r-space proj   IRMAX =      1   max aug-charges    IRDMAX=  16617
   dimension x,y,z NGX =    30 NGY =   30 NGZ =   30
   dimension x,y,z NGXF=    60 NGYF=   60 NGZF=   60
   support grid    NGXF=    60 NGYF=   60 NGZF=   60
   ions per type =               4
   NGX,Y,Z   is equivalent  to a cutoff of  12.47, 12.47, 12.47 a.u.
   NGXF,Y,Z  is equivalent  to a cutoff of  24.94, 24.94, 24.94 a.u.

 SYSTEM =  unknown system                          
 POSCAR =  Al4                                     

 Startparameter for this run:
   NWRITE =      2    write-flag & timer
   PREC   = accura    normal or accurate (medium, high low for compatibility)
   ISTART =      0    job   : 0-new  1-cont  2-samecut
   ICHARG =      2    charge: 1-file 2-atom 10-const
   ISPIN  =      1    spin polarized calculation?
   LNONCOLLINEAR =      F non collinear calculations
   LSORBIT =      F    spin-orbit coupling
   INIWAV =      1    electr: 0-lowe 1-rand  2-diag
   LASPH  =      F    aspherical Exc in radial PAW
 Electronic Relaxation 1
   ENCUT  =  520.0 eV  38.22 Ry    6.18 a.u.   7.44  7.44  7.44*2*pi/ulx,y,z
   ENINI  =  520.0     initial cutoff
   ENAUG  =  291.1 eV  augmentation charge cutoff
   NELM   =    200;   NELMIN=  2; NELMDL=  0     # of ELM steps 
   EDIFF  = 0.1E-05   stopping-criterion for ELM
   LREAL  =      F    real-space projection
   NLSPLINE    = F    spline interpolate recip. space projectors
   LCOMPAT=      F    compatible to vasp.4.4
   GGA_COMPAT  = T    GGA compatible to vasp.4.4-vasp.4.6
   LMAXPAW     = -100 max onsite density
   LMAXMIX     =    2 max onsite mixed and CHGCAR
   VOSKOWN=      0    Vosko Wilk Nusair interpolation
   ROPT   =    0.00000
 Ionic relaxation
   EDIFFG = -.1E-01   stopping-criterion for IOM
   NSW    =      0    number of steps for IOM
   NBLOCK =      1;   KBLOCK =      1    inner block; outer block 
   IBRION =     -1    ionic relax: 0-MD 1-quasi-New 2-CG
   NFREE  =      0    steps in history (QN), initial steepest desc. (CG)
   ISIF   =      4    stress and relaxation
   IWAVPR =     10    prediction:  0-non 1-charg 2-wave 3-comb
   ISYM   =      2    0-nonsym 1-usesym 2-fastsym
   LCORR  =      T    Harris-Foulkes like correction to forces

   POTIM  = 0.5000    time-step for ionic-motion
   TEIN   =    0.0    initial temperature
   TEBEG  =    0.0;   TEEND  =   0.0 temperature during run
   SMASS  =  -3.00    Nose mass-parameter (am)
   estimated Nose-frequenzy (Omega)   =  0.10E-29 period in steps = 0.13E+47 mass=  -0.366E-27a.u.
   SCALEE = 1.0000    scale energy and forces
   NPACO  =    256;   APACO  = 10.0  distance and # of slots for P.C.
   PSTRESS=    0.0 pullay stress

  Mass of Ions in am
   POMASS =  26.98
  Ionic Valenz
   ZVAL   =   3.00
  Atomic Wigner-Seitz radii
   RWIGS  =  -1.00
  virtual crystal weights 
   VCA    =   1.00
   NELECT =      12.0000    total number of electrons
   NUPDOWN=      -1.0000    fix difference up-down

 DOS related values:
   EMIN   =  10.00;   EMAX   =-10.00  energy-range for DOS
   EFERMI =   0.00;   METHOD = LEGACY      
   ISMEAR =    -5;   SIGMA  =   0.20  broadening in eV -4-tet -1-fermi 0-gaus

 Electronic relaxation 2 (details)
   IALGO  =     38    algorithm
   LDIAG  =      T    sub-space diagonalisation (order eigenvalues)
   LSUBROT=      F    optimize rotation matrix (better conditioning)
   TURBO    =      0    0=normal 1=particle mesh
   IRESTART =      0    0=no restart 2=restart with 2 vectors
   NREBOOT  =      0    no. of reboots
   NMIN     =      0    reboot dimension
   EREF     =   0.00    reference energy to select bands
   IMIX   =      4    mixing-type and parameters
     AMIX     =   0.40;   BMIX     =  1.00
     AMIX_MAG =   1.60;   BMIX_MAG =  1.00
     AMIN     =   0.10
     WC   =   100.;   INIMIX=   1;  MIXPRE=   1;  MAXMIX= -45

 Intra band minimization:
   WEIMIN = 0.0000     energy-eigenvalue tresh-hold
   EBREAK =  0.39E-08  absolut break condition
   DEPER  =   0.30     relativ break condition  

   TIME   =   0.40     timestep for ELM

  volume/ion in A,a.u.               =      16.00       107.97
  Fermi-wavevector in a.u.,A,eV,Ry     =   0.937005  1.770683 11.945622  0.877978
  Thomas-Fermi vector in A             =   2.064072
 
 Write flags
   LWAVE        =      F    write WAVECAR
   LDOWNSAMPLE  =      F    k-point downsampling of WAVECAR
   LCHARG       =      F    write CHGCAR
   LVTOT        =      F    write LOCPOT, total local potential
   LVHAR        =      F    write LOCPOT, Hartree potential only
   WRT_POTENTIAL= false  ! write potential to hdf5 file
   LELF         =      F    write electronic localiz. function (ELF)
   LORBIT       =      0    0 simple, 1 ext, 2 COOP (PROOUT), +10 PAW based schemes


 Dipole corrections
   LMONO      =      F    monopole corrections only (constant potential shift)
   LDIPOL     =      F    correct potential (dipole corrections)
   IDIPOL     =      0    1-x, 2-y, 3-z, 4-all directions 
   EPSILON    =  1.0000000 bulk dielectric constant
   LVACPOTAV  =      F  vacuum potentials using an averaging scheme for the charge density
   VACPOTFLAT =  0.1000000 required flatness to determine vacuum potential
 Exchange correlation treatment:
   GGA     = PE    functional components
   XC_C    = 1    coefficients multiplying the functional components
   LIBXC   =     F    Libxc                    
   VOSKOWN =     0    Vosko Wilk Nusair interpolation
   LHFCALC =     F    Hartree Fock is set to
   LHFONE  =     F    Hartree Fock one center treatment
   AEXX    =    0.0000 exact exchange contribution

 Parameters of functionals:
   PE:
     No parameter
 
 Van der Waals corrections
   IVDW    =     0    specifies the selected vdW correction

 Linear response parameters
   LEPSILON=     F    determine dielectric tensor
   LRPA    =     F    only Hartree local field effects (RPA)
   LNABLA  =     F    use nabla operator in PAW spheres
   LVEL    =     F    velocity operator in full k-point grid
   CSHIFT  =0.1000    complex shift for real part using Kramers Kronig
   OMEGAMAX=  -1.0    maximum frequency
   DEG_THRESHOLD= 0.2000000E-02 threshold for treating states as degnerate
   RTIME   =   -0.100 relaxation time in fs
  (WPLASMAI=    0.000 imaginary part of plasma frequency in eV, 0.658/RTIME)
   DFIELD  = 0.0000000 0.0000000 0.0000000 field for delta impulse in time
 
  Optional k-point grid parameters
   LKPOINTS_OPT  =     F    use optional k-point grid
   KPOINTS_OPT_MODE=     1    mode for optional k-point grid
 
 Orbital magnetization related:
   ORBITALMAG=     F  switch on orbital magnetization
   LCHIMAG   =     F  perturbation theory with respect to B field
   DQ        =  0.001000  dq finite difference perturbation B field
   LLRAUG    =     F  two centre corrections for induced B field
   LBONE     =     F  B-component reconstruction in AE one-centre
   LVGVCALC  =     T  calculate vGv susceptibility
   LVGVAPPL  =     F  apply vGv susceptibility instead of pGv for G=0

 Random number generation:
   RANDOM_GENERATOR = DEFAULT
   PCG_SEED         = not used


--------------------------------------------------------------------------------------------------------


 Static calculation
 charge density and potential will be updated during run
 non-spin polarized calculation
 Variant of blocked Davidson
 Davidson routine will perform the subspace rotation
 perform sub-space diagonalisation
    after iterative eigenvector-optimisation
 modified Broyden-mixing scheme, WC =      100.0
 initial mixing is a Kerker type mixing with AMIX =  0.4000 and BMIX =      1.0000
 Hartree-type preconditioning will be used
 using additional bands           58
 reciprocal scheme for non local part
 use partial core corrections
 calculate Harris-corrections to forces 
   (improved forces if not selfconsistent)
 use gradient corrections 
 use of overlap-Matrix (Vanderbilt PP)
 Fermi weights with tetrahedron method with Bloechl corrections


--------------------------------------------------------------------------------------------------------


  energy-cutoff  :      520.00
  volume of cell :       64.00
      direct lattice vectors                 reciprocal lattice vectors
     4.000000000  0.000000000  0.000000000     0.250000000 -0.000000000  0.000000000
     0.000000000  4.000000000  0.000000000     0.000000000  0.250000000  0.000000000
     0.000000000  0.000000000  4.000000000    -0.000000000 -0.000000000  0.250000000

  length of vectors
     4.000000000  4.000000000  4.000000000     0.250000000  0.250000000  0.250000000


 
 k-points in units of 2pi/SCALE and weight: pymatgen with grid density = 4001 / numb
   0.00000000  0.00000000  0.00000000       0.001
   0.02500000  0.00000000  0.00000000       0.006
   0.05000000  0.00000000  0.00000000       0.006
   0.07500000  0.00000000  0.00000000       0.006
   0.10000000  0.00000000  0.00000000       0.006
   0.12500000  0.00000000  0.00000000       0.003
   0.02500000  0.02500000  0.00000000       0.012
   0.05000000  0.02500000  0.00000000       0.024
   0.07500000  0.02500000  0.00000000       0.024
   0.10000000  0.02500000  0.00000000       0.024
   0.12500000  0.02500000  0.00000000       0.012
   0.05000000  0.05000000  0.00000000       0.012
   0.07500000  0.05000000  0.00000000       0.024
   0.10000000  0.05000000  0.00000000       0.024
   0.12500000  0.05000000  0.00000000       0.012
   0.07500000  0.07500000  0.00000000       0.012
   0.10000000  0.07500000  0.00000000       0.024
   0.12500000  0.07500000  0.00000000       0.012
   0.10000000  0.10000000  0.00000000       0.012
   0.12500000  0.10000000  0.00000000       0.012
   0.12500000  0.12500000  0.00000000       0.003
   0.02500000  0.02500000  0.02500000       0.008
   0.05000000  0.02500000  0.02500000       0.024
   0.07500000  0.02500000  0.02500000       0.024
   0.10000000  0.02500000  0.02500000       0.024
   0.12500000  0.02500000  0.02500000       0.012
   0.05000000  0.05000000  0.02500000       0.024
   0.07500000  0.05000000  0.02500000       0.048
   0.10000000  0.05000000  0.02500000       0.048
   0.12500000  0.05000000  0.02500000       0.024
   0.07500000  0.07500000  0.02500000       0.024
   0.10000000  0.07500000  0.02500000       0.048
   0.12500000  0.07500000  0.02500000       0.024
   0.10000000  0.10000000  0.02500000       0.024
   0.12500000  0.10000000  0.02500000       0.024
   0.12500000  0.12500000  0.02500000       0.006
   0.05000000  0.05000000  0.05000000       0.008
   0.07500000  0.05000000  0.05000000       0.024
   0.10000000  0.05000000  0.05000000       0.024
   0.12500000  0.05000000  0.05000000       0.012
   0.07500000  0.07500000  0.05000000       0.024
   0.10000000  0.07500000  0.05000000       0.048
   0.12500000  0.07500000  0.05000000       0.024
   0.10000000  0.10000000  0.05000000       0.024
   0.12500000  0.10000000  0.05000000       0.024
   0.12500000  0.12500000  0.05000000       0.006
   0.07500000  0.07500000  0.07500000       0.008
   0.10000000  0.07500000  0.07500000       0.024
   0.12500000  0.07500000  0.07500000       0.012
   0.10000000  0.10000000  0.07500000       0.024
   0.12500000  0.10000000  0.07500000       0.024
   0.12500000  0.12500000  0.07500000       0.006
   0.10000000  0.10000000  0.10000000       0.008
   0.12500000  0.10000000  0.10000000       0.012
   0.12500000  0.12500000  0.10000000       0.006
   0.12500000  0.12500000  0.12500000       0.001
 
 k-points in reciprocal lattice and weights: pymatgen with grid density = 4001 / numb
   0.00000000  0.00000000  0.00000000       0.001
   0.10000000  0.00000000  0.00000000       0.006
   0.20000000  0.00000000  0.00000000       0.006
   0.30000000  0.00000000  0.00000000       0.006
   0.40000000  0.00000000  0.00000000       0.006
   0.50000000  0.00000000  0.00000000       0.003
   0.10000000  0.10000000  0.00000000       0.012
   0.20000000  0.10000000  0.00000000       0.024
   0.30000000  0.10000000  0.00000000       0.024
   0.40000000  0.10000000  0.00000000       0.024
   0.50000000  0.10000000  0.00000000       0.012
   0.20000000  0.20000000  0.00000000       0.012
   0.30000000  0.20000000  0.00000000       0.024
   0.40000000  0.20000000  0.00000000       0.024
   0.50000000  0.20000000  0.00000000       0.012
   0.30000000  0.30000000  0.00000000       0.012
   0.40000000  0.30000000  0.00000000       0.024
   0.50000000  0.30000000  0.00000000       0.012
   0.40000000  0.40000000  0.00000000       0.012
   0.50000000  0.40000000  0.00000000       0.012
   0.50000000  0.50000000  0.00000000       0.003
   0.10000000  0.10000000  0.10000000       0.008
   0.20000000  0.10000000  0.10000000       0.024
   0.30000000  0.10000000  0.10000000       0.024
   0.40000000  0.10000000  0.10000000       0.024
   0.50000000  0.10000000  0.10000000       0.012
   0.20000000  0.20000000  0.10000000       0.024
   0.30000000  0.20000000  0.10000000       0.048
   0.40000000  0.20000000  0.10000000       0.048
   0.50000000  0.20000000  0.10000000       0.024
   0.30000000  0.30000000  0.10000000       0.024
   0.40000000  0.30000000  0.10000000       0.048
   0.50000000  0.30000000  0.10000000       0.024
   0.40000000  0.40000000  0.10000000       0.024
   0.50000000  0.40000000  0.10000000       0.024
   0.50000000  0.50000000  0.10000000       0.006
   0.20000000  0.20000000  0.20000000       0.008
   0.30000000  0.20000000  0.20000000       0.024
   0.40000000  0.20000000  0.20000000       0.024
   0.50000000  0.20000000  0.20000000       0.012
   0.30000000  0.30000000  0.20000000       0.024
   0.40000000  0.30000000  0.20000000       0.048
   0.50000000  0.30000000  0.20000000       0.024
   0.40000000  0.40000000  0.20000000       0.024
   0.50000000  0.40000000  0.20000000       0.024
   0.50000000  0.50000000  0.20000000       0.006
   0.30000000  0.30000000  0.30000000       0.008
   0.40000000  0.30000000  0.30000000       0.024
   0.50000000  0.30000000  0.30000000       0.012
   0.40000000  0.40000000  0.30000000       0.024
   0.50000000  0.40000000  0.30000000       0.024
   0.50000000  0.50000000  0.30000000       0.006
   0.40000000  0.40000000  0.40000000       0.008
   0.50000000  0.40000000  0.40000000       0.012
   0.50000000  0.50000000  0.40000000       0.006
   0.50000000  0.50000000  0.50000000       0.001
 
 position of ions in fractional coordinates (direct lattice) 
   0.00000000  0.00000000  0.00000000
   0.00000000  0.50000000  0.50000000
   0.50000000  0.00000000  0.50000000
   0.50000000  0.50000000  0.00000000
 
 position of ions in cartesian coordinates  (Angst):
   0.00000000  0.00000000  0.00000000
   0.00000000  2.00000000  2.00000000
   2.00000000  0.00000000  2.00000000
   2.00000000  2.00000000  0.00000000
 


--------------------------------------------------------------------------------------------------------


 k-point     1 :   0.0000 0.0000 0.0000  plane waves:    1743
 k-point     2 :   0.1000 0.0000 0.0000  plane waves:    1751
 k-point     3 :   0.2000 0.0000 0.0000  plane waves:    1747
 k-point     4 :   0.3000 0.0000 0.0000  plane waves:    1743
 k-point     5 :   0.4000 0.0000 0.0000  plane waves:    1727
 k-point     6 :   0.5000 0.0000 0.0000  plane waves:    1750
 k-point     7 :   0.1000 0.1000 0.0000  plane waves:    1749
 k-point     8 :   0.2000 0.1000 0.0000  plane waves:    1738
 k-point     9 :   0.3000 0.1000 0.0000  plane waves:    1735
 k-point    10 :   0.4000 0.1000 0.0000  plane waves:    1722
 k-point    11 :   0.5000 0.1000 0.0000  plane waves:    1732
 k-point    12 :   0.2000 0.2000 0.0000  plane waves:    1749
 k-point    13 :   0.3000 0.2000 0.0000  plane waves:    1727
 k-point    14 :   0.4000 0.2000 0.0000  plane waves:    1711
 k-point    15 :   0.5000 0.2000 0.0000  plane waves:    1724
 k-point    16 :   0.3000 0.3000 0.0000  plane waves:    1728
 k-point    17 :   0.4000 0.3000 0.0000  plane waves:    1718
 k-point    18 :   0.5000 0.3000 0.0000  plane waves:    1702
 k-point    19 :   0.4000 0.4000 0.0000  plane waves:    1712
 k-point    20 :   0.5000 0.4000 0.0000  plane waves:    1700
 k-point    21 :   0.5000 0.5000 0.0000  plane waves:    1692
 k-point    22 :   0.1000 0.1000 0.1000  plane waves:    1746
 k-point    23 :   0.2000 0.1000 0.1000  plane waves:    1734
 k-point    24 :   0.3000 0.1000 0.1000  plane waves:    1741
 k-point    25 :   0.4000 0.1000 0.1000  plane waves:    1727
 k-point    26 :   0.5000 0.1000 0.1000  plane waves:    1728
 k-point    27 :   0.2000 0.2000 0.1000  plane waves:    1734
 k-point    28 :   0.3000 0.2000 0.1000  plane waves:    1719
 k-point    29 :   0.4000 0.2000 0.1000  plane waves:    1721
 k-point    30 :   0.5000 0.2000 0.1000  plane waves:    1728
 k-point    31 :   0.3000 0.3000 0.1000  plane waves:    1719
 k-point    32 :   0.4000 0.3000 0.1000  plane waves:    1724
 k-point    33 :   0.5000 0.3000 0.1000  plane waves:    1714
 k-point    34 :   0.4000 0.4000 0.1000  plane waves:    1712
 k-point    35 :   0.5000 0.4000 0.1000  plane waves:    1710
 k-point    36 :   0.5000 0.5000 0.1000  plane waves:    1716
 k-point    37 :   0.2000 0.2000 0.2000  plane waves:    1728
 k-point    38 :   0.3000 0.2000 0.2000  plane waves:    1719
 k-point    39 :   0.4000 0.2000 0.2000  plane waves:    1722
 k-point    40 :   0.5000 0.2000 0.2000  plane waves:    1720
 k-point    41 :   0.3000 0.3000 0.2000  plane waves:    1729
 k-point    42 :   0.4000 0.3000 0.2000  plane waves:    1725
 k-point    43 :   0.5000 0.3000 0.2000  plane waves:    1714
 k-point    44 :   0.4000 0.4000 0.2000  plane waves:    1721
 k-point    45 :   0.5000 0.4000 0.2000  plane waves:    1728
 k-point    46 :   0.5000 0.5000 0.2000  plane waves:    1716
 k-point    47 :   0.3000 0.3000 0.3000  plane waves:    1721
 k-point    48 :   0.4000 0.3000 0.3000  plane waves:    1721
 k-point    49 :   0.5000 0.3000 0.3000  plane waves:    1718
 k-point    50 :   0.4000 0.4000 0.3000  plane waves:    1719
 k-point    51 :   0.5000 0.4000 0.3000  plane waves:    1726
 k-point    52 :   0.5000 0.5000 0.3000  plane waves:    1724
 k-point    53 :   0.4000 0.4000 0.4000  plane waves:    1733
 k-point    54 :   0.5000 0.4000 0.4000  plane waves:    1716
 k-point    55 :   0.5000 0.5000 0.4000  plane waves:    1708
 k-point    56 :   0.5000 0.5000 0.5000  plane waves:    1736

 maximum and minimum number of plane-waves per node :      1751     1692

 maximum number of plane-waves:      1751
 maximum index in each direction: 
   IXMAX=    7   IYMAX=    7   IZMAX=    7
   IXMIN=   -7   IYMIN=   -7   IZMIN=   -7


 serial   3D FFT for wavefunctions
 parallel 3D FFT for charge:
    minimum data exchange during FFTs selected (reduces bandwidth)


 total amount of memory used by VASP MPI-rank0    39737. kBytes
=======================================================================

   base      :      30000. kBytes
   nonl-proj :       6537. kBytes
   fftplans  :        255. kBytes
   grid      :       1271. kBytes
   one-center:         12. kBytes
   wavefun   :       1662. kBytes
 
     INWAV:  cpu time      0.0000: real time      0.0000
 Broyden mixing: mesh for mixing (old mesh)
   NGX = 15   NGY = 15   NGZ = 15
  (NGX  = 60   NGY  = 60   NGZ  = 60)
  gives a total of   3375 points

 initial charge density was supplied:
 charge density of overlapping atoms calculated
 number of electron      12.0000000 magnetization 
 keeping initial charge density in first step


--------------------------------------------------------------------------------------------------------


 Maximum index for augmentation-charges          761 (set IRDMAX)


--------------------------------------------------------------------------------------------------------


 First call to EWALD:  gamma=   0.443
 Maximum number of real-space cells 3x 3x 3
 Maximum number of reciprocal cells 3x 3x 3

    FEWALD:  cpu time      0.0028: real time      0.0029


--------------------------------------- Ionic step        1  -------------------------------------------




--------------------------------------- Iteration      1(   1)  ---------------------------------------


    POTLOK:  cpu time      0.0101: real time      0.0120
    SETDIJ:  cpu time      0.0043: real time      0.0045
     EDDAV:  cpu time      2.6813: real time      2.6974
 BZINTS: Fermi energy:    8.917295;   12.000000 electrons
         Band energy: 0.499647E+02;  BLOECHL correction:   -0.239831
       DOS:  cpu time      0.0148: real time      0.0151
    --------------------------------------------
      LOOP:  cpu time      2.7105: real time      2.7290

 eigenvalue-minimisations  :  7168
 total energy-change (2. order) :-0.1109729E+02  (-0.4705916E+03)
 number of electron      12.0000000 magnetization 
 augmentation part       12.0000000 magnetization 

 Free energy of the ion-electron system (eV)
  ---------------------------------------------------
  alpha Z        PSCENC =        -0.83970248
  Ewald energy   TEWEN  =      -297.09467441
  -Hartree energ DENC   =        -0.36350320
  -exchange      EXHF   =         0.00000000
  -V(xc)+E(xc)   XCENC  =      -104.73607355
  PAW double counting   =       264.80062850     -136.98248303
  entropy T*S    EENTRO =         0.00000000
  eigenvalues    EBANDS =        49.96468978
  atomic energy  EATOM  =       214.15382826
  Solvation  Ediel_sol  =         0.00000000
  ---------------------------------------------------
  free energy    TOTEN  =       -11.09729012 eV

  energy without entropy =      -11.09729012  energy(sigma->0) =      -11.09729012


--------------------------------------------------------------------------------------------------------




--------------------------------------- Iteration      1(   2)  ---------------------------------------


     EDDAV:  cpu time      5.8574: real time      5.8903
 BZINTS: Fermi energy:    8.328385;   12.000000 electrons
         Band energy: 0.460168E+02;  BLOECHL correction:   -0.240016
       DOS:  cpu time      0.0113: real time      0.0114
    --------------------------------------------
      LOOP:  cpu time      5.8686: real time      5.9016

 eigenvalue-minimisations  : 10944
 total energy-change (2. order) :-0.3947905E+01  (-0.3923785E+01)
 number of electron      12.0000000 magnetization 
 augmentation part       12.0000000 magnetization 

 Free energy of the ion-electron system (eV)
  ---------------------------------------------------
  alpha Z        PSCENC =        -0.83970248
  Ewald energy   TEWEN  =      -297.09467441
  -Hartree energ DENC   =        -0.36350320
  -exchange      EXHF   =         0.00000000
  -V(xc)+E(xc)   XCENC  =      -104.73607355
  PAW double counting   =       264.80062850     -136.98248303
  entropy T*S    EENTRO =         0.00000000
  eigenvalues    EBANDS =        46.01678499
  atomic energy  EATOM  =       214.15382826
  Solvation  Ediel_sol  =         0.00000000
  ---------------------------------------------------
  free energy    TOTEN  =       -15.04519490 eV

  energy without entropy =      -15.04519490  energy(sigma->0) =      -15.04519490


--------------------------------------------------------------------------------------------------------




--------------------------------------- Iteration      1(   3)  ---------------------------------------


     EDDAV:  cpu time      2.7007: real time      2.7188
 BZINTS: Fermi energy:    8.328033;   12.000000 electrons
         Band energy: 0.460150E+02;  BLOECHL correction:   -0.240022
       DOS:  cpu time      0.0111: real time      0.0112
    --------------------------------------------
      LOOP:  cpu time      2.7118: real time      2.7299

 eigenvalue-minimisations  :  7168
 total energy-change (2. order) :-0.1794555E-02  (-0.1775324E-02)
 number of electron      12.0000000 magnetization 
 augmentation part       12.0000000 magnetization 

 Free energy of the ion-electron system (eV)
  ---------------------------------------------------
  alpha Z        PSCENC =        -0.83970248
  Ewald energy   TEWEN  =      -297.09467441
  -Hartree energ DENC   =        -0.36350320
  -exchange      EXHF   =         0.00000000
  -V(xc)+E(xc)   XCENC  =      -104.73607355
  PAW double counting   =       264.80062850     -136.98248303
  entropy T*S    EENTRO =         0.00000000
  eigenvalues    EBANDS =        46.01499044
  atomic energy  EATOM  =       214.15382826
  Solvation  Ediel_sol  =         0.00000000
  ---------------------------------------------------
  free energy    TOTEN  =       -15.04698946 eV

  energy without entropy =      -15.04698946  energy(sigma->0) =      -15.04698946


--------------------------------------------------------------------------------------------------------




--------------------------------------- Iteration      1(   4)  ---------------------------------------


     EDDAV:  cpu time     10.5012: real time     10.5554
 BZINTS: Fermi energy:    8.328033;   12.000000 electrons
         Band energy: 0.460150E+02;  BLOECHL correction:   -0.240022
       DOS:  cpu time      0.0119: real time      0.0119
    --------------------------------------------
      LOOP:  cpu time     10.5130: real time     10.5673

 eigenvalue-minimisations  : 14144
 total energy-change (2. order) :-0.8397652E-06  (-0.8229794E-06)
 number of electron      12.0000000 magnetization 
 augmentation part       12.0000000 magnetization 

 Free energy of the ion-electron system (eV)
  ---------------------------------------------------
  alpha Z        PSCENC =        -0.83970248
  Ewald energy   TEWEN  =      -297.09467441
  -Hartree energ DENC   =        -0.36350320
  -exchange      EXHF   =         0.00000000
  -V(xc)+E(xc)   XCENC  =      -104.73607355
  PAW double counting   =       264.80062850     -136.98248303
  entropy T*S    EENTRO =         0.00000000
  eigenvalues    EBANDS =        46.01498960
  atomic energy  EATOM  =       214.15382826
  Solvation  Ediel_sol  =         0.00000000
  ---------------------------------------------------
  free energy    TOTEN  =       -15.04699030 eV

  energy without entropy =      -15.04699030  energy(sigma->0) =      -15.04699030


--------------------------------------------------------------------------------------------------------




--------------------------------------- Iteration      1(   5)  ---------------------------------------


     EDDAV:  cpu time      2.9108: real time      2.9313
 BZINTS: Fermi energy:    8.328033;   12.000000 electrons
         Band energy: 0.460150E+02;  BLOECHL correction:   -0.240022
       DOS:  cpu time      0.0115: real time      0.0119
    CHARGE:  cpu time      0.0293: real time      0.0297
    MIXING:  cpu time      0.0024: real time      0.0026
    --------------------------------------------
      LOOP:  cpu time      2.9540: real time      2.9756

 eigenvalue-minimisations  :  7168
 total energy-change (2. order) : 0.8174084E-10  (-0.6051723E-12)
 number of electron      12.0000000 magnetization 
 augmentation part       -0.1460792 magnetization 

 Broyden mixing:
  rms(total) = 0.27109E+00    rms(broyden)= 0.27109E+00
  rms(prec ) = 0.47922E+00
  weight for this iteration     100.00

 Free energy of the ion-electron system (eV)
  ---------------------------------------------------
  alpha Z        PSCENC =        -0.83970248
  Ewald energy   TEWEN  =      -297.09467441
  -Hartree energ DENC   =        -0.36350320
  -exchange      EXHF   =         0.00000000
  -V(xc)+E(xc)   XCENC  =      -104.73607355
  PAW double counting   =       264.80062850     -136.98248303
  entropy T*S    EENTRO =         0.00000000
  eigenvalues    EBANDS =        46.01498960
  atomic energy  EATOM  =       214.15382826
  Solvation  Ediel_sol  =         0.00000000
  ---------------------------------------------------
  free energy    TOTEN  =       -15.04699030 eV

  energy without entropy =      -15.04699030  energy(sigma->0) =      -15.04699030


--------------------------------------------------------------------------------------------------------




--------------------------------------- Iteration      1(   6)  ---------------------------------------


    POTLOK:  cpu time      0.0134: real time      0.0138
    SETDIJ:  cpu time      0.0011: real time      0.0011
     EDDAV:  cpu time      6.5118: real time      6.5473
 BZINTS: Fermi energy:    8.317025;   12.000000 electrons
         Band energy: 0.458945E+02;  BLOECHL correction:   -0.240393
       DOS:  cpu time      0.0120: real time      0.0121
    CHARGE:  cpu time      0.0253: real time      0.0254
    MIXING:  cpu time      0.0014: real time      0.0014
    --------------------------------------------
      LOOP:  cpu time      6.5649: real time      6.6010

 eigenvalue-minimisations  : 11200
 total energy-change (2. order) : 0.5325589E-01  (-0.6128163E-03)
 number of electron      12.0000000 magnetization 
 augmentation part       -0.1481310 magnetization 

 Broyden mixing:
  rms(total) = 0.15751E+00    rms(broyden)= 0.15751E+00
  rms(prec ) = 0.29323E+00
  weight for this iteration     100.00

 eigenvalues of (default mixing * dielectric matrix)
  average eigenvalue GAMMA=   2.3370
  2.3370

 Free energy of the ion-electron system (eV)
  ---------------------------------------------------
  alpha Z        PSCENC =        -0.83970248
  Ewald energy   TEWEN  =      -297.09467441
  -Hartree energ DENC   =        -0.32006112
  -exchange      EXHF   =         0.00000000
  -V(xc)+E(xc)   XCENC  =      -104.58534247
  PAW double counting   =       388.96997284     -261.17221792
  entropy T*S    EENTRO =         0.00000000
  eigenvalues    EBANDS =        45.89446288
  atomic energy  EATOM  =       214.15382826
  Solvation  Ediel_sol  =         0.00000000
  ---------------------------------------------------
  free energy    TOTEN  =       -14.99373441 eV

  energy without entropy =      -14.99373441  energy(sigma->0) =      -14.99373441


--------------------------------------------------------------------------------------------------------




--------------------------------------- Iteration      1(   7)  ---------------------------------------


    POTLOK:  cpu time      0.0135: real time      0.0141
    SETDIJ:  cpu time      0.0011: real time      0.0011
     EDDAV:  cpu time      6.6741: real time      6.7115
 BZINTS: Fermi energy:    8.305164;   12.000000 electrons
         Band energy: 0.457782E+02;  BLOECHL correction:   -0.241056
       DOS:  cpu time      0.0111: real time      0.0112
    CHARGE:  cpu time      0.0253: real time      0.0254
    MIXING:  cpu time      0.0011: real time      0.0011
    --------------------------------------------
      LOOP:  cpu time      6.7262: real time      6.7643

 eigenvalue-minimisations  : 11392
 total energy-change (2. order) : 0.3820744E-01  (-0.1749931E-02)
 number of electron      12.0000000 magnetization 
 augmentation part       -0.1520931 magnetization 

 Broyden mixing:
  rms(total) = 0.27708E-01    rms(broyden)= 0.27708E-01
  rms(prec ) = 0.30100E-01
  weight for this iteration     100.00

 eigenvalues of (default mixing * dielectric matrix)
  average eigenvalue GAMMA=   2.9216
  2.9216  2.9216

 Free energy of the ion-electron system (eV)
  ---------------------------------------------------
  alpha Z        PSCENC =        -0.83970248
  Ewald energy   TEWEN  =      -297.09467441
  -Hartree energ DENC   =        -0.41696799
  -exchange      EXHF   =         0.00000000
  -V(xc)+E(xc)   XCENC  =      -104.29493519
  PAW double counting   =       640.49732775     -512.73864009
  entropy T*S    EENTRO =         0.00000000
  eigenvalues    EBANDS =        45.77823717
  atomic energy  EATOM  =       214.15382826
  Solvation  Ediel_sol  =         0.00000000
  ---------------------------------------------------
  free energy    TOTEN  =       -14.95552698 eV

  energy without entropy =      -14.95552698  energy(sigma->0) =      -14.95552698


--------------------------------------------------------------------------------------------------------




--------------------------------------- Iteration      1(   8)  ---------------------------------------


    POTLOK:  cpu time      0.0135: real time      0.0139
    SETDIJ:  cpu time      0.0011: real time      0.0011
     EDDAV:  cpu time      5.7312: real time      5.7672
 BZINTS: Fermi energy:    8.305511;   12.000000 electrons
         Band energy: 0.457848E+02;  BLOECHL correction:   -0.241081
       DOS:  cpu time      0.0109: real time      0.0110
    CHARGE:  cpu time      0.0255: real time      0.0256
    MIXING:  cpu time      0.0004: real time      0.0004
    --------------------------------------------
      LOOP:  cpu time      5.7825: real time      5.8191

 eigenvalue-minimisations  :  9984
 total energy-change (2. order) : 0.9440550E-04  (-0.3976084E-05)
 number of electron      12.0000000 magnetization 
 augmentation part       -0.1523773 magnetization 

 Broyden mixing:
  rms(total) = 0.54985E-02    rms(broyden)= 0.54985E-02
  rms(prec ) = 0.64794E-02
  weight for this iteration     100.00

 eigenvalues of (default mixing * dielectric matrix)
  average eigenvalue GAMMA=   2.1033
  1.0631  2.5285  2.7184

 Free energy of the ion-electron system (eV)
  ---------------------------------------------------
  alpha Z        PSCENC =        -0.83970248
  Ewald energy   TEWEN  =      -297.09467441
  -Hartree energ DENC   =        -0.43255522
  -exchange      EXHF   =         0.00000000
  -V(xc)+E(xc)   XCENC  =      -104.27486119
  PAW double counting   =       582.30628843     -454.55850921
  entropy T*S    EENTRO =         0.00000000
  eigenvalues    EBANDS =        45.78475324
  atomic energy  EATOM  =       214.15382826
  Solvation  Ediel_sol  =         0.00000000
  ---------------------------------------------------
  free energy    TOTEN  =       -14.95543257 eV

  energy without entropy =      -14.95543257  energy(sigma->0) =      -14.95543257


--------------------------------------------------------------------------------------------------------




--------------------------------------- Iteration      1(   9)  ---------------------------------------


    POTLOK:  cpu time      0.0132: real time      0.0136
    SETDIJ:  cpu time      0.0011: real time      0.0011
     EDDAV:  cpu time      8.9861: real time      9.0403
 BZINTS: Fermi energy:    8.305311;   12.000000 electrons
         Band energy: 0.457826E+02;  BLOECHL correction:   -0.241091
       DOS:  cpu time      0.0115: real time      0.0116
    CHARGE:  cpu time      0.0249: real time      0.0254
    MIXING:  cpu time      0.0003: real time      0.0003
    --------------------------------------------
      LOOP:  cpu time      9.0371: real time      9.0923

 eigenvalue-minimisations  : 12800
 total energy-change (2. order) :-0.2664629E-05  (-0.3936406E-06)
 number of electron      12.0000000 magnetization 
 augmentation part       -0.1524230 magnetization 

 Broyden mixing:
  rms(total) = 0.13284E-03    rms(broyden)= 0.13284E-03
  rms(prec ) = 0.16697E-03
  weight for this iteration     100.00

 eigenvalues of (default mixing * dielectric matrix)
  average eigenvalue GAMMA=   2.1399
  0.9947  2.6210  2.6210  2.3231

 Free energy of the ion-electron system (eV)
  ---------------------------------------------------
  alpha Z        PSCENC =        -0.83970248
  Ewald energy   TEWEN  =      -297.09467441
  -Hartree energ DENC   =        -0.43454840
  -exchange      EXHF   =         0.00000000
  -V(xc)+E(xc)   XCENC  =      -104.27127317
  PAW double counting   =       592.47140562     -464.72309897
  entropy T*S    EENTRO =         0.00000000
  eigenvalues    EBANDS =        45.78262831
  atomic energy  EATOM  =       214.15382826
  Solvation  Ediel_sol  =         0.00000000
  ---------------------------------------------------
  free energy    TOTEN  =       -14.95543524 eV

  energy without entropy =      -14.95543524  energy(sigma->0) =      -14.95543524


--------------------------------------------------------------------------------------------------------




--------------------------------------- Iteration      1(  10)  ---------------------------------------


    POTLOK:  cpu time      0.0131: real time      0.0138
    SETDIJ:  cpu time      0.0011: real time      0.0011
     EDDAV:  cpu time      3.7173: real time      3.7415
 BZINTS: Fermi energy:    8.305295;   12.000000 electrons
         Band energy: 0.457824E+02;  BLOECHL correction:   -0.241091
       DOS:  cpu time      0.0116: real time      0.0117
    --------------------------------------------
      LOOP:  cpu time      3.7431: real time      3.7681

 eigenvalue-minimisations  :  7872
 total energy-change (2. order) : 0.7691029E-06  (-0.6620956E-09)
 number of electron      12.0000000 magnetization 
 augmentation part       -0.1524230 magnetization 

 Free energy of the ion-electron system (eV)
  ---------------------------------------------------
  alpha Z        PSCENC =        -0.83970248
  Ewald energy   TEWEN  =      -297.09467441
  -Hartree energ DENC   =        -0.43452972
  -exchange      EXHF   =         0.00000000
  -V(xc)+E(xc)   XCENC  =      -104.27130819
  PAW double counting   =       592.41033053     -464.66180750
  entropy T*S    EENTRO =         0.00000000
  eigenvalues    EBANDS =        45.78242905
  atomic energy  EATOM  =       214.15382826
  Solvation  Ediel_sol  =         0.00000000
  ---------------------------------------------------
  free energy    TOTEN  =       -14.95543447 eV

  energy without entropy =      -14.95543447  energy(sigma->0) =      -14.95543447


--------------------------------------------------------------------------------------------------------




 average (electrostatic) potential at core
  the test charge radii are     1.0406
  (the norm of the test charge is              1.0000)
       1 -72.2605       2 -72.2605       3 -72.2605       4 -72.2605
 
 
 
 E-fermi :   8.3053     XC(G=0): -10.3087     alpha+bet :-15.3412

 val. band max:        8.5453780039   @ k =   0.5000   0.5000   0.1000
 cond. band min:       8.0776062106   @ k =   0.1000   0.1000   0.0000
 fundamental gap:     -0.4677717932
 Fermi energy:         8.3052952429

 k-point     1 :       0.0000    0.0000    0.0000
  band No.  band energies     occupation 
      1      -3.0242      2.00000
      2       5.3262      2.00000
      3       5.3262      2.00000
      4       5.3262      2.00000
      5       6.7171      2.00000
      6       6.7171      2.00000
      7       6.7171      2.00000
      8      13.5893      0.00000
      9      13.5893      0.00000
     10      13.5893      0.00000
     11      14.0650      0.00000
     12      14.0650      0.00000
     13      14.0650      0.00000
     14      14.0650      0.00000
     15      14.0650      0.00000
     16      14.0650      0.00000
     17      17.6891      0.00000
     18      17.6891      0.00000
     19      17.6891      0.00000
     20      21.1158      0.00000
     21      21.1158      0.00000
     22      21.1158      0.00000
     23      22.8437      0.00000
     24      22.8437      0.00000
     25      22.8437      0.00000
     26      25.0148      0.00000
     27      28.0713      0.00000
     28      28.0713      0.00000
     29      31.0637      0.00000
     30      33.4287      0.00000
     31      33.4287      0.00000
     32      33.4287      0.00000
     33      34.2030      0.00000
     34      34.2030      0.00000
     35      34.2030      0.00000
     36      35.7456      0.00000
     37      35.7456      0.00000
     38      35.7456      0.00000
     39      35.7456      0.00000
     40      35.7456      0.00000
     41      35.7456      0.00000
     42      41.4824      0.00000
     43      41.4824      0.00000
     44      41.4824      0.00000
     45      42.4527      0.00000
     46      42.4527      0.00000
     47      42.4527      0.00000
     48      42.4527      0.00000
     49      42.4527      0.00000
     50      42.4527      0.00000
     51      42.4690      0.00000
     52      42.8211      0.00000
     53      42.8211      0.00000
     54      42.8211      0.00000
     55      43.7065      0.00000
     56      43.7065      0.00000
     57      43.7065      0.00000
     58      49.5296      0.00000
     59      49.5296      0.00000
     60      49.5296      0.00000
     61      49.5296      0.00000
     62      49.5296      0.00000
     63      49.5296      0.00000
     64      50.1763      0.00000

 k-point     2 :       0.1000    0.0000    0.0000
  band No.  band energies     occupation 
      1      -2.9317      2.00000
      2       4.2100      2.00000
      3       5.4106      2.00000
      4       5.4106      2.00000
      5       6.8056      2.00293
      6       6.8056      2.07454
      7       7.9925      1.46178
      8      12.1897      0.00000
      9      12.1897      0.00000
     10      13.4689      0.00000
     11      13.4689      0.00000
     12      13.6807      0.00000
     13      14.1430      0.00000
     14      14.1430      0.00000
     15      15.6358      0.00000
     16      15.6358      0.00000
     17      17.7742      0.00000
     18      18.4231      0.00000
     19      18.4231      0.00000
     20      20.2668      0.00000
     21      20.2668      0.00000
     22      20.4600      0.00000
     23      22.6190      0.00000
     24      23.8300      0.00000
     25      23.8300      0.00000
     26      25.8554      0.00000
     27      26.9186      0.00000
     28      28.1571      0.00000
     29      31.0311      0.00000
     30      33.5315      0.00000
     31      33.5315      0.00000
     32      33.7150      0.00000
     33      33.7150      0.00000
     34      33.8494      0.00000
     35      34.6034      0.00000
     36      34.6034      0.00000
     37      34.8100      0.00000
     38      35.4436      0.00000
     39      35.4436      0.00000
     40      35.7660      0.00000
     41      35.7660      0.00000
     42      41.6679      0.00000
     43      41.7208      0.00000
     44      41.7208      0.00000
     45      41.9620      0.00000
     46      41.9620      0.00000
     47      42.0175      0.00000
     48      42.4995      0.00000
     49      42.4995      0.00000
     50      42.5986      0.00000
     51      42.5986      0.00000
     52      42.8376      0.00000
     53      43.2059      0.00000
     54      43.2059      0.00000
     55      44.4251      0.00000
     56      44.5860      0.00000
     57      44.5860      0.00000
     58      47.1833      0.00000
     59      47.1833      0.00000
     60      47.2715      0.00000
     61      48.7525      0.00000
     62      48.7525      0.00000
     63      48.8352      0.00000
     64      48.8352      0.00000

 k-point     3 :       0.2000    0.0000    0.0000
  band No.  band energies     occupation 
      1      -2.6546      2.00000
      2       2.7584      2.00000
      3       5.6637      2.00000
      4       5.6637      2.00000
      5       7.0686      2.02024
      6       7.0686      2.54355
      7       9.9213     -0.15142
      8      10.7490      0.00000
      9      10.7490      0.00000
     10      12.3314      0.00000
     11      12.3314      0.00000
     12      13.9543      0.00000
     13      14.3770      0.00000
     14      14.3770      0.00000
     15      17.5889      0.00000
     16      17.5889      0.00000
     17      18.0270      0.00000
     18      19.0315      0.00000
     19      19.0315      0.00000
     20      19.2270      0.00000
     21      19.9726      0.00000
     22      19.9726      0.00000
     23      22.0362      0.00000
     24      24.5273      0.00000
     25      25.4670      0.00000
     26      25.4670      0.00000
     27      27.6427      0.00000
     28      28.4136      0.00000
     29      31.6245      0.00000
     30      32.2586      0.00000
     31      32.2586      0.00000
     32      32.3804      0.00000
     33      32.3804      0.00000
     34      33.0123      0.00000
     35      33.8488      0.00000
     36      33.8488      0.00000
     37      34.6640      0.00000
     38      34.6640      0.00000
     39      35.8205      0.00000
     40      35.8205      0.00000
     41      37.0257      0.00000
     42      40.0318      0.00000
     43      41.0848      0.00000
     44      41.0848      0.00000
     45      42.1242      0.00000
     46      42.1242      0.00000
     47      42.4660      0.00000
     48      42.4660      0.00000
     49      42.6392      0.00000
     50      42.6392      0.00000
     51      43.3991      0.00000
     52      43.9320      0.00000
     53      43.9896      0.00000
     54      43.9896      0.00000
     55      44.0134      0.00000
     56      44.6978      0.00000
     57      45.3459      0.00000
     58      45.3459      0.00000
     59      45.8560      0.00000
     60      45.8560      0.00000
     61      47.4669      0.00000
     62      47.4669      0.00000
     63      47.6667      0.00000
     64      47.6667      0.00000

 k-point     4 :       0.3000    0.0000    0.0000
  band No.  band energies     occupation 
      1      -2.1940      2.00000
      2       1.4321      2.00000
      3       6.0859      2.00000
      4       6.0859      2.00000
      5       7.4958      2.02397
      6       7.4958      2.53924
      7       9.4751      0.00000
      8       9.4751      0.00000
      9      11.1703      0.00000
     10      11.1703      0.00000
     11      12.0415      0.00000
     12      14.4095      0.00000
     13      14.7673      0.00000
     14      14.7673      0.00000
     15      17.8836      0.00000
     16      17.8836      0.00000
     17      17.9741      0.00000
     18      18.4399      0.00000
     19      19.7127      0.00000
     20      19.7127      0.00000
     21      21.2648      0.00000
     22      21.8122      0.00000
     23      21.8122      0.00000
     24      21.8943      0.00000
     25      27.2474      0.00000
     26      27.2474      0.00000
     27      28.8383      0.00000
     28      29.6281      0.00000
     29      29.6281      0.00000
     30      29.8189      0.00000
     31      30.5299      0.00000
     32      30.5299      0.00000
     33      32.0176      0.00000
     34      32.6398      0.00000
     35      33.5909      0.00000
     36      33.5909      0.00000
     37      34.4095      0.00000
     38      34.4095      0.00000
     39      35.8900      0.00000
     40      35.8900      0.00000
     41      38.3743      0.00000
     42      38.9958      0.00000
     43      40.2326      0.00000
     44      40.2326      0.00000
     45      40.7402      0.00000
     46      40.8567      0.00000
     47      40.8567      0.00000
     48      42.8687      0.00000
     49      42.8687      0.00000
     50      42.9390      0.00000
     51      42.9390      0.00000
     52      44.2010      0.00000
     53      44.2041      0.00000
     54      44.2041      0.00000
     55      45.3004      0.00000
     56      45.4304      0.00000
     57      45.4304      0.00000
     58      46.0850      0.00000
     59      46.2491      0.00000
     60      46.2491      0.00000
     61      46.6557      0.00000
     62      46.6557      0.00000
     63      46.8041      0.00000
     64      46.8041      0.00000

 k-point     5 :       0.4000    0.0000    0.0000
  band No.  band energies     occupation 
      1      -1.5518      2.00000
      2       0.2658      2.00000
      3       6.6777      2.00000
      4       6.6777      2.00000
      5       8.0468      1.99518
      6       8.0468      2.05735
      7       8.3718      0.00000
      8       8.3718      0.00000
      9      10.1554      0.00000
     10      10.1554      0.00000
     11      14.3159      0.00000
     12      15.0445      0.00000
     13      15.3140      0.00000
     14      15.3140      0.00000
     15      16.8374      0.00000
     16      16.8747      0.00000
     17      16.8747      0.00000
     18      18.9993      0.00000
     19      19.2606      0.00000
     20      20.4607      0.00000
     21      21.9967      0.00000
     22      21.9967      0.00000
     23      23.7472      0.00000
     24      23.7472      0.00000
     25      26.9862      0.00000
     26      26.9862      0.00000
     27      28.5130      0.00000
     28      28.5130      0.00000
     29      29.0528      0.00000
     30      29.0528      0.00000
     31      29.4260      0.00000
     32      31.0429      0.00000
     33      32.2471      0.00000
     34      32.2932      0.00000
     35      32.2932      0.00000
     36      33.8814      0.00000
     37      35.2707      0.00000
     38      35.2707      0.00000
     39      35.9484      0.00000
     40      35.9484      0.00000
     41      36.7763      0.00000
     42      37.7215      0.00000
     43      38.1974      0.00000
     44      38.1974      0.00000
     45      40.6086      0.00000
     46      40.8388      0.00000
     47      40.8388      0.00000
     48      43.1795      0.00000
     49      43.1795      0.00000
     50      43.2228      0.00000
     51      43.5174      0.00000
     52      43.5174      0.00000
     53      43.9678      0.00000
     54      43.9678      0.00000
     55      45.1904      0.00000
     56      45.1904      0.00000
     57      45.2481      0.00000
     58      45.2481      0.00000
     59      46.2589      0.00000
     60      46.2589      0.00000
     61      47.5431      0.00000
     62      48.2657      0.00000
     63      48.2657      0.00000
     64      48.9013      0.00000

 k-point     6 :       0.5000    0.0000    0.0000
  band No.  band energies     occupation 
      1      -0.7306      2.00000
      2      -0.7306      2.00000
      3       7.4394      2.00000
      4       7.4394      2.00000
      5       7.4394      2.00000
      6       7.4394      2.00017
      7       8.4398      0.00000
      8       8.4398      0.00000
      9       9.6049      0.00000
     10       9.6049      0.00000
     11      15.8560      0.00000
     12      15.8560      0.00000
     13      16.0169      0.00000
     14      16.0169      0.00000
     15      16.0169      0.00000
     16      16.0169      0.00000
     17      16.7285      0.00000
     18      16.7285      0.00000
     19      19.6836      0.00000
     20      19.6836      0.00000
     21      24.4283      0.00000
     22      24.4283      0.00000
     23      24.4283      0.00000
     24      24.4283      0.00000
     25      25.1045      0.00000
     26      25.1045      0.00000
     27      27.1168      0.00000
     28      27.1168      0.00000
     29      30.1669      0.00000
     30      30.1669      0.00000
     31      30.7689      0.00000
     32      30.7689      0.00000
     33      30.7689      0.00000
     34      30.7689      0.00000
     35      34.8869      0.00000
     36      34.8869      0.00000
     37      35.2714      0.00000
     38      35.2714      0.00000
     39      35.9711      0.00000
     40      35.9711      0.00000
     41      36.5149      0.00000
     42      36.5149      0.00000
     43      36.5149      0.00000
     44      36.5149      0.00000
     45      40.8560      0.00000
     46      40.8560      0.00000
     47      41.9977      0.00000
     48      41.9977      0.00000
     49      43.5461      0.00000
     50      43.5461      0.00000
     51      43.5461      0.00000
     52      43.5461      0.00000
     53      44.2973      0.00000
     54      44.2973      0.00000
     55      44.2973      0.00000
     56      44.2973      0.00000
     57      45.1478      0.00000
     58      45.1478      0.00000
     59      46.0724      0.00000
     60      46.0724      0.00000
     61      50.0452      0.00000
     62      50.0452      0.00000
     63      50.1835      0.00000
     64      50.1835      0.00000

 k-point     7 :       0.1000    0.1000    0.0000
  band No.  band energies     occupation 
      1      -2.8393      2.00000
      2       4.2969      2.00000
      3       4.2969      2.00000
      4       5.4950      2.00000
      5       6.8929      2.02542
      6       8.0776      2.06835
      7       8.0776      0.95749
      8      11.1356      0.00000
      9      12.2754      0.00000
     10      12.2754      0.00000
     11      13.5502      0.00000
     12      13.5502      0.00000
     13      14.2224      0.00000
     14      15.4221      0.00000
     15      15.7193      0.00000
     16      15.7193      0.00000
     17      18.5053      0.00000
     18      18.5053      0.00000
     19      18.9490      0.00000
     20      19.2464      0.00000
     21      19.5915      0.00000
     22      21.2958      0.00000
     23      22.9644      0.00000
     24      23.6734      0.00000
     25      24.0663      0.00000
     26      26.6491      0.00000
     27      26.8112      0.00000
     28      27.4867      0.00000
     29      30.7783      0.00000
     30      33.0476      0.00000
     31      33.0476      0.00000
     32      33.3342      0.00000
     33      33.6393      0.00000
     34      34.4717      0.00000
     35      34.7449      0.00000
     36      34.8286      0.00000
     37      34.8540      0.00000
     38      34.8540      0.00000
     39      35.2097      0.00000
     40      35.4539      0.00000
     41      35.4539      0.00000
     42      40.5716      0.00000
     43      40.9035      0.00000
     44      40.9035      0.00000
     45      42.2445      0.00000
     46      42.2445      0.00000
     47      42.6012      0.00000
     48      42.6012      0.00000
     49      42.6133      0.00000
     50      43.1125      0.00000
     51      43.1125      0.00000
     52      43.1743      0.00000
     53      43.2340      0.00000
     54      43.5947      0.00000
     55      44.6356      0.00000
     56      45.1702      0.00000
     57      45.1702      0.00000
     58      45.8925      0.00000
     59      45.8925      0.00000
     60      47.6879      0.00000
     61      47.6879      0.00000
     62      48.1844      0.00000
     63      48.6497      0.00000
     64      48.7954      0.00000

 k-point     8 :       0.2000    0.1000    0.0000
  band No.  band energies     occupation 
      1      -2.5624      2.00000
      2       2.8469      2.00000
      3       4.5576      2.00000
      4       5.7481      2.00000
      5       7.1499      2.07824
      6       8.3297      0.79843
      7       9.7599     -0.07720
      8      10.0016      0.00000
      9      10.8342      0.00000
     10      12.4189      0.00000
     11      12.5322      0.00000
     12      13.4361      0.00000
     13      13.7945      0.00000
     14      15.9697      0.00000
     15      16.8864      0.00000
     16      17.5817      0.00000
     17      17.6723      0.00000
     18      18.4403      0.00000
     19      18.7499      0.00000
     20      20.0505      0.00000
     21      20.7227      0.00000
     22      20.8702      0.00000
     23      22.6155      0.00000
     24      24.5731      0.00000
     25      24.7774      0.00000
     26      25.3713      0.00000
     27      27.5299      0.00000
     28      28.5849      0.00000
     29      31.0621      0.00000
     30      31.1258      0.00000
     31      31.9681      0.00000
     32      32.1976      0.00000
     33      32.3009      0.00000
     34      33.4409      0.00000
     35      33.9753      0.00000
     36      34.6419      0.00000
     37      34.6919      0.00000
     38      34.8032      0.00000
     39      35.3780      0.00000
     40      35.4753      0.00000
     41      37.3447      0.00000
     42      39.3065      0.00000
     43      39.6238      0.00000
     44      40.1363      0.00000
     45      41.6288      0.00000
     46      42.4660      0.00000
     47      42.5170      0.00000
     48      42.5838      0.00000
     49      42.9261      0.00000
     50      43.3905      0.00000
     51      43.6116      0.00000
     52      43.7518      0.00000
     53      43.9798      0.00000
     54      44.2053      0.00000
     55      44.2654      0.00000
     56      44.8887      0.00000
     57      45.0390      0.00000
     58      45.0825      0.00000
     59      46.3835      0.00000
     60      46.4147      0.00000
     61      46.7789      0.00000
     62      48.0074      0.00000
     63      48.0363      0.00000
     64      49.2124      0.00000

 k-point     9 :       0.3000    0.1000    0.0000
  band No.  band energies     occupation 
      1      -2.1021      2.00000
      2       1.5216      2.00000
      3       4.9907      2.00000
      4       6.1704      2.00000
      5       7.5326      2.04089
      6       8.5503      0.32486
      7       8.7328      0.00000
      8       9.5601      0.00000
      9      11.2727      0.00000
     10      12.1101      0.00000
     11      12.2918      0.00000
     12      12.9596      0.00000
     13      14.2059      0.00000
     14      16.3409      0.00000
     15      16.3867      0.00000
     16      17.3135      0.00000
     17      18.9244      0.00000
     18      19.1497      0.00000
     19      19.6496      0.00000
     20      19.7954      0.00000
     21      21.8502      0.00000
     22      21.8845      0.00000
     23      22.0273      0.00000
     24      22.7496      0.00000
     25      26.5645      0.00000
     26      26.9551      0.00000
     27      28.1109      0.00000
     28      28.6266      0.00000
     29      29.6921      0.00000
     30      30.4835      0.00000
     31      30.6168      0.00000
     32      30.8773      0.00000
     33      31.5366      0.00000
     34      31.8738      0.00000
     35      33.5022      0.00000
     36      33.9292      0.00000
     37      34.5868      0.00000
     38      34.9694      0.00000
     39      35.4817      0.00000
     40      36.1769      0.00000
     41      37.3727      0.00000
     42      39.2542      0.00000
     43      39.2870      0.00000
     44      39.3489      0.00000
     45      39.7907      0.00000
     46      41.8907      0.00000
     47      41.9867      0.00000
     48      42.4114      0.00000
     49      42.4883      0.00000
     50      42.7141      0.00000
     51      43.6169      0.00000
     52      43.8551      0.00000
     53      44.0866      0.00000
     54      44.1204      0.00000
     55      44.3099      0.00000
     56      44.4708      0.00000
     57      45.4871      0.00000
     58      46.2440      0.00000
     59      46.7339      0.00000
     60      47.0711      0.00000
     61      47.1679      0.00000
     62      47.9235      0.00000
     63      48.0808      0.00000
     64      49.7355      0.00000

 k-point    10 :       0.4000    0.1000    0.0000
  band No.  band energies     occupation 
      1      -1.4603      2.00000
      2       0.3561      2.00000
      3       5.5941      2.00000
      4       6.7623      2.00000
      5       7.2548      2.00253
      6       8.3148      1.47871
      7       8.4566      0.00000
      8       9.1786      0.00000
      9      10.3522      0.00000
     10      11.2465      0.00000
     11      13.5565      0.00000
     12      14.2909      0.00000
     13      14.8575      0.00000
     14      15.2509      0.00000
     15      16.3003      0.00000
     16      16.9696      0.00000
     17      18.6166      0.00000
     18      19.3682      0.00000
     19      19.6924      0.00000
     20      21.1133      0.00000
     21      21.1489      0.00000
     22      22.0779      0.00000
     23      23.7920      0.00000
     24      24.7059      0.00000
     25      26.1485      0.00000
     26      27.0597      0.00000
     27      28.1040      0.00000
     28      28.4965      0.00000
     29      28.5491      0.00000
     30      29.4286      0.00000
     31      29.4407      0.00000
     32      29.8642      0.00000
     33      32.0842      0.00000
     34      32.7282      0.00000
     35      32.7568      0.00000
     36      32.8304      0.00000
     37      35.1604      0.00000
     38      35.4399      0.00000
     39      35.5296      0.00000
     40      35.5867      0.00000
     41      36.9861      0.00000
     42      37.2560      0.00000
     43      39.2607      0.00000
     44      39.3916      0.00000
     45      39.6145      0.00000
     46      40.1664      0.00000
     47      40.9509      0.00000
     48      42.3450      0.00000
     49      42.3976      0.00000
     50      42.4546      0.00000
     51      43.0828      0.00000
     52      43.4669      0.00000
     53      44.1348      0.00000
     54      44.2000      0.00000
     55      44.6364      0.00000
     56      45.7107      0.00000
     57      45.7242      0.00000
     58      46.4965      0.00000
     59      46.9837      0.00000
     60      48.0869      0.00000
     61      48.3086      0.00000
     62      48.9115      0.00000
     63      49.0018      0.00000
     64      49.8023      0.00000

 k-point    11 :       0.5000    0.1000    0.0000
  band No.  band energies     occupation 
      1      -0.6397      2.00000
      2      -0.6397      2.00000
      3       6.3614      2.00000
      4       6.3614      2.00000
      5       7.5242      2.00000
      6       7.5242      2.02405
      7       8.9522      0.00000
      8       8.9522      0.00000
      9      10.4152      0.00000
     10      10.4152      0.00000
     11      14.3212      0.00000
     12      14.3212      0.00000
     13      15.4145      0.00000
     14      15.4145      0.00000
     15      16.8595      0.00000
     16      16.8595      0.00000
     17      17.7154      0.00000
     18      17.7154      0.00000
     19      20.3575      0.00000
     20      20.3575      0.00000
     21      23.4739      0.00000
     22      23.4739      0.00000
     23      24.5068      0.00000
     24      24.5068      0.00000
     25      25.6998      0.00000
     26      25.6998      0.00000
     27      27.6307      0.00000
     28      27.6307      0.00000
     29      28.9544      0.00000
     30      28.9544      0.00000
     31      30.3882      0.00000
[...]
     64      50.4214      0.00000

 k-point    52 :       0.5000    0.5000    0.3000
  band No.  band energies     occupation 
      1       2.3277      2.00000
      2       2.3277      2.00000
      3       2.3277      2.00000
      4       2.3277      2.00000
      5       5.8646      2.00000
      6       5.8646      2.00000
      7       5.8646      2.00000
      8       5.8646      2.06956
      9      16.1977      0.00000
     10      16.1977      0.00000
     11      16.1977      0.00000
     12      16.1977      0.00000
     13      18.7266      0.00000
     14      18.7266      0.00000
     15      18.7266      0.00000
     16      18.7266      0.00000
     17      20.5383      0.00000
     18      20.5383      0.00000
     19      20.5383      0.00000
     20      20.5383      0.00000
     21      21.9048      0.00000
     22      21.9048      0.00000
     23      21.9048      0.00000
     24      21.9048      0.00000
     25      24.8925      0.00000
     26      24.8925      0.00000
     27      24.8925      0.00000
     28      24.8925      0.00000
     29      27.1056      0.00000
     30      27.1056      0.00000
     31      27.1056      0.00000
     32      27.1056      0.00000
     33      31.1756      0.00000
     34      31.1756      0.00000
     35      31.1756      0.00000
     36      31.1756      0.00000
     37      32.7132      0.00000
     38      32.7132      0.00000
     39      32.7132      0.00000
     40      32.7132      0.00000
     41      38.8456      0.00000
     42      38.8456      0.00000
     43      38.8456      0.00000
     44      38.8456      0.00000
     45      41.1315      0.00000
     46      41.1315      0.00000
     47      41.1315      0.00000
     48      41.1315      0.00000
     49      42.7168      0.00000
     50      42.7168      0.00000
     51      42.7168      0.00000
     52      42.7168      0.00000
     53      47.7610      0.00000
     54      47.7610      0.00000
     55      47.7610      0.00000
     56      47.7610      0.00000
     57      48.7487      0.00000
     58      48.7487      0.00000
     59      48.7487      0.00000
     60      48.7487      0.00000
     61      50.4572      0.00000
     62      50.4572      0.00000
     63      50.4572      0.00000
     64      50.4572      0.00000

 k-point    53 :       0.4000    0.4000    0.4000
  band No.  band energies     occupation 
      1       1.3466      2.00000
      2       3.1211      2.00000
      3       3.1211      2.00000
      4       3.1211      2.00000
      5       4.9115      2.00000
      6       4.9115      2.00000
      7       4.9115      2.00000
      8       6.6495      2.06497
      9      16.9288      0.00000
     10      16.9288      0.00000
     11      16.9288      0.00000
     12      17.8528      0.00000
     13      17.8528      0.00000
     14      17.8528      0.00000
     15      19.4344      0.00000
     16      19.4344      0.00000
     17      19.6097      0.00000
     18      19.6097      0.00000
     19      19.6097      0.00000
     20      21.0241      0.00000
     21      21.0241      0.00000
     22      22.6186      0.00000
     23      22.6186      0.00000
     24      22.6186      0.00000
     25      23.1244      0.00000
     26      25.0089      0.00000
     27      25.6466      0.00000
     28      25.6466      0.00000
     29      25.6466      0.00000
     30      26.2520      0.00000
     31      26.2520      0.00000
     32      26.2520      0.00000
     33      31.3181      0.00000
     34      31.3181      0.00000
     35      31.3181      0.00000
     36      31.7850      0.00000
     37      31.7850      0.00000
     38      33.6553      0.00000
     39      33.6553      0.00000
     40      33.6553      0.00000
     41      38.7031      0.00000
     42      40.1173      0.00000
     43      40.1173      0.00000
     44      40.1173      0.00000
     45      40.1317      0.00000
     46      40.1317      0.00000
     47      40.1317      0.00000
     48      41.6307      0.00000
     49      41.6307      0.00000
     50      41.6307      0.00000
     51      41.8920      0.00000
     52      41.8920      0.00000
     53      47.6099      0.00000
     54      48.0962      0.00000
     55      48.0962      0.00000
     56      48.0962      0.00000
     57      49.1466      0.00000
     58      49.1466      0.00000
     59      49.2894      0.00000
     60      50.6292      0.00000
     61      50.6292      0.00000
     62      50.6292      0.00000
     63      51.0642      0.00000
     64      51.0642      0.00000

 k-point    54 :       0.5000    0.4000    0.4000
  band No.  band energies     occupation 
      1       2.1501      2.00000
      2       2.1501      2.00000
      3       3.7790      2.00000
      4       3.7790      2.00000
      5       4.0829      2.00000
      6       4.0829      2.00000
      7       5.6935      2.00000
      8       5.6935      2.02149
      9      17.4571      0.00000
     10      17.4571      0.00000
     11      17.7281      0.00000
     12      17.7281      0.00000
     13      18.5643      0.00000
     14      18.5643      0.00000
     15      19.1188      0.00000
     16      19.1188      0.00000
     17      19.9475      0.00000
     18      19.9475      0.00000
     19      21.0156      0.00000
     20      21.0156      0.00000
     21      21.1775      0.00000
     22      21.1775      0.00000
     23      21.7417      0.00000
     24      21.7417      0.00000
     25      24.1082      0.00000
     26      24.1082      0.00000
     27      25.0706      0.00000
     28      25.0706      0.00000
     29      25.4283      0.00000
     30      25.4283      0.00000
     31      25.6808      0.00000
     32      25.6808      0.00000
     33      31.6622      0.00000
     34      31.6622      0.00000
     35      32.4875      0.00000
     36      32.4875      0.00000
     37      33.1384      0.00000
     38      33.1384      0.00000
     39      33.3097      0.00000
     40      33.3097      0.00000
     41      39.6394      0.00000
     42      39.6394      0.00000
     43      39.9549      0.00000
     44      39.9549      0.00000
     45      40.1551      0.00000
     46      40.1551      0.00000
     47      40.2964      0.00000
     48      40.2964      0.00000
     49      41.3609      0.00000
     50      41.3609      0.00000
     51      41.7272      0.00000
     52      41.7272      0.00000
     53      47.5519      0.00000
     54      47.5519      0.00000
     55      47.7331      0.00000
     56      47.7331      0.00000
     57      49.7971      0.00000
     58      49.7971      0.00000
     59      50.1487      0.00000
     60      50.1487      0.00000
     61      51.3465      0.00000
     62      51.3465      0.00000
     63      51.4289      0.00000
     64      51.4289      0.00000

 k-point    55 :       0.5000    0.5000    0.4000
  band No.  band energies     occupation 
      1       2.9454      2.00000
      2       2.9454      2.00000
      3       2.9454      2.00000
      4       2.9454      2.00000
      5       4.7365      2.00000
      6       4.7365      2.00000
      7       4.7365      2.00000
      8       4.7365      2.00000
      9      18.2469      0.00000
     10      18.2469      0.00000
     11      18.2469      0.00000
     12      18.2469      0.00000
     13      19.2803      0.00000
     14      19.2803      0.00000
     15      19.2803      0.00000
     16      19.2803      0.00000
     17      20.6747      0.00000
     18      20.6747      0.00000
     19      20.6747      0.00000
     20      20.6747      0.00000
     21      20.8743      0.00000
     22      20.8743      0.00000
     23      20.8743      0.00000
     24      20.8743      0.00000
     25      24.0782      0.00000
     26      24.0782      0.00000
     27      24.0782      0.00000
     28      24.0782      0.00000
     29      24.9340      0.00000
     30      24.9340      0.00000
     31      24.9340      0.00000
     32      24.9340      0.00000
     33      32.7939      0.00000
     34      32.7939      0.00000
     35      32.7939      0.00000
     36      32.7939      0.00000
     37      33.3416      0.00000
     38      33.3416      0.00000
     39      33.3416      0.00000
     40      33.3416      0.00000
     41      39.5193      0.00000
     42      39.5193      0.00000
     43      39.5193      0.00000
     44      39.5193      0.00000
     45      40.6900      0.00000
     46      40.6900      0.00000
     47      40.6900      0.00000
     48      40.6900      0.00000
     49      40.7436      0.00000
     50      40.7436      0.00000
     51      40.7436      0.00000
     52      40.7436      0.00000
     53      47.1883      0.00000
     54      47.1883      0.00000
     55      47.1883      0.00000
     56      47.1883      0.00000
     57      50.8630      0.00000
     58      50.8630      0.00000
     59      50.8630      0.00000
     60      50.8630      0.00000
     61      51.5709      0.00000
     62      51.5709      0.00000
     63      51.5709      0.00000
     64      51.5709      0.00000

 k-point    56 :       0.5000    0.5000    0.5000
  band No.  band energies     occupation 
      1       3.6083      2.00000
      2       3.6083      2.00000
      3       3.6083      2.00000
      4       3.6083      2.00000
      5       3.9028      2.00000
      6       3.9028      2.00000
      7       3.9028      2.00000
      8       3.9028      2.00000
      9      19.9287      0.00000
     10      19.9287      0.00000
     11      19.9287      0.00000
     12      19.9287      0.00000
     13      19.9287      0.00000
     14      19.9287      0.00000
     15      19.9287      0.00000
     16      19.9287      0.00000
     17      20.0665      0.00000
     18      20.0665      0.00000
     19      20.0665      0.00000
     20      20.0665      0.00000
     21      20.0665      0.00000
     22      20.0665      0.00000
     23      20.0665      0.00000
     24      20.0665      0.00000
     25      23.6533      0.00000
     26      23.6533      0.00000
     27      23.6533      0.00000
     28      23.6533      0.00000
     29      24.0093      0.00000
     30      24.0093      0.00000
     31      24.0093      0.00000
     32      24.0093      0.00000
     33      33.5710      0.00000
     34      33.5710      0.00000
     35      33.5710      0.00000
     36      33.5710      0.00000
     37      33.5710      0.00000
     38      33.5710      0.00000
     39      33.5710      0.00000
     40      33.5710      0.00000
     41      39.7734      0.00000
     42      39.7734      0.00000
     43      39.7734      0.00000
     44      39.7734      0.00000
     45      39.7734      0.00000
     46      39.7734      0.00000
     47      39.7734      0.00000
     48      39.7734      0.00000
     49      40.6580      0.00000
     50      40.6580      0.00000
     51      40.6580      0.00000
     52      40.6580      0.00000
     53      46.6483      0.00000
     54      46.6483      0.00000
     55      46.6483      0.00000
     56      46.6483      0.00000
     57      51.8376      0.00000
     58      51.8376      0.00000
     59      51.8376      0.00000
     60      51.8376      0.00000
     61      52.8892      0.00000
     62      52.8892      0.00000
     63      52.8892      0.00000
     64      52.8892      0.00000


--------------------------------------------------------------------------------------------------------


 soft charge-density along one line, spin component           1
         0         1         2         3         4         5         6         7         8         9
 total charge-density along one line
 
 pseudopotential strength for first ion, spin component:           1
  8.434  14.373   0.000  -0.000  -0.000   0.000  -0.000   0.000
 14.373  24.495   0.000  -0.000  -0.000   0.000  -0.000   0.000
  0.000   0.000   1.989   0.000  -0.000   5.733   0.000  -0.000
 -0.000  -0.000   0.000   1.989  -0.000   0.000   5.733  -0.000
 -0.000  -0.000  -0.000  -0.000   1.989  -0.000  -0.000   5.733
  0.000   0.000   5.733   0.000  -0.000  16.435   0.000  -0.000
 -0.000  -0.000   0.000   5.733  -0.000   0.000  16.435  -0.000
  0.000   0.000  -0.000  -0.000   5.733  -0.000  -0.000  16.435
 total augmentation occupancy for first ion, spin component:           1
  3.494  -0.886  -0.000  -0.000  -0.000  -0.000   0.000   0.000
 -0.886   0.292   0.000  -0.000   0.000   0.000  -0.000   0.000
 -0.000   0.000   1.144   0.000   0.000  -0.074  -0.000  -0.000
 -0.000  -0.000   0.000   1.144   0.000  -0.000  -0.074  -0.000
 -0.000   0.000   0.000   0.000   1.144  -0.000  -0.000  -0.074
 -0.000   0.000  -0.074  -0.000  -0.000   0.005   0.000   0.000
  0.000  -0.000  -0.000  -0.074  -0.000   0.000   0.005   0.000
  0.000   0.000  -0.000  -0.000  -0.074   0.000   0.000   0.005


------------------------ aborting loop because EDIFF is reached ----------------------------------------


    CHARGE:  cpu time      0.0261: real time      0.0262
    FORLOC:  cpu time      0.0007: real time      0.0007
    FORNL :  cpu time      0.0270: real time      0.0273
    STRESS:  cpu time      0.4154: real time      0.4202
    FORCOR:  cpu time      0.0036: real time      0.0036
    FORHAR:  cpu time      0.0012: real time      0.0013
    MIXING:  cpu time      0.0004: real time      0.0004
    OFIELD:  cpu time      0.0004: real time      0.0004

  FORCE on cell =-STRESS in cart. coord.  units (eV):
  Direction    XX          YY          ZZ          XY          YZ          ZX
  --------------------------------------------------------------------------------------
  Alpha Z    -0.83970    -0.83970    -0.83970
  Ewald     -99.03160   -99.03160   -99.03160     0.00000     0.00000     0.00000
  Hartree     0.14485     0.14485     0.14485    -0.00000    -0.00000    -0.00000
  E(xc)     -34.59223   -34.59223   -34.59223    -0.00000     0.00000    -0.00000
  Local       1.92700     1.92700     1.92700     0.00000     0.00000     0.00000
  n-local    74.88508    75.77217    77.84125     0.33650     1.12802     0.43106
  augment    -4.06310    -4.06310    -4.06310     0.00000     0.00000     0.00000
  Kinetic    58.72830    60.72127    64.35402     1.52246    -8.43341    -1.21272
  Fock        0.00000     0.00000     0.00000     0.00000     0.00000     0.00000
  -------------------------------------------------------------------------------------
  Total       0.97925     0.97925     0.97925     0.00000    -0.00000     0.00000
  in kB      24.51452    24.51452    24.51452     0.00000    -0.00000     0.00000
  external pressure =       24.51 kB  Pullay stress =        0.00 kB


 VOLUME and BASIS-vectors are now :
 -----------------------------------------------------------------------------
  energy-cutoff  :      520.00
  volume of cell :       64.00
      direct lattice vectors                 reciprocal lattice vectors
     4.000000000  0.000000000  0.000000000     0.250000000 -0.000000000  0.000000000
     0.000000000  4.000000000  0.000000000     0.000000000  0.250000000  0.000000000
     0.000000000  0.000000000  4.000000000    -0.000000000 -0.000000000  0.250000000

  length of vectors
     4.000000000  4.000000000  4.000000000     0.250000000  0.250000000  0.250000000


 FORCES acting on ions
    electron-ion (+dipol)            ewald-force                    non-local-force                 convergence-correction
 -----------------------------------------------------------------------------------------------
   0.295E-14 0.807E-15 -.143E-15   -.499E-15 -.172E-14 -.120E-14   0.536E-19 -.245E-19 0.101E-18   0.810E-15 0.125E-15 0.514E-16
   0.272E-14 -.349E-14 -.125E-14   -.459E-15 0.137E-14 0.336E-15   -.554E-19 0.460E-19 -.696E-19   0.807E-15 -.116E-15 -.576E-16
   0.478E-16 0.678E-15 0.247E-13   0.396E-15 -.143E-14 0.357E-15   -.115E-19 -.481E-19 -.739E-19   -.808E-15 0.946E-16 -.438E-16
   0.537E-15 -.113E-13 -.175E-13   0.439E-15 0.167E-14 0.523E-15   -.137E-19 -.293E-19 -.663E-19   -.802E-15 -.103E-15 0.556E-16
 -----------------------------------------------------------------------------------------------
   0.625E-14 -.133E-13 0.581E-14   -.123E-15 -.109E-15 0.176E-16   -.271E-19 -.559E-19 -.108E-18   0.661E-17 0.112E-19 0.555E-17
 
 
 POSITION                                       TOTAL-FORCE (eV/Angst)
 -----------------------------------------------------------------------------------
      0.00000      0.00000      0.00000         0.000000     -0.000000      0.000000
      0.00000      2.00000      2.00000         0.000000     -0.000000     -0.000000
      2.00000      0.00000      2.00000        -0.000000      0.000000     -0.000000
      2.00000      2.00000      0.00000        -0.000000     -0.000000     -0.000000
 -----------------------------------------------------------------------------------
    total drift:                                0.000000     -0.000000      0.000000


--------------------------------------------------------------------------------------------------------



  FREE ENERGIE OF THE ION-ELECTRON SYSTEM (eV)
  ---------------------------------------------------
  free  energy   TOTEN  =       -14.95543447 eV

  energy  without entropy=      -14.95543447  energy(sigma->0) =      -14.95543447
 


--------------------------------------------------------------------------------------------------------


    POTLOK:  cpu time      0.0064: real time      0.0067


--------------------------------------------------------------------------------------------------------


     LOOP+:  cpu time     57.1140: real time     57.4623
 -----------------------------------------------------------------------------
|                                                                             |
|           W    W    AA    RRRRR   N    N  II  N    N   GGGG   !!!           |
|           W    W   A  A   R    R  NN   N  II  NN   N  G    G  !!!           |
|           W    W  A    A  R    R  N N  N  II  N N  N  G       !!!           |
|           W WW W  AAAAAA  RRRRR   N  N N  II  N  N N  G  GGG   !            |
|           WW  WW  A    A  R   R   N   NN  II  N   NN  G    G                |
|           W    W  A    A  R    R  N    N  II  N    N   GGGG   !!!           |
|                                                                             |
|     Tetrahedron method does not include variations of the Fermi             |
|     occupations, so forces and stress will be inaccurate. We suggest        |
|     using a different smearing scheme ISMEAR = 1 or 2 for metals in         |
|     relaxations.                                                            |
|                                                                             |
 -----------------------------------------------------------------------------

    4ORBIT:  cpu time      0.0000: real time      0.0000
 BZINTS: Fermi energy:    8.305295;   12.000000 electrons
         Band energy: 0.457824E+02;  BLOECHL correction:   -0.241091

 total amount of memory used by VASP MPI-rank0    39737. kBytes
=======================================================================

   base      :      30000. kBytes
   nonl-proj :       6537. kBytes
   fftplans  :        255. kBytes
   grid      :       1271. kBytes
   one-center:         12. kBytes
   wavefun   :       1662. kBytes
 
  
  
 General timing and accounting informations for this job:
 ========================================================
  
                  Total CPU time used (sec):       60.134
                            User time (sec):       57.991
                          System time (sec):        2.143
                         Elapsed time (sec):       62.827
  
                   Maximum memory used (kb):      702852.
                   Average memory used (kb):          N/A
  
                          Minor page faults:       134787
                          Major page faults:          140
                 Voluntary context switches:         4844
