  16  16   1   0
  0.2037500E+02  0.7135333E-09  0.6830409E-09  0.7191653E-09  0.5000000E-15
  1.000000000000000E-004
  CAR 
 unknown system                          
      9.18640895    -53.13727014  301      3.16955258      1.00000000
    -53.137  0.0000E+00  0.0000E+00  0.0000E+00  0.0000E+00
    -52.930  0.0000E+00  0.0000E+00  0.0000E+00  0.0000E+00
    -52.722  0.0000E+00  0.0000E+00  0.0000E+00  0.0000E+00
    -52.514  0.0000E+00  0.0000E+00  0.0000E+00  0.0000E+00
    -52.306  0.0000E+00  0.0000E+00  0.0000E+00  0.0000E+00
    -52.099  0.0000E+00  0.0000E+00  0.0000E+00  0.0000E+00
    -51.891  0.0000E+00  0.0000E+00  0.0000E+00  0.0000E+00
    -51.683  0.0000E+00  0.0000E+00  0.0000E+00  0.0000E+00
    -51.475  0.0000E+00  0.0000E+00  0.0000E+00  0.0000E+00
    -51.268  0.0000E+00  0.0000E+00  0.0000E+00  0.0000E+00
    -51.060  0.0000E+00  0.0000E+00  0.0000E+00  0.0000E+00
    -50.852  0.0000E+00  0.0000E+00  0.0000E+00  0.0000E+00
    -50.644  0.0000E+00  0.0000E+00  0.0000E+00  0.0000E+00
    -50.437  0.0000E+00  0.0000E+00  0.0000E+00  0.0000E+00
    -50.229  0.9627E+01  0.9627E+01  0.2000E+01  0.2000E+01
    -50.021  0.9627E+01  0.9627E+01  0.4000E+01  0.4000E+01
    -49.813  0.7697E+02  0.7697E+02  0.7788E+01  0.7788E+01
    -49.606  0.1009E+03  0.1009E+03  0.2034E+02  0.2034E+02
    -49.398  0.1680E+02  0.1680E+02  0.2400E+02  0.2400E+02
    -49.190  0.0000E+00  0.0000E+00  0.2400E+02  0.2400E+02
    -48.982  0.0000E+00  0.0000E+00  0.2400E+02  0.2400E+02
    -48.775  0.0000E+00  0.0000E+00  0.2400E+02  0.2400E+02
    -48.567  0.0000E+00  0.0000E+00  0.2400E+02  0.2400E+02
    -48.359  0.0000E+00  0.0000E+00  0.2400E+02  0.2400E+02
    -48.151  0.0000E+00  0.0000E+00  0.2400E+02  0.2400E+02
    -47.944  0.0000E+00  0.0000E+00  0.2400E+02  0.2400E+02
    -47.736  0.0000E+00  0.0000E+00  0.2400E+02  0.2400E+02
    -47.528  0.0000E+00  0.0000E+00  0.2400E+02  0.2400E+02
    -47.320  0.0000E+00  0.0000E+00  0.2400E+02  0.2400E+02
    -47.113  0.0000E+00  0.0000E+00  0.2400E+02  0.2400E+02
    -46.905  0.0000E+00  0.0000E+00  0.2400E+02  0.2400E+02
    -46.697  0.0000E+00  0.0000E+00  0.2400E+02  0.2400E+02
    -46.489  0.0000E+00  0.0000E+00  0.2400E+02  0.2400E+02
    -46.282  0.0000E+00  0.0000E+00  0.2400E+02  0.2400E+02
    -46.074  0.0000E+00  0.0000E+00  0.2400E+02  0.2400E+02
    -45.866  0.0000E+00  0.0000E+00  0.2400E+02  0.2400E+02
    -45.658  0.0000E+00  0.0000E+00  0.2400E+02  0.2400E+02
    -45.451  0.0000E+00  0.0000E+00  0.2400E+02  0.2400E+02
    -45.243  0.0000E+00  0.0000E+00  0.2400E+02  0.2400E+02
    -45.035  0.0000E+00  0.0000E+00  0.2400E+02  0.2400E+02
    -44.827  0.0000E+00  0.0000E+00  0.2400E+02  0.2400E+02
    -44.620  0.0000E+00  0.0000E+00  0.2400E+02  0.2400E+02
    -44.412  0.0000E+00  0.0000E+00  0.2400E+02  0.2400E+02
    -44.204  0.0000E+00  0.0000E+00  0.2400E+02  0.2400E+02
    -43.996  0.0000E+00  0.0000E+00  0.2400E+02  0.2400E+02
    -43.789  0.0000E+00  0.0000E+00  0.2400E+02  0.2400E+02
    -43.581  0.0000E+00  0.0000E+00  0.2400E+02  0.2400E+02
    -43.373  0.0000E+00  0.0000E+00  0.2400E+02  0.2400E+02
    -43.165  0.0000E+00  0.0000E+00  0.2400E+02  0.2400E+02
    -42.958  0.0000E+00  0.0000E+00  0.2400E+02  0.2400E+02
    -42.750  0.0000E+00  0.0000E+00  0.2400E+02  0.2400E+02
    -42.542  0.0000E+00  0.0000E+00  0.2400E+02  0.2400E+02
    -42.334  0.0000E+00  0.0000E+00  0.2400E+02  0.2400E+02
    -42.127  0.0000E+00  0.0000E+00  0.2400E+02  0.2400E+02
    -41.919  0.0000E+00  0.0000E+00  0.2400E+02  0.2400E+02
    -41.711  0.0000E+00  0.0000E+00  0.2400E+02  0.2400E+02
    -41.504  0.0000E+00  0.0000E+00  0.2400E+02  0.2400E+02
    -41.296  0.0000E+00  0.0000E+00  0.2400E+02  0.2400E+02
    -41.088  0.0000E+00  0.0000E+00  0.2400E+02  0.2400E+02
    -40.880  0.0000E+00  0.0000E+00  0.2400E+02  0.2400E+02
    -40.673  0.0000E+00  0.0000E+00  0.2400E+02  0.2400E+02
    -40.465  0.0000E+00  0.0000E+00  0.2400E+02  0.2400E+02
    -40.257  0.0000E+00  0.0000E+00  0.2400E+02  0.2400E+02
    -40.049  0.0000E+00  0.0000E+00  0.2400E+02  0.2400E+02
    -39.842  0.0000E+00  0.0000E+00  0.2400E+02  0.2400E+02
    -39.634  0.0000E+00  0.0000E+00  0.2400E+02  0.2400E+02
    -39.426  0.0000E+00  0.0000E+00  0.2400E+02  0.2400E+02
    -39.218  0.0000E+00  0.0000E+00  0.2400E+02  0.2400E+02
    -39.011  0.0000E+00  0.0000E+00  0.2400E+02  0.2400E+02
    -38.803  0.0000E+00  0.0000E+00  0.2400E+02  0.2400E+02
    -38.595  0.0000E+00  0.0000E+00  0.2400E+02  0.2400E+02
    -38.387  0.0000E+00  0.0000E+00  0.2400E+02  0.2400E+02
    -38.180  0.0000E+00  0.0000E+00  0.2400E+02  0.2400E+02
    -37.972  0.0000E+00  0.0000E+00  0.2400E+02  0.2400E+02
    -37.764  0.0000E+00  0.0000E+00  0.2400E+02  0.2400E+02
    -37.556  0.0000E+00  0.0000E+00  0.2400E+02  0.2400E+02
    -37.349  0.0000E+00  0.0000E+00  0.2400E+02  0.2400E+02
    -37.141  0.0000E+00  0.0000E+00  0.2400E+02  0.2400E+02
    -36.933  0.0000E+00  0.0000E+00  0.2400E+02  0.2400E+02
    -36.725  0.0000E+00  0.0000E+00  0.2400E+02  0.2400E+02
    -36.518  0.0000E+00  0.0000E+00  0.2400E+02  0.2400E+02
    -36.310  0.0000E+00  0.0000E+00  0.2400E+02  0.2400E+02
    -36.102  0.0000E+00  0.0000E+00  0.2400E+02  0.2400E+02
    -35.894  0.0000E+00  0.0000E+00  0.2400E+02  0.2400E+02
    -35.687  0.0000E+00  0.0000E+00  0.2400E+02  0.2400E+02
    -35.479  0.0000E+00  0.0000E+00  0.2400E+02  0.2400E+02
    -35.271  0.0000E+00  0.0000E+00  0.2400E+02  0.2400E+02
    -35.063  0.0000E+00  0.0000E+00  0.2400E+02  0.2400E+02
    -34.856  0.0000E+00  0.0000E+00  0.2400E+02  0.2400E+02
    -34.648  0.0000E+00  0.0000E+00  0.2400E+02  0.2400E+02
    -34.440  0.0000E+00  0.0000E+00  0.2400E+02  0.2400E+02
    -34.232  0.0000E+00  0.0000E+00  0.2400E+02  0.2400E+02
    -34.025  0.0000E+00  0.0000E+00  0.2400E+02  0.2400E+02
    -33.817  0.0000E+00  0.0000E+00  0.2400E+02  0.2400E+02
    -33.609  0.0000E+00  0.0000E+00  0.2400E+02  0.2400E+02
    -33.401  0.0000E+00  0.0000E+00  0.2400E+02  0.2400E+02
    -33.194  0.0000E+00  0.0000E+00  0.2400E+02  0.2400E+02
    -32.986  0.0000E+00  0.0000E+00  0.2400E+02  0.2400E+02
    -32.778  0.0000E+00  0.0000E+00  0.2400E+02  0.2400E+02
    -32.570  0.0000E+00  0.0000E+00  0.2400E+02  0.2400E+02
    -32.363  0.0000E+00  0.0000E+00  0.2400E+02  0.2400E+02
    -32.155  0.0000E+00  0.0000E+00  0.2400E+02  0.2400E+02
    -31.947  0.0000E+00  0.0000E+00  0.2400E+02  0.2400E+02
    -31.739  0.0000E+00  0.0000E+00  0.2400E+02  0.2400E+02
    -31.532  0.0000E+00  0.0000E+00  0.2400E+02  0.2400E+02
    -31.324  0.0000E+00  0.0000E+00  0.2400E+02  0.2400E+02
    -31.116  0.0000E+00  0.0000E+00  0.2400E+02  0.2400E+02
    -30.908  0.0000E+00  0.0000E+00  0.2400E+02  0.2400E+02
    -30.701  0.0000E+00  0.0000E+00  0.2400E+02  0.2400E+02
    -30.493  0.0000E+00  0.0000E+00  0.2400E+02  0.2400E+02
    -30.285  0.0000E+00  0.0000E+00  0.2400E+02  0.2400E+02
    -30.078  0.0000E+00  0.0000E+00  0.2400E+02  0.2400E+02
    -29.870  0.0000E+00  0.0000E+00  0.2400E+02  0.2400E+02
    -29.662  0.0000E+00  0.0000E+00  0.2400E+02  0.2400E+02
    -29.454  0.0000E+00  0.0000E+00  0.2400E+02  0.2400E+02
    -29.247  0.0000E+00  0.0000E+00  0.2400E+02  0.2400E+02
    -29.039  0.0000E+00  0.0000E+00  0.2400E+02  0.2400E+02
    -28.831  0.0000E+00  0.0000E+00  0.2400E+02  0.2400E+02
    -28.623  0.0000E+00  0.0000E+00  0.2400E+02  0.2400E+02
    -28.416  0.0000E+00  0.0000E+00  0.2400E+02  0.2400E+02
    -28.208  0.0000E+00  0.0000E+00  0.2400E+02  0.2400E+02
    -28.000  0.0000E+00  0.0000E+00  0.2400E+02  0.2400E+02
    -27.792  0.0000E+00  0.0000E+00  0.2400E+02  0.2400E+02
    -27.585  0.0000E+00  0.0000E+00  0.2400E+02  0.2400E+02
    -27.377  0.0000E+00  0.0000E+00  0.2400E+02  0.2400E+02
    -27.169  0.0000E+00  0.0000E+00  0.2400E+02  0.2400E+02
    -26.961  0.0000E+00  0.0000E+00  0.2400E+02  0.2400E+02
    -26.754  0.0000E+00  0.0000E+00  0.2400E+02  0.2400E+02
    -26.546  0.0000E+00  0.0000E+00  0.2400E+02  0.2400E+02
    -26.338  0.0000E+00  0.0000E+00  0.2400E+02  0.2400E+02
    -26.130  0.0000E+00  0.0000E+00  0.2400E+02  0.2400E+02
    -25.923  0.0000E+00  0.0000E+00  0.2400E+02  0.2400E+02
    -25.715  0.0000E+00  0.0000E+00  0.2400E+02  0.2400E+02
    -25.507  0.0000E+00  0.0000E+00  0.2400E+02  0.2400E+02
    -25.299  0.0000E+00  0.0000E+00  0.2400E+02  0.2400E+02
    -25.092  0.0000E+00  0.0000E+00  0.2400E+02  0.2400E+02
    -24.884  0.0000E+00  0.0000E+00  0.2400E+02  0.2400E+02
    -24.676  0.0000E+00  0.0000E+00  0.2400E+02  0.2400E+02
    -24.468  0.0000E+00  0.0000E+00  0.2400E+02  0.2400E+02
    -24.261  0.0000E+00  0.0000E+00  0.2400E+02  0.2400E+02
    -24.053  0.0000E+00  0.0000E+00  0.2400E+02  0.2400E+02
    -23.845  0.0000E+00  0.0000E+00  0.2400E+02  0.2400E+02
    -23.637  0.0000E+00  0.0000E+00  0.2400E+02  0.2400E+02
    -23.430  0.0000E+00  0.0000E+00  0.2400E+02  0.2400E+02
    -23.222  0.0000E+00  0.0000E+00  0.2400E+02  0.2400E+02
    -23.014  0.0000E+00  0.0000E+00  0.2400E+02  0.2400E+02
    -22.806  0.0000E+00  0.0000E+00  0.2400E+02  0.2400E+02
    -22.599  0.0000E+00  0.0000E+00  0.2400E+02  0.2400E+02
    -22.391  0.0000E+00  0.0000E+00  0.2400E+02  0.2400E+02
    -22.183  0.0000E+00  0.0000E+00  0.2400E+02  0.2400E+02
    -21.975  0.0000E+00  0.0000E+00  0.2400E+02  0.2400E+02
    -21.768  0.0000E+00  0.0000E+00  0.2400E+02  0.2400E+02
    -21.560  0.0000E+00  0.0000E+00  0.2400E+02  0.2400E+02
    -21.352  0.0000E+00  0.0000E+00  0.2400E+02  0.2400E+02
    -21.144  0.0000E+00  0.0000E+00  0.2400E+02  0.2400E+02
    -20.937  0.0000E+00  0.0000E+00  0.2400E+02  0.2400E+02
    -20.729  0.0000E+00  0.0000E+00  0.2400E+02  0.2400E+02
    -20.521  0.0000E+00  0.0000E+00  0.2400E+02  0.2400E+02
    -20.313  0.0000E+00  0.0000E+00  0.2400E+02  0.2400E+02
    -20.106  0.0000E+00  0.0000E+00  0.2400E+02  0.2400E+02
    -19.898  0.0000E+00  0.0000E+00  0.2400E+02  0.2400E+02
    -19.690  0.0000E+00  0.0000E+00  0.2400E+02  0.2400E+02
    -19.482  0.0000E+00  0.0000E+00  0.2400E+02  0.2400E+02
    -19.275  0.0000E+00  0.0000E+00  0.2400E+02  0.2400E+02
    -19.067  0.0000E+00  0.0000E+00  0.2400E+02  0.2400E+02
    -18.859  0.0000E+00  0.0000E+00  0.2400E+02  0.2400E+02
    -18.652  0.0000E+00  0.0000E+00  0.2400E+02  0.2400E+02
    -18.444  0.0000E+00  0.0000E+00  0.2400E+02  0.2400E+02
    -18.236  0.0000E+00  0.0000E+00  0.2400E+02  0.2400E+02
    -18.028  0.0000E+00  0.0000E+00  0.2400E+02  0.2400E+02
    -17.821  0.0000E+00  0.0000E+00  0.2400E+02  0.2400E+02
    -17.613  0.0000E+00  0.0000E+00  0.2400E+02  0.2400E+02
    -17.405  0.0000E+00  0.0000E+00  0.2400E+02  0.2400E+02
    -17.197  0.0000E+00  0.0000E+00  0.2400E+02  0.2400E+02
    -16.990  0.0000E+00  0.0000E+00  0.2400E+02  0.2400E+02
    -16.782  0.0000E+00  0.0000E+00  0.2400E+02  0.2400E+02
    -16.574  0.0000E+00  0.0000E+00  0.2400E+02  0.2400E+02
    -16.366  0.0000E+00  0.0000E+00  0.2400E+02  0.2400E+02
    -16.159  0.0000E+00  0.0000E+00  0.2400E+02  0.2400E+02
    -15.951  0.0000E+00  0.0000E+00  0.2400E+02  0.2400E+02
    -15.743  0.0000E+00  0.0000E+00  0.2400E+02  0.2400E+02
    -15.535  0.0000E+00  0.0000E+00  0.2400E+02  0.2400E+02
    -15.328  0.0000E+00  0.0000E+00  0.2400E+02  0.2400E+02
    -15.120  0.0000E+00  0.0000E+00  0.2400E+02  0.2400E+02
    -14.912  0.0000E+00  0.0000E+00  0.2400E+02  0.2400E+02
    -14.704  0.0000E+00  0.0000E+00  0.2400E+02  0.2400E+02
    -14.497  0.0000E+00  0.0000E+00  0.2400E+02  0.2400E+02
    -14.289  0.0000E+00  0.0000E+00  0.2400E+02  0.2400E+02
    -14.081  0.0000E+00  0.0000E+00  0.2400E+02  0.2400E+02
    -13.873  0.0000E+00  0.0000E+00  0.2400E+02  0.2400E+02
    -13.666  0.0000E+00  0.0000E+00  0.2400E+02  0.2400E+02
    -13.458  0.0000E+00  0.0000E+00  0.2400E+02  0.2400E+02
    -13.250  0.0000E+00  0.0000E+00  0.2400E+02  0.2400E+02
    -13.042  0.0000E+00  0.0000E+00  0.2400E+02  0.2400E+02
    -12.835  0.0000E+00  0.0000E+00  0.2400E+02  0.2400E+02
    -12.627  0.0000E+00  0.0000E+00  0.2400E+02  0.2400E+02
    -12.419  0.0000E+00  0.0000E+00  0.2400E+02  0.2400E+02
    -12.211  0.0000E+00  0.0000E+00  0.2400E+02  0.2400E+02
    -12.004  0.0000E+00  0.0000E+00  0.2400E+02  0.2400E+02
    -11.796  0.0000E+00  0.0000E+00  0.2400E+02  0.2400E+02
    -11.588  0.0000E+00  0.0000E+00  0.2400E+02  0.2400E+02
    -11.380  0.2326E+01  0.2326E+01  0.2415E+02  0.2415E+02
    -11.173  0.3571E+01  0.3571E+01  0.2462E+02  0.2462E+02
    -10.965  0.3626E+01  0.3626E+01  0.2508E+02  0.2508E+02
    -10.757  0.4597E+01  0.4597E+01  0.2581E+02  0.2581E+02
    -10.549  0.6119E+01  0.6119E+01  0.2675E+02  0.2675E+02
    -10.342  0.2490E+01  0.2490E+01  0.2729E+02  0.2729E+02
    -10.134  0.8724E+01  0.8724E+01  0.2819E+02  0.2819E+02
     -9.926  0.1204E+02  0.1204E+02  0.2969E+02  0.2969E+02
     -9.718  0.1532E+02  0.1532E+02  0.3172E+02  0.3172E+02
     -9.511  0.7277E+00  0.7277E+00  0.3200E+02  0.3200E+02
     -9.303  0.0000E+00  0.0000E+00  0.3200E+02  0.3200E+02
     -9.095  0.0000E+00  0.0000E+00  0.3200E+02  0.3200E+02
     -8.887  0.0000E+00  0.0000E+00  0.3200E+02  0.3200E+02
     -8.680  0.0000E+00  0.0000E+00  0.3200E+02  0.3200E+02
     -8.472  0.0000E+00  0.0000E+00  0.3200E+02  0.3200E+02
     -8.264  0.0000E+00  0.0000E+00  0.3200E+02  0.3200E+02
     -8.056  0.0000E+00  0.0000E+00  0.3200E+02  0.3200E+02
     -7.849  0.0000E+00  0.0000E+00  0.3200E+02  0.3200E+02
     -7.641  0.0000E+00  0.0000E+00  0.3200E+02  0.3200E+02
     -7.433  0.0000E+00  0.0000E+00  0.3200E+02  0.3200E+02
     -7.225  0.0000E+00  0.0000E+00  0.3200E+02  0.3200E+02
     -7.018  0.0000E+00  0.0000E+00  0.3200E+02  0.3200E+02
     -6.810  0.0000E+00  0.0000E+00  0.3200E+02  0.3200E+02
     -6.602  0.0000E+00  0.0000E+00  0.3200E+02  0.3200E+02
     -6.395  0.0000E+00  0.0000E+00  0.3200E+02  0.3200E+02
     -6.187  0.0000E+00  0.0000E+00  0.3200E+02  0.3200E+02
     -5.979  0.0000E+00  0.0000E+00  0.3200E+02  0.3200E+02
     -5.771  0.0000E+00  0.0000E+00  0.3200E+02  0.3200E+02
     -5.564  0.0000E+00  0.0000E+00  0.3200E+02  0.3200E+02
     -5.356  0.0000E+00  0.0000E+00  0.3200E+02  0.3200E+02
     -5.148  0.0000E+00  0.0000E+00  0.3200E+02  0.3200E+02
     -4.940  0.0000E+00  0.0000E+00  0.3200E+02  0.3200E+02
     -4.733  0.0000E+00  0.0000E+00  0.3200E+02  0.3200E+02
     -4.525  0.0000E+00  0.0000E+00  0.3200E+02  0.3200E+02
     -4.317  0.0000E+00  0.0000E+00  0.3200E+02  0.3200E+02
     -4.109  0.0000E+00  0.0000E+00  0.3200E+02  0.3200E+02
     -3.902  0.0000E+00  0.0000E+00  0.3200E+02  0.3200E+02
     -3.694  0.0000E+00  0.0000E+00  0.3200E+02  0.3200E+02
     -3.486  0.0000E+00  0.0000E+00  0.3200E+02  0.3200E+02
     -3.278  0.2293E+00  0.2293E+00  0.3200E+02  0.3200E+02
     -3.071  0.8811E+00  0.8811E+00  0.3210E+02  0.3210E+02
     -2.863  0.1293E+01  0.1293E+01  0.3230E+02  0.3230E+02
     -2.655  0.6104E+01  0.6104E+01  0.3301E+02  0.3301E+02
     -2.447  0.7067E+01  0.7067E+01  0.3416E+02  0.3416E+02
     -2.240  0.6253E+01  0.6253E+01  0.3540E+02  0.3540E+02
     -2.032  0.3865E+01  0.3865E+01  0.3622E+02  0.3622E+02
     -1.824  0.6352E+01  0.6352E+01  0.3705E+02  0.3705E+02
     -1.616  0.7963E+01  0.7963E+01  0.3817E+02  0.3817E+02
     -1.409  0.1141E+02  0.1141E+02  0.3963E+02  0.3963E+02
     -1.201  0.1150E+02  0.1150E+02  0.4142E+02  0.4142E+02
     -0.993  0.1435E+02  0.1435E+02  0.4315E+02  0.4315E+02
     -0.785  0.5447E+01  0.5447E+01  0.4443E+02  0.4443E+02
     -0.578  0.1467E+02  0.1467E+02  0.4603E+02  0.4603E+02
     -0.370  0.1824E+02  0.1824E+02  0.4887E+02  0.4887E+02
     -0.162  0.4202E+01  0.4202E+01  0.5006E+02  0.5006E+02
      0.046  0.1325E+02  0.1325E+02  0.5115E+02  0.5115E+02
      0.253  0.5822E+01  0.5822E+01  0.5225E+02  0.5225E+02
      0.461  0.1231E+02  0.1231E+02  0.5380E+02  0.5380E+02
      0.669  0.3086E+02  0.3086E+02  0.5702E+02  0.5702E+02
      0.877  0.7679E+01  0.7679E+01  0.5888E+02  0.5888E+02
      1.084  0.1105E+02  0.1105E+02  0.6050E+02  0.6050E+02
      1.292  0.7880E+01  0.7880E+01  0.6184E+02  0.6184E+02
      1.500  0.9407E+01  0.9407E+01  0.6320E+02  0.6320E+02
      1.708  0.1260E+02  0.1260E+02  0.6489E+02  0.6489E+02
      1.915  0.1173E+02  0.1173E+02  0.6699E+02  0.6699E+02
      2.123  0.1487E+02  0.1487E+02  0.6881E+02  0.6881E+02
      2.331  0.1830E+02  0.1830E+02  0.7126E+02  0.7126E+02
      2.539  0.1835E+02  0.1835E+02  0.7401E+02  0.7401E+02
      2.746  0.1417E+02  0.1417E+02  0.7663E+02  0.7663E+02
      2.954  0.1321E+02  0.1321E+02  0.7856E+02  0.7856E+02
      3.162  0.1041E+02  0.1041E+02  0.7993E+02  0.7993E+02
      3.370  0.1942E+02  0.1942E+02  0.8249E+02  0.8249E+02
      3.577  0.1270E+02  0.1270E+02  0.8444E+02  0.8444E+02
      3.785  0.6398E+01  0.6398E+01  0.8556E+02  0.8556E+02
      3.993  0.8320E+01  0.8320E+01  0.8661E+02  0.8661E+02
      4.201  0.1071E+02  0.1071E+02  0.8803E+02  0.8803E+02
      4.408  0.1671E+02  0.1671E+02  0.9072E+02  0.9072E+02
      4.616  0.3613E+01  0.3613E+01  0.9182E+02  0.9182E+02
      4.824  0.2527E+01  0.2524E+01  0.9229E+02  0.9229E+02
      5.031  0.5522E+01  0.5512E+01  0.9307E+02  0.9307E+02
      5.239  0.9854E+01  0.9504E+01  0.9474E+02  0.9473E+02
      5.447  0.3025E+01  0.3048E+01  0.9549E+02  0.9549E+02
      5.655  0.1295E+01  0.1206E+01  0.9592E+02  0.9590E+02
      5.862  0.7236E-01  0.1589E+00  0.9599E+02  0.9599E+02
      6.070  0.1122E-01  0.1247E-01  0.9600E+02  0.9600E+02
      6.278  0.7981E-03  0.1565E-03  0.9600E+02  0.9600E+02
      6.486  0.0000E+00  0.0000E+00  0.9600E+02  0.9600E+02
      6.693  0.0000E+00  0.0000E+00  0.9600E+02  0.9600E+02
      6.901  0.0000E+00  0.0000E+00  0.9600E+02  0.9600E+02
      7.109  0.0000E+00  0.0000E+00  0.9600E+02  0.9600E+02
      7.317  0.0000E+00  0.0000E+00  0.9600E+02  0.9600E+02
      7.524  0.0000E+00  0.0000E+00  0.9600E+02  0.9600E+02
      7.732  0.0000E+00  0.0000E+00  0.9600E+02  0.9600E+02
      7.940  0.0000E+00  0.0000E+00  0.9600E+02  0.9600E+02
      8.148  0.0000E+00  0.0000E+00  0.9600E+02  0.9600E+02
      8.355  0.0000E+00  0.0000E+00  0.9600E+02  0.9600E+02
      8.563  0.0000E+00  0.0000E+00  0.9600E+02  0.9600E+02
      8.771  0.0000E+00  0.0000E+00  0.9600E+02  0.9600E+02
      8.979  0.0000E+00  0.0000E+00  0.9600E+02  0.9600E+02
      9.186  0.0000E+00  0.0000E+00  0.9600E+02  0.9600E+02
      9.18640895    -53.13727014  301      3.16955258      1.00000000
    -53.137  0.0000E+00  0.0000E+00  0.0000E+00  0.0000E+00  0.0000E+00  0.0000E+00  0.0000E+00  0.0000E+00  0.0000E+00  0.0000E+00  0.0000E+00  0.0000E+00  0.0000E+00  0.0000E+00  0.0000E+00  0.0000E+00  0.0000E+00  0.0000E+00
    -52.930  0.0000E+00  0.0000E+00  0.0000E+00  0.0000E+00  0.0000E+00  0.0000E+00  0.0000E+00  0.0000E+00  0.0000E+00  0.0000E+00  0.0000E+00  0.0000E+00  0.0000E+00  0.0000E+00  0.0000E+00  0.0000E+00  0.0000E+00  0.0000E+00
    -52.722  0.0000E+00  0.0000E+00  0.0000E+00  0.0000E+00  0.0000E+00  0.0000E+00  0.0000E+00  0.0000E+00  0.0000E+00  0.0000E+00  0.0000E+00  0.0000E+00  0.0000E+00  0.0000E+00  0.0000E+00  0.0000E+00  0.0000E+00  0.0000E+00
    -52.514  0.0000E+00  0.0000E+00  0.0000E+00  0.0000E+00  0.0000E+00  0.0000E+00  0.0000E+00  0.0000E+00  0.0000E+00  0.0000E+00  0.0000E+00  0.0000E+00  0.0000E+00  0.0000E+00  0.0000E+00  0.0000E+00  0.0000E+00  0.0000E+00
    -52.306  0.0000E+00  0.0000E+00  0.0000E+00  0.0000E+00  0.0000E+00  0.0000E+00  0.0000E+00  0.0000E+00  0.0000E+00  0.0000E+00  0.0000E+00  0.0000E+00  0.0000E+00  0.0000E+00  0.0000E+00  0.0000E+00  0.0000E+00  0.0000E+00
    -52.099  0.0000E+00  0.0000E+00  0.0000E+00  0.0000E+00  0.0000E+00  0.0000E+00  0.0000E+00  0.0000E+00  0.0000E+00  0.0000E+00  0.0000E+00  0.0000E+00  0.0000E+00  0.0000E+00  0.0000E+00  0.0000E+00  0.0000E+00  0.0000E+00
    -51.891  0.0000E+00  0.0000E+00  0.0000E+00  0.0000E+00  0.0000E+00  0.0000E+00  0.0000E+00  0.0000E+00  0.0000E+00  0.0000E+00  0.0000E+00  0.0000E+00  0.0000E+00  0.0000E+00  0.0000E+00  0.0000E+00  0.0000E+00  0.0000E+00
    -51.683  0.0000E+00  0.0000E+00  0.0000E+00  0.0000E+00  0.0000E+00  0.0000E+00  0.0000E+00  0.0000E+00  0.0000E+00  0.0000E+00  0.0000E+00  0.0000E+00  0.0000E+00  0.0000E+00  0.0000E+00  0.0000E+00  0.0000E+00  0.0000E+00
    -51.475  0.0000E+00  0.0000E+00  0.0000E+00  0.0000E+00  0.0000E+00  0.0000E+00  0.0000E+00  0.0000E+00  0.0000E+00  0.0000E+00  0.0000E+00  0.0000E+00  0.0000E+00  0.0000E+00  0.0000E+00  0.0000E+00  0.0000E+00  0.0000E+00
    -51.268  0.0000E+00  0.0000E+00  0.0000E+00  0.0000E+00  0.0000E+00  0.0000E+00  0.0000E+00  0.0000E+00  0.0000E+00  0.0000E+00  0.0000E+00  0.0000E+00  0.0000E+00  0.0000E+00  0.0000E+00  0.0000E+00  0.0000E+00  0.0000E+00
    -51.060  0.0000E+00  0.0000E+00  0.0000E+00  0.0000E+00  0.0000E+00  0.0000E+00  0.0000E+00  0.0000E+00  0.0000E+00  0.0000E+00  0.0000E+00  0.0000E+00  0.0000E+00  0.0000E+00  0.0000E+00  0.0000E+00  0.0000E+00  0.0000E+00
    -50.852  0.0000E+00  0.0000E+00  0.0000E+00  0.0000E+00  0.0000E+00  0.0000E+00  0.0000E+00  0.0000E+00  0.0000E+00  0.0000E+00  0.0000E+00  0.0000E+00  0.0000E+00  0.0000E+00  0.0000E+00  0.0000E+00  0.0000E+00  0.0000E+00
    -50.644  0.0000E+00  0.0000E+00  0.0000E+00  0.0000E+00  0.0000E+00  0.0000E+00  0.0000E+00  0.0000E+00  0.0000E+00  0.0000E+00  0.0000E+00  0.0000E+00  0.0000E+00  0.0000E+00  0.0000E+00  0.0000E+00  0.0000E+00  0.0000E+00
    -50.437  0.0000E+00  0.0000E+00  0.0000E+00  0.0000E+00  0.0000E+00  0.0000E+00  0.0000E+00  0.0000E+00  0.0000E+00  0.0000E+00  0.0000E+00  0.0000E+00  0.0000E+00  0.0000E+00  0.0000E+00  0.0000E+00  0.0000E+00  0.0000E+00
    -50.229  0.2339E-03  0.2439E-03  0.4616E+00  0.2539E-01  0.2533E-02  0.1762E-01  0.4278E-01  0.3343E+00  0.2867E-05  0.4426E-05  0.6006E-07  0.2187E-06  0.1290E-03  0.9977E-04  0.1028E-05  0.6604E-04  0.2730E-03  0.2720E-03
    -50.021  0.1318E-03  0.1621E-03  0.2559E-01  0.5611E+00  0.3717E-01  0.1014E-02  0.6899E+00  0.1614E-01  0.3256E-05  0.2318E-05  0.1903E-06  0.4553E-07  0.5655E-04  0.9663E-04  0.5647E-04  0.1106E-05  0.3441E-03  0.3813E-03
    -49.813  0.2175E-03  0.1640E-03  0.2921E+01  0.3098E+01  0.3107E+01  0.1947E+01  0.2595E+01  0.5378E+01  0.1228E-04  0.5121E-04  0.1711E-05  0.7162E-04  0.5182E-04  0.2950E-04  0.1679E-04  0.8821E-05  0.9390E-04  0.1811E-03
    -49.606  0.1966E-03  0.1830E-03  0.4728E+01  0.2941E+01  0.4322E+01  0.4490E+01  0.2773E+01  0.5039E+01  0.7937E-04  0.1385E-03  0.2639E-04  0.1669E-04  0.6676E-04  0.5578E-04  0.4045E-04  0.3353E-04  0.2405E-03  0.7309E-04
    -49.398  0.4591E-04  0.3994E-04  0.1003E+01  0.1114E+01  0.3464E-01  0.6537E-01  0.7241E+00  0.1275E+01  0.2323E-04  0.1090E-04  0.1264E-05  0.3946E-06  0.1668E-04  0.1571E-04  0.6635E-05  0.3143E-05  0.6388E-04  0.5478E-04
    -49.190  0.0000E+00  0.0000E+00  0.0000E+00  0.0000E+00  0.0000E+00  0.0000E+00  0.0000E+00  0.0000E+00  0.0000E+00  0.0000E+00  0.0000E+00  0.0000E+00  0.0000E+00  0.0000E+00  0.0000E+00  0.0000E+00  0.0000E+00  0.0000E+00
    -48.982  0.0000E+00  0.0000E+00  0.0000E+00  0.0000E+00  0.0000E+00  0.0000E+00  0.0000E+00  0.0000E+00  0.0000E+00  0.0000E+00  0.0000E+00  0.0000E+00  0.0000E+00  0.0000E+00  0.0000E+00  0.0000E+00  0.0000E+00  0.0000E+00
    -48.775  0.0000E+00  0.0000E+00  0.0000E+00  0.0000E+00  0.0000E+00  0.0000E+00  0.0000E+00  0.0000E+00  0.0000E+00  0.0000E+00  0.0000E+00  0.0000E+00  0.0000E+00  0.0000E+00  0.0000E+00  0.0000E+00  0.0000E+00  0.0000E+00
    -48.567  0.0000E+00  0.0000E+00  0.0000E+00  0.0000E+00  0.0000E+00  0.0000E+00  0.0000E+00  0.0000E+00  0.0000E+00  0.0000E+00  0.0000E+00  0.0000E+00  0.0000E+00  0.0000E+00  0.0000E+00  0.0000E+00  0.0000E+00  0.0000E+00
    -48.359  0.0000E+00  0.0000E+00  0.0000E+00  0.0000E+00  0.0000E+00  0.0000E+00  0.0000E+00  0.0000E+00  0.0000E+00  0.0000E+00  0.0000E+00  0.0000E+00  0.0000E+00  0.0000E+00  0.0000E+00  0.0000E+00  0.0000E+00  0.0000E+00
    -48.151  0.0000E+00  0.0000E+00  0.0000E+00  0.0000E+00  0.0000E+00  0.0000E+00  0.0000E+00  0.0000E+00  0.0000E+00  0.0000E+00  0.0000E+00  0.0000E+00  0.0000E+00  0.0000E+00  0.0000E+00  0.0000E+00  0.0000E+00  0.0000E+00
    -47.944  0.0000E+00  0.0000E+00  0.0000E+00  0.0000E+00  0.0000E+00  0.0000E+00  0.0000E+00  0.0000E+00  0.0000E+00  0.0000E+00  0.0000E+00  0.0000E+00  0.0000E+00  0.0000E+00  0.0000E+00  0.0000E+00  0.0000E+00  0.0000E+00
    -47.736  0.0000E+00  0.0000E+00  0.0000E+00  0.0000E+00  0.0000E+00  0.0000E+00  0.0000E+00  0.0000E+00  0.0000E+00  0.0000E+00  0.0000E+00  0.0000E+00  0.0000E+00  0.0000E+00  0.0000E+00  0.0000E+00  0.0000E+00  0.0000E+00
    -47.528  0.0000E+00  0.0000E+00  0.0000E+00  0.0000E+00  0.0000E+00  0.0000E+00  0.0000E+00  0.0000E+00  0.0000E+00  0.0000E+00  0.0000E+00  0.0000E+00  0.0000E+00  0.0000E+00  0.0000E+00  0.0000E+00  0.0000E+00  0.0000E+00
    -47.320  0.0000E+00  0.0000E+00  0.0000E+00  0.0000E+00  0.0000E+00  0.0000E+00  0.0000E+00  0.0000E+00  0.0000E+00  0.0000E+00  0.0000E+00  0.0000E+00  0.0000E+00  0.0000E+00  0.0000E+00  0.0000E+00  0.0000E+00  0.0000E+00
    -47.113  0.0000E+00  0.0000E+00  0.0000E+00  0.0000E+00  0.0000E+00  0.0000E+00  0.0000E+00  0.0000E+00  0.0000E+00  0.0000E+00  0.0000E+00  0.0000E+00  0.0000E+00  0.0000E+00  0.0000E+00  0.0000E+00  0.0000E+00  0.0000E+00
    -46.905  0.0000E+00  0.0000E+00  0.0000E+00  0.0000E+00  0.0000E+00  0.0000E+00  0.0000E+00  0.0000E+00  0.0000E+00  0.0000E+00  0.0000E+00  0.0000E+00  0.0000E+00  0.0000E+00  0.0000E+00  0.0000E+00  0.0000E+00  0.0000E+00
    -46.697  0.0000E+00  0.0000E+00  0.0000E+00  0.0000E+00  0.0000E+00  0.0000E+00  0.0000E+00  0.0000E+00  0.0000E+00  0.0000E+00  0.0000E+00  0.0000E+00  0.0000E+00  0.0000E+00  0.0000E+00  0.0000E+00  0.0000E+00  0.0000E+00
    -46.489  0.0000E+00  0.0000E+00  0.0000E+00  0.0000E+00  0.0000E+00  0.0000E+00  0.0000E+00  0.0000E+00  0.0000E+00  0.0000E+00  0.0000E+00  0.0000E+00  0.0000E+00  0.0000E+00  0.0000E+00  0.0000E+00  0.0000E+00  0.0000E+00
    -46.282  0.0000E+00  0.0000E+00  0.0000E+00  0.0000E+00  0.0000E+00  0.0000E+00  0.0000E+00  0.0000E+00  0.0000E+00  0.0000E+00  0.0000E+00  0.0000E+00  0.0000E+00  0.0000E+00  0.0000E+00  0.0000E+00  0.0000E+00  0.0000E+00
    -46.074  0.0000E+00  0.0000E+00  0.0000E+00  0.0000E+00  0.0000E+00  0.0000E+00  0.0000E+00  0.0000E+00  0.0000E+00  0.0000E+00  0.0000E+00  0.0000E+00  0.0000E+00  0.0000E+00  0.0000E+00  0.0000E+00  0.0000E+00  0.0000E+00
    -45.866  0.0000E+00  0.0000E+00  0.0000E+00  0.0000E+00  0.0000E+00  0.0000E+00  0.0000E+00  0.0000E+00  0.0000E+00  0.0000E+00  0.0000E+00  0.0000E+00  0.0000E+00  0.0000E+00  0.0000E+00  0.0000E+00  0.0000E+00  0.0000E+00
    -45.658  0.0000E+00  0.0000E+00  0.0000E+00  0.0000E+00  0.0000E+00  0.0000E+00  0.0000E+00  0.0000E+00  0.0000E+00  0.0000E+00  0.0000E+00  0.0000E+00  0.0000E+00  0.0000E+00  0.0000E+00  0.0000E+00  0.0000E+00  0.0000E+00
    -45.451  0.0000E+00  0.0000E+00  0.0000E+00  0.0000E+00  0.0000E+00  0.0000E+00  0.0000E+00  0.0000E+00  0.0000E+00  0.0000E+00  0.0000E+00  0.0000E+00  0.0000E+00  0.0000E+00  0.0000E+00  0.0000E+00  0.0000E+00  0.0000E+00
    -45.243  0.0000E+00  0.0000E+00  0.0000E+00  0.0000E+00  0.0000E+00  0.0000E+00  0.0000E+00  0.0000E+00  0.0000E+00  0.0000E+00  0.0000E+00  0.0000E+00  0.0000E+00  0.0000E+00  0.0000E+00  0.0000E+00  0.0000E+00  0.0000E+00
    -45.035  0.0000E+00  0.0000E+00  0.0000E+00  0.0000E+00  0.0000E+00  0.0000E+00  0.0000E+00  0.0000E+00  0.0000E+00  0.0000E+00  0.0000E+00  0.0000E+00  0.0000E+00  0.0000E+00  0.0000E+00  0.0000E+00  0.0000E+00  0.0000E+00
    -44.827  0.0000E+00  0.0000E+00  0.0000E+00  0.0000E+00  0.0000E+00  0.0000E+00  0.0000E+00  0.0000E+00  0.0000E+00  0.0000E+00  0.0000E+00  0.0000E+00  0.0000E+00  0.0000E+00  0.0000E+00  0.0000E+00  0.0000E+00  0.0000E+00
    -44.620  0.0000E+00  0.0000E+00  0.0000E+00  0.0000E+00  0.0000E+00  0.0000E+00  0.0000E+00  0.0000E+00  0.0000E+00  0.0000E+00  0.0000E+00  0.0000E+00  0.0000E+00  0.0000E+00  0.0000E+00  0.0000E+00  0.0000E+00  0.0000E+00
    -44.412  0.0000E+00  0.0000E+00  0.0000E+00  0.0000E+00  0.0000E+00  0.0000E+00  0.0000E+00  0.0000E+00  0.0000E+00  0.0000E+00  0.0000E+00  0.0000E+00  0.0000E+00  0.0000E+00  0.0000E+00  0.0000E+00  0.0000E+00  0.0000E+00
    -44.204  0.0000E+00  0.0000E+00  0.0000E+00  0.0000E+00  0.0000E+00  0.0000E+00  0.0000E+00  0.0000E+00  0.0000E+00  0.0000E+00  0.0000E+00  0.0000E+00  0.0000E+00  0.0000E+00  0.0000E+00  0.0000E+00  0.0000E+00  0.0000E+00
    -43.996  0.0000E+00  0.0000E+00  0.0000E+00  0.0000E+00  0.0000E+00  0.0000E+00  0.0000E+00  0.0000E+00  0.0000E+00  0.0000E+00  0.0000E+00  0.0000E+00  0.0000E+00  0.0000E+00  0.0000E+00  0.0000E+00  0.0000E+00  0.0000E+00
    -43.789  0.0000E+00  0.0000E+00  0.0000E+00  0.0000E+00  0.0000E+00  0.0000E+00  0.0000E+00  0.0000E+00  0.0000E+00  0.0000E+00  0.0000E+00  0.0000E+00  0.0000E+00  0.0000E+00  0.0000E+00  0.0000E+00  0.0000E+00  0.0000E+00
    -43.581  0.0000E+00  0.0000E+00  0.0000E+00  0.0000E+00  0.0000E+00  0.0000E+00  0.0000E+00  0.0000E+00  0.0000E+00  0.0000E+00  0.0000E+00  0.0000E+00  0.0000E+00  0.0000E+00  0.0000E+00  0.0000E+00  0.0000E+00  0.0000E+00
    -43.373  0.0000E+00  0.0000E+00  0.0000E+00  0.0000E+00  0.0000E+00  0.0000E+00  0.0000E+00  0.0000E+00  0.0000E+00  0.0000E+00  0.0000E+00  0.0000E+00  0.0000E+00  0.0000E+00  0.0000E+00  0.0000E+00  0.0000E+00  0.0000E+00
    -43.165  0.0000E+00  0.0000E+00  0.0000E+00  0.0000E+00  0.0000E+00  0.0000E+00  0.0000E+00  0.0000E+00  0.0000E+00  0.0000E+00  0.0000E+00  0.0000E+00  0.0000E+00  0.0000E+00  0.0000E+00  0.0000E+00  0.0000E+00  0.0000E+00
    -42.958  0.0000E+00  0.0000E+00  0.0000E+00  0.0000E+00  0.0000E+00  0.0000E+00  0.0000E+00  0.0000E+00  0.0000E+00  0.0000E+00  0.0000E+00  0.0000E+00  0.0000E+00  0.0000E+00  0.0000E+00  0.0000E+00  0.0000E+00  0.0000E+00
    -42.750  0.0000E+00  0.0000E+00  0.0000E+00  0.0000E+00  0.0000E+00  0.0000E+00  0.0000E+00  0.0000E+00  0.0000E+00  0.0000E+00  0.0000E+00  0.0000E+00  0.0000E+00  0.0000E+00  0.0000E+00  0.0000E+00  0.0000E+00  0.0000E+00