  16  16   1   0
  0.2037500E+02  0.7070398E-09  0.6799292E-09  0.7272674E-09  0.5000000E-15
  1.000000000000000E-004
  CAR 
 unknown system                          
      8.58175476    -53.06714832  301      3.16557279      1.00000000
    -53.067  0.0000E+00  0.0000E+00  0.0000E+00  0.0000E+00
    -52.862  0.0000E+00  0.0000E+00  0.0000E+00  0.0000E+00
    -52.656  0.0000E+00  0.0000E+00  0.0000E+00  0.0000E+00
    -52.451  0.0000E+00  0.0000E+00  0.0000E+00  0.0000E+00
    -52.245  0.0000E+00  0.0000E+00  0.0000E+00  0.0000E+00
    -52.040  0.0000E+00  0.0000E+00  0.0000E+00  0.0000E+00
    -51.834  0.0000E+00  0.0000E+00  0.0000E+00  0.0000E+00
    -51.629  0.0000E+00  0.0000E+00  0.0000E+00  0.0000E+00
    -51.423  0.0000E+00  0.0000E+00  0.0000E+00  0.0000E+00
    -51.218  0.0000E+00  0.0000E+00  0.0000E+00  0.0000E+00
    -51.012  0.0000E+00  0.0000E+00  0.0000E+00  0.0000E+00
    -50.807  0.0000E+00  0.0000E+00  0.0000E+00  0.0000E+00
    -50.601  0.0000E+00  0.0000E+00  0.0000E+00  0.0000E+00
    -50.396  0.2044E-05  0.2044E-05  0.4201E-06  0.4201E-06
    -50.190  0.1642E+00  0.1642E+00  0.3375E-01  0.3375E-01
    -49.985  0.3455E-01  0.3455E-01  0.4085E-01  0.4085E-01
    -49.779  0.3292E+00  0.3292E+00  0.1085E+00  0.1085E+00
    -49.574  0.5770E+00  0.5770E+00  0.2271E+00  0.2271E+00
    -49.368  0.7469E-01  0.7469E-01  0.2424E+00  0.2424E+00
    -49.163  0.6677E-07  0.6677E-07  0.2424E+00  0.2424E+00
    -48.957  0.0000E+00  0.0000E+00  0.2424E+00  0.2424E+00
    -48.752  0.0000E+00  0.0000E+00  0.2424E+00  0.2424E+00
    -48.546  0.0000E+00  0.0000E+00  0.2424E+00  0.2424E+00
    -48.341  0.0000E+00  0.0000E+00  0.2424E+00  0.2424E+00
    -48.135  0.0000E+00  0.0000E+00  0.2424E+00  0.2424E+00
    -47.930  0.0000E+00  0.0000E+00  0.2424E+00  0.2424E+00
    -47.724  0.0000E+00  0.0000E+00  0.2424E+00  0.2424E+00
    -47.519  0.0000E+00  0.0000E+00  0.2424E+00  0.2424E+00
    -47.313  0.0000E+00  0.0000E+00  0.2424E+00  0.2424E+00
    -47.108  0.0000E+00  0.0000E+00  0.2424E+00  0.2424E+00
    -46.902  0.0000E+00  0.0000E+00  0.2424E+00  0.2424E+00
    -46.697  0.0000E+00  0.0000E+00  0.2424E+00  0.2424E+00
    -46.491  0.0000E+00  0.0000E+00  0.2424E+00  0.2424E+00
    -46.286  0.0000E+00  0.0000E+00  0.2424E+00  0.2424E+00
    -46.080  0.0000E+00  0.0000E+00  0.2424E+00  0.2424E+00
    -45.875  0.0000E+00  0.0000E+00  0.2424E+00  0.2424E+00
    -45.669  0.0000E+00  0.0000E+00  0.2424E+00  0.2424E+00
    -45.464  0.0000E+00  0.0000E+00  0.2424E+00  0.2424E+00
    -45.258  0.0000E+00  0.0000E+00  0.2424E+00  0.2424E+00
    -45.053  0.0000E+00  0.0000E+00  0.2424E+00  0.2424E+00
    -44.847  0.0000E+00  0.0000E+00  0.2424E+00  0.2424E+00
    -44.642  0.0000E+00  0.0000E+00  0.2424E+00  0.2424E+00
    -44.436  0.0000E+00  0.0000E+00  0.2424E+00  0.2424E+00
    -44.231  0.0000E+00  0.0000E+00  0.2424E+00  0.2424E+00
    -44.025  0.0000E+00  0.0000E+00  0.2424E+00  0.2424E+00
    -43.820  0.0000E+00  0.0000E+00  0.2424E+00  0.2424E+00
    -43.614  0.0000E+00  0.0000E+00  0.2424E+00  0.2424E+00
    -43.409  0.0000E+00  0.0000E+00  0.2424E+00  0.2424E+00
    -43.203  0.0000E+00  0.0000E+00  0.2424E+00  0.2424E+00
    -42.998  0.0000E+00  0.0000E+00  0.2424E+00  0.2424E+00
    -42.792  0.0000E+00  0.0000E+00  0.2424E+00  0.2424E+00
    -42.587  0.0000E+00  0.0000E+00  0.2424E+00  0.2424E+00
    -42.381  0.0000E+00  0.0000E+00  0.2424E+00  0.2424E+00
    -42.176  0.0000E+00  0.0000E+00  0.2424E+00  0.2424E+00
    -41.970  0.0000E+00  0.0000E+00  0.2424E+00  0.2424E+00
    -41.765  0.0000E+00  0.0000E+00  0.2424E+00  0.2424E+00
    -41.559  0.0000E+00  0.0000E+00  0.2424E+00  0.2424E+00
    -41.354  0.0000E+00  0.0000E+00  0.2424E+00  0.2424E+00
    -41.148  0.0000E+00  0.0000E+00  0.2424E+00  0.2424E+00
    -40.943  0.0000E+00  0.0000E+00  0.2424E+00  0.2424E+00
    -40.737  0.0000E+00  0.0000E+00  0.2424E+00  0.2424E+00
    -40.532  0.0000E+00  0.0000E+00  0.2424E+00  0.2424E+00
    -40.326  0.0000E+00  0.0000E+00  0.2424E+00  0.2424E+00
    -40.121  0.0000E+00  0.0000E+00  0.2424E+00  0.2424E+00
    -39.915  0.0000E+00  0.0000E+00  0.2424E+00  0.2424E+00
    -39.710  0.0000E+00  0.0000E+00  0.2424E+00  0.2424E+00
    -39.504  0.0000E+00  0.0000E+00  0.2424E+00  0.2424E+00
    -39.299  0.0000E+00  0.0000E+00  0.2424E+00  0.2424E+00
    -39.093  0.0000E+00  0.0000E+00  0.2424E+00  0.2424E+00
    -38.888  0.0000E+00  0.0000E+00  0.2424E+00  0.2424E+00
    -38.682  0.0000E+00  0.0000E+00  0.2424E+00  0.2424E+00
    -38.477  0.0000E+00  0.0000E+00  0.2424E+00  0.2424E+00
    -38.271  0.0000E+00  0.0000E+00  0.2424E+00  0.2424E+00
    -38.066  0.0000E+00  0.0000E+00  0.2424E+00  0.2424E+00
    -37.860  0.0000E+00  0.0000E+00  0.2424E+00  0.2424E+00
    -37.655  0.0000E+00  0.0000E+00  0.2424E+00  0.2424E+00
    -37.449  0.0000E+00  0.0000E+00  0.2424E+00  0.2424E+00
    -37.244  0.0000E+00  0.0000E+00  0.2424E+00  0.2424E+00
    -37.038  0.0000E+00  0.0000E+00  0.2424E+00  0.2424E+00
    -36.833  0.0000E+00  0.0000E+00  0.2424E+00  0.2424E+00
    -36.627  0.0000E+00  0.0000E+00  0.2424E+00  0.2424E+00
    -36.422  0.0000E+00  0.0000E+00  0.2424E+00  0.2424E+00
    -36.216  0.0000E+00  0.0000E+00  0.2424E+00  0.2424E+00
    -36.011  0.0000E+00  0.0000E+00  0.2424E+00  0.2424E+00
    -35.805  0.0000E+00  0.0000E+00  0.2424E+00  0.2424E+00
    -35.600  0.0000E+00  0.0000E+00  0.2424E+00  0.2424E+00
    -35.394  0.0000E+00  0.0000E+00  0.2424E+00  0.2424E+00
    -35.189  0.0000E+00  0.0000E+00  0.2424E+00  0.2424E+00
    -34.983  0.0000E+00  0.0000E+00  0.2424E+00  0.2424E+00
    -34.778  0.0000E+00  0.0000E+00  0.2424E+00  0.2424E+00
    -34.572  0.0000E+00  0.0000E+00  0.2424E+00  0.2424E+00
    -34.367  0.0000E+00  0.0000E+00  0.2424E+00  0.2424E+00
    -34.161  0.0000E+00  0.0000E+00  0.2424E+00  0.2424E+00
    -33.956  0.0000E+00  0.0000E+00  0.2424E+00  0.2424E+00
    -33.750  0.0000E+00  0.0000E+00  0.2424E+00  0.2424E+00
    -33.545  0.0000E+00  0.0000E+00  0.2424E+00  0.2424E+00
    -33.339  0.0000E+00  0.0000E+00  0.2424E+00  0.2424E+00
    -33.134  0.0000E+00  0.0000E+00  0.2424E+00  0.2424E+00
    -32.929  0.0000E+00  0.0000E+00  0.2424E+00  0.2424E+00
    -32.723  0.0000E+00  0.0000E+00  0.2424E+00  0.2424E+00
    -32.518  0.0000E+00  0.0000E+00  0.2424E+00  0.2424E+00
    -32.312  0.0000E+00  0.0000E+00  0.2424E+00  0.2424E+00
    -32.107  0.0000E+00  0.0000E+00  0.2424E+00  0.2424E+00
    -31.901  0.0000E+00  0.0000E+00  0.2424E+00  0.2424E+00
    -31.696  0.0000E+00  0.0000E+00  0.2424E+00  0.2424E+00
    -31.490  0.0000E+00  0.0000E+00  0.2424E+00  0.2424E+00
    -31.285  0.0000E+00  0.0000E+00  0.2424E+00  0.2424E+00
    -31.079  0.0000E+00  0.0000E+00  0.2424E+00  0.2424E+00
    -30.874  0.0000E+00  0.0000E+00  0.2424E+00  0.2424E+00
    -30.668  0.0000E+00  0.0000E+00  0.2424E+00  0.2424E+00
    -30.463  0.0000E+00  0.0000E+00  0.2424E+00  0.2424E+00
    -30.257  0.0000E+00  0.0000E+00  0.2424E+00  0.2424E+00
    -30.052  0.0000E+00  0.0000E+00  0.2424E+00  0.2424E+00
    -29.846  0.0000E+00  0.0000E+00  0.2424E+00  0.2424E+00
    -29.641  0.0000E+00  0.0000E+00  0.2424E+00  0.2424E+00
    -29.435  0.0000E+00  0.0000E+00  0.2424E+00  0.2424E+00
    -29.230  0.0000E+00  0.0000E+00  0.2424E+00  0.2424E+00
    -29.024  0.0000E+00  0.0000E+00  0.2424E+00  0.2424E+00
    -28.819  0.0000E+00  0.0000E+00  0.2424E+00  0.2424E+00
    -28.613  0.0000E+00  0.0000E+00  0.2424E+00  0.2424E+00
    -28.408  0.0000E+00  0.0000E+00  0.2424E+00  0.2424E+00
    -28.202  0.0000E+00  0.0000E+00  0.2424E+00  0.2424E+00
    -27.997  0.0000E+00  0.0000E+00  0.2424E+00  0.2424E+00
    -27.791  0.0000E+00  0.0000E+00  0.2424E+00  0.2424E+00
    -27.586  0.0000E+00  0.0000E+00  0.2424E+00  0.2424E+00
    -27.380  0.0000E+00  0.0000E+00  0.2424E+00  0.2424E+00
    -27.175  0.0000E+00  0.0000E+00  0.2424E+00  0.2424E+00
    -26.969  0.0000E+00  0.0000E+00  0.2424E+00  0.2424E+00
    -26.764  0.0000E+00  0.0000E+00  0.2424E+00  0.2424E+00
    -26.558  0.0000E+00  0.0000E+00  0.2424E+00  0.2424E+00
    -26.353  0.0000E+00  0.0000E+00  0.2424E+00  0.2424E+00
    -26.147  0.0000E+00  0.0000E+00  0.2424E+00  0.2424E+00
    -25.942  0.0000E+00  0.0000E+00  0.2424E+00  0.2424E+00
    -25.736  0.0000E+00  0.0000E+00  0.2424E+00  0.2424E+00
    -25.531  0.0000E+00  0.0000E+00  0.2424E+00  0.2424E+00
    -25.325  0.0000E+00  0.0000E+00  0.2424E+00  0.2424E+00
    -25.120  0.0000E+00  0.0000E+00  0.2424E+00  0.2424E+00
    -24.914  0.0000E+00  0.0000E+00  0.2424E+00  0.2424E+00
    -24.709  0.0000E+00  0.0000E+00  0.2424E+00  0.2424E+00
    -24.503  0.0000E+00  0.0000E+00  0.2424E+00  0.2424E+00
    -24.298  0.0000E+00  0.0000E+00  0.2424E+00  0.2424E+00
    -24.092  0.0000E+00  0.0000E+00  0.2424E+00  0.2424E+00
    -23.887  0.0000E+00  0.0000E+00  0.2424E+00  0.2424E+00
    -23.681  0.0000E+00  0.0000E+00  0.2424E+00  0.2424E+00
    -23.476  0.0000E+00  0.0000E+00  0.2424E+00  0.2424E+00
    -23.270  0.0000E+00  0.0000E+00  0.2424E+00  0.2424E+00
    -23.065  0.0000E+00  0.0000E+00  0.2424E+00  0.2424E+00
    -22.859  0.0000E+00  0.0000E+00  0.2424E+00  0.2424E+00
    -22.654  0.0000E+00  0.0000E+00  0.2424E+00  0.2424E+00
    -22.448  0.0000E+00  0.0000E+00  0.2424E+00  0.2424E+00
    -22.243  0.0000E+00  0.0000E+00  0.2424E+00  0.2424E+00
    -22.037  0.0000E+00  0.0000E+00  0.2424E+00  0.2424E+00
    -21.832  0.0000E+00  0.0000E+00  0.2424E+00  0.2424E+00
    -21.626  0.0000E+00  0.0000E+00  0.2424E+00  0.2424E+00
    -21.421  0.0000E+00  0.0000E+00  0.2424E+00  0.2424E+00
    -21.215  0.0000E+00  0.0000E+00  0.2424E+00  0.2424E+00
    -21.010  0.0000E+00  0.0000E+00  0.2424E+00  0.2424E+00
    -20.804  0.0000E+00  0.0000E+00  0.2424E+00  0.2424E+00
    -20.599  0.0000E+00  0.0000E+00  0.2424E+00  0.2424E+00
    -20.393  0.0000E+00  0.0000E+00  0.2424E+00  0.2424E+00
    -20.188  0.0000E+00  0.0000E+00  0.2424E+00  0.2424E+00
    -19.982  0.0000E+00  0.0000E+00  0.2424E+00  0.2424E+00
    -19.777  0.0000E+00  0.0000E+00  0.2424E+00  0.2424E+00
    -19.571  0.0000E+00  0.0000E+00  0.2424E+00  0.2424E+00
    -19.366  0.0000E+00  0.0000E+00  0.2424E+00  0.2424E+00
    -19.160  0.0000E+00  0.0000E+00  0.2424E+00  0.2424E+00
    -18.955  0.0000E+00  0.0000E+00  0.2424E+00  0.2424E+00
    -18.749  0.0000E+00  0.0000E+00  0.2424E+00  0.2424E+00
    -18.544  0.0000E+00  0.0000E+00  0.2424E+00  0.2424E+00
    -18.338  0.0000E+00  0.0000E+00  0.2424E+00  0.2424E+00
    -18.133  0.0000E+00  0.0000E+00  0.2424E+00  0.2424E+00
    -17.927  0.0000E+00  0.0000E+00  0.2424E+00  0.2424E+00
    -17.722  0.0000E+00  0.0000E+00  0.2424E+00  0.2424E+00
    -17.516  0.0000E+00  0.0000E+00  0.2424E+00  0.2424E+00
    -17.311  0.0000E+00  0.0000E+00  0.2424E+00  0.2424E+00
    -17.105  0.0000E+00  0.0000E+00  0.2424E+00  0.2424E+00
    -16.900  0.0000E+00  0.0000E+00  0.2424E+00  0.2424E+00
    -16.694  0.0000E+00  0.0000E+00  0.2424E+00  0.2424E+00
    -16.489  0.0000E+00  0.0000E+00  0.2424E+00  0.2424E+00
    -16.283  0.0000E+00  0.0000E+00  0.2424E+00  0.2424E+00
    -16.078  0.0000E+00  0.0000E+00  0.2424E+00  0.2424E+00
    -15.872  0.0000E+00  0.0000E+00  0.2424E+00  0.2424E+00
    -15.667  0.0000E+00  0.0000E+00  0.2424E+00  0.2424E+00
    -15.461  0.0000E+00  0.0000E+00  0.2424E+00  0.2424E+00
    -15.256  0.0000E+00  0.0000E+00  0.2424E+00  0.2424E+00
    -15.050  0.0000E+00  0.0000E+00  0.2424E+00  0.2424E+00
    -14.845  0.0000E+00  0.0000E+00  0.2424E+00  0.2424E+00
    -14.639  0.0000E+00  0.0000E+00  0.2424E+00  0.2424E+00
    -14.434  0.0000E+00  0.0000E+00  0.2424E+00  0.2424E+00
    -14.228  0.0000E+00  0.0000E+00  0.2424E+00  0.2424E+00
    -14.023  0.0000E+00  0.0000E+00  0.2424E+00  0.2424E+00
    -13.817  0.0000E+00  0.0000E+00  0.2424E+00  0.2424E+00
    -13.612  0.0000E+00  0.0000E+00  0.2424E+00  0.2424E+00
    -13.406  0.0000E+00  0.0000E+00  0.2424E+00  0.2424E+00
    -13.201  0.0000E+00  0.0000E+00  0.2424E+00  0.2424E+00
    -12.995  0.0000E+00  0.0000E+00  0.2424E+00  0.2424E+00
    -12.790  0.0000E+00  0.0000E+00  0.2424E+00  0.2424E+00
    -12.584  0.0000E+00  0.0000E+00  0.2424E+00  0.2424E+00
    -12.379  0.0000E+00  0.0000E+00  0.2424E+00  0.2424E+00
    -12.173  0.0000E+00  0.0000E+00  0.2424E+00  0.2424E+00
    -11.968  0.0000E+00  0.0000E+00  0.2424E+00  0.2424E+00
    -11.762  0.1992E-14  0.1992E-14  0.2424E+00  0.2424E+00
    -11.557  0.9607E-04  0.9607E-04  0.2424E+00  0.2424E+00
    -11.351  0.1250E-01  0.1250E-01  0.2450E+00  0.2450E+00
    -11.146  0.2196E-01  0.2196E-01  0.2495E+00  0.2495E+00
    -10.940  0.2517E-01  0.2517E-01  0.2547E+00  0.2547E+00
    -10.735  0.3520E-01  0.3520E-01  0.2619E+00  0.2619E+00
    -10.529  0.4415E-01  0.4415E-01  0.2710E+00  0.2710E+00
    -10.324  0.2735E-01  0.2735E-01  0.2766E+00  0.2766E+00
    -10.118  0.4588E-01  0.4588E-01  0.2861E+00  0.2861E+00
     -9.913  0.7475E-01  0.7475E-01  0.3014E+00  0.3014E+00
     -9.707  0.9500E-01  0.9500E-01  0.3209E+00  0.3209E+00
     -9.502  0.1118E-01  0.1118E-01  0.3232E+00  0.3232E+00
     -9.296  0.4418E-09  0.4418E-09  0.3232E+00  0.3232E+00
     -9.091  0.0000E+00  0.0000E+00  0.3232E+00  0.3232E+00
     -8.885  0.0000E+00  0.0000E+00  0.3232E+00  0.3232E+00
     -8.680  0.0000E+00  0.0000E+00  0.3232E+00  0.3232E+00
     -8.474  0.0000E+00  0.0000E+00  0.3232E+00  0.3232E+00
     -8.269  0.0000E+00  0.0000E+00  0.3232E+00  0.3232E+00
     -8.063  0.0000E+00  0.0000E+00  0.3232E+00  0.3232E+00
     -7.858  0.0000E+00  0.0000E+00  0.3232E+00  0.3232E+00
     -7.652  0.0000E+00  0.0000E+00  0.3232E+00  0.3232E+00
     -7.447  0.0000E+00  0.0000E+00  0.3232E+00  0.3232E+00
     -7.241  0.0000E+00  0.0000E+00  0.3232E+00  0.3232E+00
     -7.036  0.0000E+00  0.0000E+00  0.3232E+00  0.3232E+00
     -6.830  0.0000E+00  0.0000E+00  0.3232E+00  0.3232E+00
     -6.625  0.0000E+00  0.0000E+00  0.3232E+00  0.3232E+00
     -6.419  0.0000E+00  0.0000E+00  0.3232E+00  0.3232E+00
     -6.214  0.0000E+00  0.0000E+00  0.3232E+00  0.3232E+00
     -6.008  0.0000E+00  0.0000E+00  0.3232E+00  0.3232E+00
     -5.803  0.0000E+00  0.0000E+00  0.3232E+00  0.3232E+00
     -5.597  0.0000E+00  0.0000E+00  0.3232E+00  0.3232E+00
     -5.392  0.0000E+00  0.0000E+00  0.3232E+00  0.3232E+00
     -5.187  0.0000E+00  0.0000E+00  0.3232E+00  0.3232E+00
     -4.981  0.0000E+00  0.0000E+00  0.3232E+00  0.3232E+00
     -4.776  0.0000E+00  0.0000E+00  0.3232E+00  0.3232E+00
     -4.570  0.0000E+00  0.0000E+00  0.3232E+00  0.3232E+00
     -4.365  0.0000E+00  0.0000E+00  0.3232E+00  0.3232E+00
     -4.159  0.0000E+00  0.0000E+00  0.3232E+00  0.3232E+00
     -3.954  0.0000E+00  0.0000E+00  0.3232E+00  0.3232E+00
     -3.748  0.0000E+00  0.0000E+00  0.3232E+00  0.3232E+00
     -3.543  0.3528E-12  0.3528E-12  0.3232E+00  0.3232E+00
     -3.337  0.1069E-03  0.1069E-03  0.3233E+00  0.3233E+00
     -3.132  0.3909E-02  0.3909E-02  0.3241E+00  0.3241E+00
     -2.926  0.8082E-02  0.8082E-02  0.3257E+00  0.3257E+00
     -2.721  0.2663E-01  0.2663E-01  0.3312E+00  0.3312E+00
     -2.515  0.5125E-01  0.5125E-01  0.3417E+00  0.3417E+00
     -2.310  0.5662E-01  0.5662E-01  0.3534E+00  0.3534E+00
     -2.104  0.5063E-01  0.5063E-01  0.3638E+00  0.3638E+00
     -1.899  0.4079E-01  0.4079E-01  0.3721E+00  0.3721E+00
     -1.693  0.4090E-01  0.4090E-01  0.3806E+00  0.3806E+00
     -1.488  0.6945E-01  0.6945E-01  0.3948E+00  0.3948E+00
     -1.282  0.8771E-01  0.8771E-01  0.4128E+00  0.4128E+00
     -1.077  0.8065E-01  0.8065E-01  0.4294E+00  0.4294E+00
     -0.871  0.7653E-01  0.7653E-01  0.4451E+00  0.4451E+00
     -0.666  0.5446E-01  0.5446E-01  0.4563E+00  0.4563E+00
     -0.460  0.1319E+00  0.1319E+00  0.4835E+00  0.4835E+00
     -0.255  0.9306E-01  0.9306E-01  0.5026E+00  0.5026E+00
     -0.049  0.3194E-01  0.3194E-01  0.5091E+00  0.5091E+00
      0.156  0.7676E-01  0.7676E-01  0.5249E+00  0.5249E+00
      0.362  0.5016E-01  0.5016E-01  0.5352E+00  0.5352E+00
      0.567  0.1116E+00  0.1116E+00  0.5582E+00  0.5582E+00
      0.773  0.1492E+00  0.1492E+00  0.5888E+00  0.5888E+00
      0.978  0.6188E-01  0.6188E-01  0.6015E+00  0.6015E+00
      1.184  0.8159E-01  0.8159E-01  0.6183E+00  0.6183E+00
      1.389  0.6687E-01  0.6687E-01  0.6320E+00  0.6320E+00
      1.595  0.6778E-01  0.6778E-01  0.6460E+00  0.6460E+00
      1.800  0.9162E-01  0.9162E-01  0.6648E+00  0.6648E+00
      2.006  0.9287E-01  0.9287E-01  0.6839E+00  0.6839E+00
      2.211  0.1077E+00  0.1077E+00  0.7060E+00  0.7060E+00
      2.417  0.1209E+00  0.1209E+00  0.7309E+00  0.7309E+00
      2.622  0.1336E+00  0.1336E+00  0.7583E+00  0.7583E+00
      2.828  0.1191E+00  0.1191E+00  0.7828E+00  0.7828E+00
      3.033  0.8043E-01  0.8043E-01  0.7993E+00  0.7993E+00
      3.239  0.9373E-01  0.9373E-01  0.8186E+00  0.8186E+00
      3.444  0.1211E+00  0.1211E+00  0.8435E+00  0.8435E+00
      3.650  0.6805E-01  0.6805E-01  0.8575E+00  0.8575E+00
      3.855  0.5508E-01  0.5508E-01  0.8688E+00  0.8688E+00
      4.061  0.4867E-01  0.4867E-01  0.8788E+00  0.8788E+00
      4.266  0.9283E-01  0.9283E-01  0.8979E+00  0.8979E+00
      4.472  0.1142E+00  0.1142E+00  0.9213E+00  0.9213E+00
      4.677  0.3958E-01  0.3958E-01  0.9295E+00  0.9295E+00
      4.883  0.1857E-01  0.1857E-01  0.9333E+00  0.9333E+00
      5.088  0.4930E-01  0.4930E-01  0.9434E+00  0.9434E+00
      5.294  0.7903E-01  0.7903E-01  0.9597E+00  0.9597E+00
      5.499  0.3113E-01  0.3112E-01  0.9660E+00  0.9660E+00
      5.705  0.1659E-01  0.1659E-01  0.9695E+00  0.9695E+00
      5.910  0.1176E-02  0.1177E-02  0.9697E+00  0.9697E+00
      6.116  0.2303E-07  0.2500E-07  0.9697E+00  0.9697E+00
      6.321  0.0000E+00  0.0000E+00  0.9697E+00  0.9697E+00
      6.527  0.0000E+00  0.0000E+00  0.9697E+00  0.9697E+00
      6.732  0.0000E+00  0.0000E+00  0.9697E+00  0.9697E+00
      6.938  0.0000E+00  0.0000E+00  0.9697E+00  0.9697E+00
      7.143  0.0000E+00  0.0000E+00  0.9697E+00  0.9697E+00
      7.349  0.0000E+00  0.0000E+00  0.9697E+00  0.9697E+00
      7.554  0.0000E+00  0.0000E+00  0.9697E+00  0.9697E+00
      7.760  0.0000E+00  0.0000E+00  0.9697E+00  0.9697E+00
      7.965  0.0000E+00  0.0000E+00  0.9697E+00  0.9697E+00
      8.171  0.0000E+00  0.0000E+00  0.9697E+00  0.9697E+00
      8.376  0.0000E+00  0.0000E+00  0.9697E+00  0.9697E+00
      8.582  0.0000E+00  0.0000E+00  0.9697E+00  0.9697E+00
      8.58175476    -53.06714832  301      3.16557279      1.00000000
    -53.067  0.0000E+00  0.0000E+00  0.0000E+00  0.0000E+00  0.0000E+00  0.0000E+00  0.0000E+00  0.0000E+00  0.0000E+00  0.0000E+00  0.0000E+00  0.0000E+00  0.0000E+00  0.0000E+00  0.0000E+00  0.0000E+00  0.0000E+00  0.0000E+00
    -52.862  0.0000E+00  0.0000E+00  0.0000E+00  0.0000E+00  0.0000E+00  0.0000E+00  0.0000E+00  0.0000E+00  0.0000E+00  0.0000E+00  0.0000E+00  0.0000E+00  0.0000E+00  0.0000E+00  0.0000E+00  0.0000E+00  0.0000E+00  0.0000E+00
    -52.656  0.0000E+00  0.0000E+00  0.0000E+00  0.0000E+00  0.0000E+00  0.0000E+00  0.0000E+00  0.0000E+00  0.0000E+00  0.0000E+00  0.0000E+00  0.0000E+00  0.0000E+00  0.0000E+00  0.0000E+00  0.0000E+00  0.0000E+00  0.0000E+00
    -52.451  0.0000E+00  0.0000E+00  0.0000E+00  0.0000E+00  0.0000E+00  0.0000E+00  0.0000E+00  0.0000E+00  0.0000E+00  0.0000E+00  0.0000E+00  0.0000E+00  0.0000E+00  0.0000E+00  0.0000E+00  0.0000E+00  0.0000E+00  0.0000E+00
    -52.245  0.0000E+00  0.0000E+00  0.0000E+00  0.0000E+00  0.0000E+00  0.0000E+00  0.0000E+00  0.0000E+00  0.0000E+00  0.0000E+00  0.0000E+00  0.0000E+00  0.0000E+00  0.0000E+00  0.0000E+00  0.0000E+00  0.0000E+00  0.0000E+00
    -52.040  0.0000E+00  0.0000E+00  0.0000E+00  0.0000E+00  0.0000E+00  0.0000E+00  0.0000E+00  0.0000E+00  0.0000E+00  0.0000E+00  0.0000E+00  0.0000E+00  0.0000E+00  0.0000E+00  0.0000E+00  0.0000E+00  0.0000E+00  0.0000E+00
    -51.834  0.0000E+00  0.0000E+00  0.0000E+00  0.0000E+00  0.0000E+00  0.0000E+00  0.0000E+00  0.0000E+00  0.0000E+00  0.0000E+00  0.0000E+00  0.0000E+00  0.0000E+00  0.0000E+00  0.0000E+00  0.0000E+00  0.0000E+00  0.0000E+00
    -51.629  0.0000E+00  0.0000E+00  0.0000E+00  0.0000E+00  0.0000E+00  0.0000E+00  0.0000E+00  0.0000E+00  0.0000E+00  0.0000E+00  0.0000E+00  0.0000E+00  0.0000E+00  0.0000E+00  0.0000E+00  0.0000E+00  0.0000E+00  0.0000E+00
    -51.423  0.0000E+00  0.0000E+00  0.0000E+00  0.0000E+00  0.0000E+00  0.0000E+00  0.0000E+00  0.0000E+00  0.0000E+00  0.0000E+00  0.0000E+00  0.0000E+00  0.0000E+00  0.0000E+00  0.0000E+00  0.0000E+00  0.0000E+00  0.0000E+00
    -51.218  0.0000E+00  0.0000E+00  0.0000E+00  0.0000E+00  0.0000E+00  0.0000E+00  0.0000E+00  0.0000E+00  0.0000E+00  0.0000E+00  0.0000E+00  0.0000E+00  0.0000E+00  0.0000E+00  0.0000E+00  0.0000E+00  0.0000E+00  0.0000E+00
    -51.012  0.0000E+00  0.0000E+00  0.0000E+00  0.0000E+00  0.0000E+00  0.0000E+00  0.0000E+00  0.0000E+00  0.0000E+00  0.0000E+00  0.0000E+00  0.0000E+00  0.0000E+00  0.0000E+00  0.0000E+00  0.0000E+00  0.0000E+00  0.0000E+00
    -50.807  0.0000E+00  0.0000E+00  0.0000E+00  0.0000E+00  0.0000E+00  0.0000E+00  0.0000E+00  0.0000E+00  0.0000E+00  0.0000E+00  0.0000E+00  0.0000E+00  0.0000E+00  0.0000E+00  0.0000E+00  0.0000E+00  0.0000E+00  0.0000E+00
    -50.601  0.0000E+00  0.0000E+00  0.0000E+00  0.0000E+00  0.0000E+00  0.0000E+00  0.0000E+00  0.0000E+00  0.0000E+00  0.0000E+00  0.0000E+00  0.0000E+00  0.0000E+00  0.0000E+00  0.0000E+00  0.0000E+00  0.0000E+00  0.0000E+00
    -50.396  0.6183E-08  0.6320E-08  0.9498E-05  0.4980E-05  0.2661E-06  0.4768E-06  0.4683E-05  0.8705E-05  0.1311E-09  0.1457E-09  0.3973E-11  0.5656E-11  0.3260E-08  0.3044E-08  0.3088E-09  0.8773E-09  0.2033E-08  0.1603E-08
    -50.190  0.3420E-03  0.3475E-03  0.5099E+00  0.4821E+00  0.2516E-01  0.2552E-01  0.4682E+00  0.4741E+00  0.5992E-05  0.6148E-05  0.2304E-06  0.2438E-06  0.1732E-03  0.1715E-03  0.4800E-04  0.5717E-04  0.4910E-03  0.4960E-03
    -49.985  0.4053E-04  0.3896E-04  0.8077E-01  0.1381E+00  0.8101E-02  0.3683E-02  0.1534E+00  0.6874E-01  0.8363E-06  0.6394E-06  0.4753E-07  0.2594E-07  0.1871E-04  0.2129E-04  0.1479E-04  0.7316E-05  0.1504E-03  0.1491E-03
    -49.779  0.9557E-04  0.9176E-04  0.1887E+01  0.1882E+01  0.2472E+01  0.2031E+01  0.1961E+01  0.1911E+01  0.4222E-05  0.4460E-05  0.3755E-05  0.6039E-05  0.2097E-04  0.2004E-04  0.1119E-04  0.8949E-05  0.6015E-04  0.5872E-04
    -49.574  0.9425E-04  0.9262E-04  0.1856E+01  0.1744E+01  0.2315E+01  0.2757E+01  0.1781E+01  0.1839E+01  0.4067E-04  0.4082E-04  0.2091E-04  0.1865E-04  0.3422E-04  0.3367E-04  0.2322E-04  0.2421E-04  0.6949E-04  0.6556E-04
    -49.368  0.1512E-04  0.1635E-04  0.5124E+00  0.6007E+00  0.2554E-01  0.2980E-01  0.4832E+00  0.5532E+00  0.3733E-05  0.3369E-05  0.1841E-06  0.1552E-06  0.5306E-05  0.6080E-05  0.3061E-05  0.2468E-05  0.3641E-04  0.3824E-04
    -49.163  0.3268E-11  0.4026E-11  0.3993E-06  0.5747E-06  0.2017E-07  0.2748E-07  0.3850E-06  0.5154E-06  0.6501E-12  0.5813E-12  0.3885E-13  0.2321E-13  0.1180E-11  0.1616E-11  0.1535E-11  0.1709E-11  0.2400E-10  0.3301E-10
    -48.957  0.0000E+00  0.0000E+00  0.0000E+00  0.0000E+00  0.0000E+00  0.0000E+00  0.0000E+00  0.0000E+00  0.0000E+00  0.0000E+00  0.0000E+00  0.0000E+00  0.0000E+00  0.0000E+00  0.0000E+00  0.0000E+00  0.0000E+00  0.0000E+00
    -48.752  0.0000E+00  0.0000E+00  0.0000E+00  0.0000E+00  0.0000E+00  0.0000E+00  0.0000E+00  0.0000E+00  0.0000E+00  0.0000E+00  0.0000E+00  0.0000E+00  0.0000E+00  0.0000E+00  0.0000E+00  0.0000E+00  0.0000E+00  0.0000E+00
    -48.546  0.0000E+00  0.0000E+00  0.0000E+00  0.0000E+00  0.0000E+00  0.0000E+00  0.0000E+00  0.0000E+00  0.0000E+00  0.0000E+00  0.0000E+00  0.0000E+00  0.0000E+00  0.0000E+00  0.0000E+00  0.0000E+00  0.0000E+00  0.0000E+00
    -48.341  0.0000E+00  0.0000E+00  0.0000E+00  0.0000E+00  0.0000E+00  0.0000E+00  0.0000E+00  0.0000E+00  0.0000E+00  0.0000E+00  0.0000E+00  0.0000E+00  0.0000E+00  0.0000E+00  0.0000E+00  0.0000E+00  0.0000E+00  0.0000E+00
    -48.135  0.0000E+00  0.0000E+00  0.0000E+00  0.0000E+00  0.0000E+00  0.0000E+00  0.0000E+00  0.0000E+00  0.0000E+00  0.0000E+00  0.0000E+00  0.0000E+00  0.0000E+00  0.0000E+00  0.0000E+00  0.0000E+00  0.0000E+00  0.0000E+00
    -47.930  0.0000E+00  0.0000E+00  0.0000E+00  0.0000E+00  0.0000E+00  0.0000E+00  0.0000E+00  0.0000E+00  0.0000E+00  0.0000E+00  0.0000E+00  0.0000E+00  0.0000E+00  0.0000E+00  0.0000E+00  0.0000E+00  0.0000E+00  0.0000E+00
    -47.724  0.0000E+00  0.0000E+00  0.0000E+00  0.0000E+00  0.0000E+00  0.0000E+00  0.0000E+00  0.0000E+00  0.0000E+00  0.0000E+00  0.0000E+00  0.0000E+00  0.0000E+00  0.0000E+00  0.0000E+00  0.0000E+00  0.0000E+00  0.0000E+00
    -47.519  0.0000E+00  0.0000E+00  0.0000E+00  0.0000E+00  0.0000E+00  0.0000E+00  0.0000E+00  0.0000E+00  0.0000E+00  0.0000E+00  0.0000E+00  0.0000E+00  0.0000E+00  0.0000E+00  0.0000E+00  0.0000E+00  0.0000E+00  0.0000E+00
    -47.313  0.0000E+00  0.0000E+00  0.0000E+00  0.0000E+00  0.0000E+00  0.0000E+00  0.0000E+00  0.0000E+00  0.0000E+00  0.0000E+00  0.0000E+00  0.0000E+00  0.0000E+00  0.0000E+00  0.0000E+00  0.0000E+00  0.0000E+00  0.0000E+00
    -47.108  0.0000E+00  0.0000E+00  0.0000E+00  0.0000E+00  0.0000E+00  0.0000E+00  0.0000E+00  0.0000E+00  0.0000E+00  0.0000E+00  0.0000E+00  0.0000E+00  0.0000E+00  0.0000E+00  0.0000E+00  0.0000E+00  0.0000E+00  0.0000E+00
    -46.902  0.0000E+00  0.0000E+00  0.0000E+00  0.0000E+00  0.0000E+00  0.0000E+00  0.0000E+00  0.0000E+00  0.0000E+00  0.0000E+00  0.0000E+00  0.0000E+00  0.0000E+00  0.0000E+00  0.0000E+00  0.0000E+00  0.0000E+00  0.0000E+00
    -46.697  0.0000E+00  0.0000E+00  0.0000E+00  0.0000E+00  0.0000E+00  0.0000E+00  0.0000E+00  0.0000E+00  0.0000E+00  0.0000E+00  0.0000E+00  0.0000E+00  0.0000E+00  0.0000E+00  0.0000E+00  0.0000E+00  0.0000E+00  0.0000E+00
    -46.491  0.0000E+00  0.0000E+00  0.0000E+00  0.0000E+00  0.0000E+00  0.0000E+00  0.0000E+00  0.0000E+00  0.0000E+00  0.0000E+00  0.0000E+00  0.0000E+00  0.0000E+00  0.0000E+00  0.0000E+00  0.0000E+00  0.0000E+00  0.0000E+00
    -46.286  0.0000E+00  0.0000E+00  0.0000E+00  0.0000E+00  0.0000E+00  0.0000E+00  0.0000E+00  0.0000E+00  0.0000E+00  0.0000E+00  0.0000E+00  0.0000E+00  0.0000E+00  0.0000E+00  0.0000E+00  0.0000E+00  0.0000E+00  0.0000E+00
    -46.080  0.0000E+00  0.0000E+00  0.0000E+00  0.0000E+00  0.0000E+00  0.0000E+00  0.0000E+00  0.0000E+00  0.0000E+00  0.0000E+00  0.0000E+00  0.0000E+00  0.0000E+00  0.0000E+00  0.0000E+00  0.0000E+00  0.0000E+00  0.0000E+00
    -45.875  0.0000E+00  0.0000E+00  0.0000E+00  0.0000E+00  0.0000E+00  0.0000E+00  0.0000E+00  0.0000E+00  0.0000E+00  0.0000E+00  0.0000E+00  0.0000E+00  0.0000E+00  0.0000E+00  0.0000E+00  0.0000E+00  0.0000E+00  0.0000E+00
    -45.669  0.0000E+00  0.0000E+00  0.0000E+00  0.0000E+00  0.0000E+00  0.0000E+00  0.0000E+00  0.0000E+00  0.0000E+00  0.0000E+00  0.0000E+00  0.0000E+00  0.0000E+00  0.0000E+00  0.0000E+00  0.0000E+00  0.0000E+00  0.0000E+00
    -45.464  0.0000E+00  0.0000E+00  0.0000E+00  0.0000E+00  0.0000E+00  0.0000E+00  0.0000E+00  0.0000E+00  0.0000E+00  0.0000E+00  0.0000E+00  0.0000E+00  0.0000E+00  0.0000E+00  0.0000E+00  0.0000E+00  0.0000E+00  0.0000E+00
    -45.258  0.0000E+00  0.0000E+00  0.0000E+00  0.0000E+00  0.0000E+00  0.0000E+00  0.0000E+00  0.0000E+00  0.0000E+00  0.0000E+00  0.0000E+00  0.0000E+00  0.0000E+00  0.0000E+00  0.0000E+00  0.0000E+00  0.0000E+00  0.0000E+00
    -45.053  0.0000E+00  0.0000E+00  0.0000E+00  0.0000E+00  0.0000E+00  0.0000E+00  0.0000E+00  0.0000E+00  0.0000E+00  0.0000E+00  0.0000E+00  0.0000E+00  0.0000E+00  0.0000E+00  0.0000E+00  0.0000E+00  0.0000E+00  0.0000E+00
    -44.847  0.0000E+00  0.0000E+00  0.0000E+00  0.0000E+00  0.0000E+00  0.0000E+00  0.0000E+00  0.0000E+00  0.0000E+00  0.0000E+00  0.0000E+00  0.0000E+00  0.0000E+00  0.0000E+00  0.0000E+00  0.0000E+00  0.0000E+00  0.0000E+00
    -44.642  0.0000E+00  0.0000E+00  0.0000E+00  0.0000E+00  0.0000E+00  0.0000E+00  0.0000E+00  0.0000E+00  0.0000E+00  0.0000E+00  0.0000E+00  0.0000E+00  0.0000E+00  0.0000E+00  0.0000E+00  0.0000E+00  0.0000E+00  0.0000E+00
    -44.436  0.0000E+00  0.0000E+00  0.0000E+00  0.0000E+00  0.0000E+00  0.0000E+00  0.0000E+00  0.0000E+00  0.0000E+00  0.0000E+00  0.0000E+00  0.0000E+00  0.0000E+00  0.0000E+00  0.0000E+00  0.0000E+00  0.0000E+00  0.0000E+00
    -44.231  0.0000E+00  0.0000E+00  0.0000E+00  0.0000E+00  0.0000E+00  0.0000E+00  0.0000E+00  0.0000E+00  0.0000E+00  0.0000E+00  0.0000E+00  0.0000E+00  0.0000E+00  0.0000E+00  0.0000E+00  0.0000E+00  0.0000E+00  0.0000E+00
    -44.025  0.0000E+00  0.0000E+00  0.0000E+00  0.0000E+00  0.0000E+00  0.0000E+00  0.0000E+00  0.0000E+00  0.0000E+00  0.0000E+00  0.0000E+00  0.0000E+00  0.0000E+00  0.0000E+00  0.0000E+00  0.0000E+00  0.0000E+00  0.0000E+00
    -43.820  0.0000E+00  0.0000E+00  0.0000E+00  0.0000E+00  0.0000E+00  0.0000E+00  0.0000E+00  0.0000E+00  0.0000E+00  0.0000E+00  0.0000E+00  0.0000E+00  0.0000E+00  0.0000E+00  0.0000E+00  0.0000E+00  0.0000E+00  0.0000E+00
    -43.614  0.0000E+00  0.0000E+00  0.0000E+00  0.0000E+00  0.0000E+00  0.0000E+00  0.0000E+00  0.0000E+00  0.0000E+00  0.0000E+00  0.0000E+00  0.0000E+00  0.0000E+00  0.0000E+00  0.0000E+00  0.0000E+00  0.0000E+00  0.0000E+00
    -43.409  0.0000E+00  0.0000E+00  0.0000E+00  0.0000E+00  0.0000E+00  0.0000E+00  0.0000E+00  0.0000E+00  0.0000E+00  0.0000E+00  0.0000E+00  0.0000E+00  0.0000E+00  0.0000E+00  0.0000E+00  0.0000E+00  0.0000E+00  0.0000E+00
    -43.203  0.0000E+00  0.0000E+00  0.0000E+00  0.0000E+00  0.0000E+00  0.0000E+00  0.0000E+00  0.0000E+00  0.0000E+00  0.0000E+00  0.0000E+00  0.0000E+00  0.0000E+00  0.0000E+00  0.0000E+00  0.0000E+00  0.0000E+00  0.0000E+00
    -42.998  0.0000E+00  0.0000E+00  0.0000E+00  0.0000E+00  0.0000E+00  0.0000E+00  0.0000E+00  0.0000E+00  0.0000E+00  0.0000E+00  0.0000E+00  0.0000E+00  0.0000E+00  0.0000E+00  0.0000E+00  0.0000E+00  0.0000E+00  0.0000E+00
    -42.792  0.0000E+00  0.0000E+00  0.0000E+00  0.0000E+00  0.0000E+00  0.0000E+00  0.0000E+00  0.0000E+00  0.0000E+00  0.0000E+00  0.0000E+00  0.0000E+00  0.0000E+00  0.0000E+00  0.0000E+00  0.0000E+00  0.0000E+00  0.0000E+00