       N       E                     dE             d eps       ncg     rms          rms(c)
DAV:   1    -0.111883616987E+02   -0.11188E+02   -0.45893E+03  7168   0.143E+02
DAV:   2    -0.150463670315E+02   -0.38580E+01   -0.38346E+01 10816   0.907E+00
DAV:   3    -0.150482875754E+02   -0.19205E-02   -0.19012E-02  7168   0.282E-01
DAV:   4    -0.150482885317E+02   -0.95633E-06   -0.94125E-06 14144   0.517E-03
DAV:   5    -0.150482885316E+02    0.10357E-09   -0.11979E-11  7168   0.491E-06    0.251E+00
DAV:   6    -0.149971336546E+02    0.51155E-01   -0.73364E-03 11456   0.101E-01    0.146E+00
DAV:   7    -0.149603290191E+02    0.36805E-01   -0.20762E-02 11520   0.160E-01    0.262E-01
DAV:   8    -0.149602315728E+02    0.97446E-04   -0.34043E-05  9408   0.843E-03    0.311E-02
DAV:   9    -0.149602304526E+02    0.11203E-05   -0.43716E-06 12480   0.237E-03    0.118E-03
DAV:  10    -0.149602292476E+02    0.12050E-05   -0.11105E-08  8192   0.186E-04    0.337E-04
DAV:  11    -0.149602291095E+02    0.13808E-06   -0.63941E-10  7744   0.353E-05
   1 F= -.14960229E+02 E0= -.14960229E+02  d E =0.000000E+00
