 vasp.6.4.3 19Mar24 (build Mar 26 2024 14:05:37) complex                        
  
 executed on             LinuxIFC date 2025.01.03  04:59:31
 running   64 mpi-ranks, on    1 nodes
 distrk:  each k-point on   64 cores,    1 groups
 distr:  one band on NCORE=   1 cores,   64 groups


--------------------------------------------------------------------------------------------------------


 INCAR:
   ALGO = Normal
   EDIFF = 1e-06
   EDIFFG = -0.01
   ENCUT = 520
   GGA = Pe
   IBRION = -1
   ISIF = 4
   ISMEAR = -5
   LCHARG = False
   LREAL = False
   LWAVE = False
   NELM = 200
   NSW = 0
   PREC = Accurate
   SIGMA = 0.2

 POTCAR:    PAW_PBE Al 04Jan2001                  
 -----------------------------------------------------------------------------
|                                                                             |
|           W    W    AA    RRRRR   N    N  II  N    N   GGGG   !!!           |
|           W    W   A  A   R    R  NN   N  II  NN   N  G    G  !!!           |
|           W    W  A    A  R    R  N N  N  II  N N  N  G       !!!           |
|           W WW W  AAAAAA  RRRRR   N  N N  II  N  N N  G  GGG   !            |
|           WW  WW  A    A  R   R   N   NN  II  N   NN  G    G                |
|           W    W  A    A  R    R  N    N  II  N    N   GGGG   !!!           |
|                                                                             |
|     For optimal performance we recommend to set                             |
|       NCORE = 2 up to number-of-cores-per-socket                            |
|     NCORE specifies how many cores store one orbital (NPAR=cpu/NCORE).      |
|     This setting can greatly improve the performance of VASP for DFT.       |
|     The default, NCORE=1 might be grossly inefficient on modern             |
|     multi-core architectures or massively parallel machines. Do your        |
|     own testing! More info at https://www.vasp.at/wiki/index.php/NCORE      |
|     Unfortunately you need to use the default for GW and RPA                |
|     calculations (for HF NCORE is supported but not extensively tested      |
|     yet).                                                                   |
|                                                                             |
 -----------------------------------------------------------------------------

 POTCAR:    PAW_PBE Al 04Jan2001                  
   SHA256 =  17880443556af62b473fe41b62a467bd001ad55d2cabe504a3f22e34d4e9db96 Al/POTCAR             
   COPYR  = (c) Copyright 04Jan2001 Georg Kresse                                                    
   COPYR  = This file is part of the software VASP. Any use, copying, and all other rights are regul
   COPYR  = If you do not have a valid VASP license, you may not use, copy or distribute this file. 
   VRHFIN =Al: s2p1                                                                                 
   LEXCH  = PE                                                                                      
   EATOM  =    53.5387 eV,    3.9350 Ry                                                             
                                                                                                    
   TITEL  = PAW_PBE Al 04Jan2001                                                                    
   LULTRA =        F    use ultrasoft PP ?                                                          
   IUNSCR =        1    unscreen: 0-lin 1-nonlin 2-no                                               
   RPACOR =    1.500    partial core radius                                                         
   POMASS =   26.981; ZVAL   =    3.000    mass and valenz                                          
   RCORE  =    1.900    outmost cutoff radius                                                       
   RWIGS  =    2.650; RWIGS  =    1.402    wigner-seitz radius (au A)                               
   ENMAX  =  240.300; ENMIN  =  180.225 eV                                                          
   ICORE  =        2    local potential                                                             
   LCOR   =        T    correct aug charges                                                         
   LPAW   =        T    paw PP                                                                      
   EAUG   =  291.052                                                                                
   DEXC   =    0.000                                                                                
   RMAX   =    1.939    core radius for proj-oper                                                   
   RAUG   =    1.300    factor for augmentation sphere                                              
   RDEP   =    1.966    radius for radial grids                                                     
   RDEPT  =    1.856    core radius for aug-charge                                                  
                                                                                                    
   Atomic configuration                                                                             
    6 entries                                                                                       
     n  l   j            E        occ.                                                              
     1  0  0.50     -1511.1048   2.0000                                                             
     2  0  0.50      -108.1629   2.0000                                                             
     2  1  1.50       -69.6402   6.0000                                                             
     3  0  0.50        -7.7528   2.0000                                                             
     3  1  1.50        -2.7121   1.0000                                                             
     3  2  2.50        -2.7212   0.0000                                                             
   Description                                                                                      
     l       E           TYP  RCUT    TYP  RCUT                                                     
     0     -7.7528455     23  1.900                                                                 
     0     -3.3096929     23  1.900                                                                 
     1     -2.7120682     23  1.900                                                                 
     1     13.6058260     23  1.900                                                                 
     2     -2.7211652      7  1.900                                                                 
  local pseudopotential read in
  partial core-charges read in
  partial kinetic energy density read in
  atomic valenz-charges read in
  non local Contribution for L=           0  read in
    real space projection operators read in
  non local Contribution for L=           0  read in
    real space projection operators read in
  non local Contribution for L=           1  read in
    real space projection operators read in
  non local Contribution for L=           1  read in
    real space projection operators read in
    PAW grid and wavefunctions read in
 
   number of l-projection  operators is LMAX  =           4
   number of lm-projection operators is LMMAX =           8
 
  PAW_PBE Al 04Jan2001                  :
 energy of atom  1       EATOM=  -53.5387
 kinetic energy error for atom=    0.0002 (will be added to EATOM!!)
 
 
 POSCAR: Al4
  positions in direct lattice
  velocities in cartesian coordinates


 exchange-correlation table for PE
   RHO(1)=    0.500       N(1)  =     2000
   RHO(2)=  100.500       N(2)  =     4000
 


--------------------------------------------------------------------------------------------------------


 ion  position               nearest neighbor table
   1  0.000  0.000  0.000-   2 2.89   3 2.89   2 2.89   3 2.89   2 2.89   4 2.89   2 2.89   3 2.89
                             4 2.89   3 2.89   4 2.89   4 2.89
   2  0.000  0.500  0.500-   1 2.89   4 2.89   1 2.89   4 2.89   1 2.89   3 2.89   1 2.89   3 2.89
                             4 2.89   4 2.89   3 2.89   3 2.89
   3  0.500  0.000  0.500-   1 2.89   4 2.89   1 2.89   4 2.89   2 2.89   4 2.89   4 2.89   1 2.89
                             2 2.89   1 2.89   2 2.89   2 2.89
   4  0.500  0.500  0.000-   2 2.89   3 2.89   2 2.89   3 2.89   1 2.89   3 2.89   3 2.89   1 2.89
                             2 2.89   2 2.89   1 2.89   1 2.89
 
  LATTYP: Found a simple cubic cell.
 ALAT       =     4.0816551019
  
  Lattice vectors:
  
 A1 = (   4.0816551019,   0.0000000000,   0.0000000000)
 A2 = (   0.0000000000,   4.0816551019,   0.0000000000)
 A3 = (   0.0000000000,   0.0000000000,   4.0816551019)


Analysis of symmetry for initial positions (statically):
=====================================================================
 Subroutine PRICEL returns following result:
 
  LATTYP: Found a face centered cubic cell.
 ALAT       =     4.0816551019
  
  Lattice vectors:
  
 A1 = (   2.0408275510,  -2.0408275510,   0.0000000000)
 A2 = (   2.0408275510,   0.0000000000,   2.0408275510)
 A3 = (  -0.0000000000,  -2.0408275510,   2.0408275510)
 
   4 primitive cells build up your supercell.
 

 Routine SETGRP: Setting up the symmetry group for a 
 simple cubic supercell.


 Subroutine GETGRP returns: Found 48 space group operations
 (whereof 48 operations were pure point group operations)
 out of a pool of 48 trial point group operations.


The static configuration has the point symmetry O_h .


Analysis of symmetry for dynamics (positions and initial velocities):
=====================================================================
 Subroutine PRICEL returns following result:
 
  LATTYP: Found a face centered cubic cell.
 ALAT       =     4.0816551019
  
  Lattice vectors:
  
 A1 = (   2.0408275510,  -2.0408275510,   0.0000000000)
 A2 = (   2.0408275510,   0.0000000000,   2.0408275510)
 A3 = (  -0.0000000000,  -2.0408275510,   2.0408275510)
 
   4 primitive cells build up your supercell.
 

 Routine SETGRP: Setting up the symmetry group for a 
 simple cubic supercell.


 Subroutine GETGRP returns: Found 48 space group operations
 (whereof 48 operations were pure point group operations)
 out of a pool of 48 trial point group operations.


The dynamic configuration has the point symmetry O_h .


 Subroutine INISYM returns: Found 48 space group operations
 (whereof 48 operations are pure point group operations),
 and found     4 'primitive' translations


----------------------------------------------------------------------------------------

                                     Primitive cell                                     

  volume of cell :      17.0000

  direct lattice vectors                    reciprocal lattice vectors
     2.040827551 -2.040827551  0.000000000     0.244998653 -0.244998653 -0.244998653
     2.040827551  0.000000000  2.040827551     0.244998653  0.244998653  0.244998653
    -0.000000000 -2.040827551  2.040827551    -0.244998653 -0.244998653  0.244998653

  length of vectors
     2.886166001  2.886166001  2.886166001     0.424350114  0.424350114  0.424350114

  position of ions in fractional coordinates (direct lattice)
     0.000000000  0.000000000  0.000000000

  ion indices of the primitive-cell ions
   primitive index   ion index
                 1           1

----------------------------------------------------------------------------------------

 
 
 KPOINTS: pymatgen with grid density = 4001 / numb

Automatic generation of k-mesh.
 Grid dimensions read from file:
 generate k-points for:   10   10   10

 Generating k-lattice:

  Cartesian coordinates                     Fractional coordinates (reciprocal lattice)
     0.024499865 -0.000000000  0.000000000     0.100000000 -0.000000000  0.000000000
     0.000000000  0.024499865  0.000000000     0.000000000  0.100000000  0.000000000
    -0.000000000 -0.000000000  0.024499865    -0.000000000  0.000000000  0.100000000

  Length of vectors
     0.024499865  0.024499865  0.024499865

  Shift w.r.t. Gamma in fractional coordinates (k-lattice)
     0.000000000  0.000000000  0.000000000

 TETIRR: Found    492 inequivalent tetrahedra from     6000
 
 Subroutine IBZKPT returns following result:
 ===========================================
 
 Found     56 irreducible k-points:
 
 Following reciprocal coordinates:
            Coordinates               Weight
  0.000000  0.000000  0.000000      1.000000
  0.100000  0.000000  0.000000      6.000000
  0.200000  0.000000  0.000000      6.000000
  0.300000  0.000000  0.000000      6.000000
  0.400000  0.000000  0.000000      6.000000
  0.500000  0.000000  0.000000      3.000000
  0.100000  0.100000  0.000000     12.000000
  0.200000  0.100000  0.000000     24.000000
  0.300000  0.100000  0.000000     24.000000
  0.400000  0.100000  0.000000     24.000000
  0.500000  0.100000  0.000000     12.000000
  0.200000  0.200000  0.000000     12.000000
  0.300000  0.200000  0.000000     24.000000
  0.400000  0.200000  0.000000     24.000000
  0.500000  0.200000  0.000000     12.000000
  0.300000  0.300000  0.000000     12.000000
  0.400000  0.300000  0.000000     24.000000
  0.500000  0.300000  0.000000     12.000000
  0.400000  0.400000  0.000000     12.000000
  0.500000  0.400000  0.000000     12.000000
  0.500000  0.500000  0.000000      3.000000
  0.100000  0.100000  0.100000      8.000000
  0.200000  0.100000  0.100000     24.000000
  0.300000  0.100000  0.100000     24.000000
  0.400000  0.100000  0.100000     24.000000
  0.500000  0.100000  0.100000     12.000000
  0.200000  0.200000  0.100000     24.000000
  0.300000  0.200000  0.100000     48.000000
  0.400000  0.200000  0.100000     48.000000
  0.500000  0.200000  0.100000     24.000000
  0.300000  0.300000  0.100000     24.000000
  0.400000  0.300000  0.100000     48.000000
  0.500000  0.300000  0.100000     24.000000
  0.400000  0.400000  0.100000     24.000000
  0.500000  0.400000  0.100000     24.000000
  0.500000  0.500000  0.100000      6.000000
  0.200000  0.200000  0.200000      8.000000
  0.300000  0.200000  0.200000     24.000000
  0.400000  0.200000  0.200000     24.000000
  0.500000  0.200000  0.200000     12.000000
  0.300000  0.300000  0.200000     24.000000
  0.400000  0.300000  0.200000     48.000000
  0.500000  0.300000  0.200000     24.000000
  0.400000  0.400000  0.200000     24.000000
  0.500000  0.400000  0.200000     24.000000
  0.500000  0.500000  0.200000      6.000000
  0.300000  0.300000  0.300000      8.000000
  0.400000  0.300000  0.300000     24.000000
  0.500000  0.300000  0.300000     12.000000
  0.400000  0.400000  0.300000     24.000000
  0.500000  0.400000  0.300000     24.000000
  0.500000  0.500000  0.300000      6.000000
  0.400000  0.400000  0.400000      8.000000
  0.500000  0.400000  0.400000     12.000000
  0.500000  0.500000  0.400000      6.000000
  0.500000  0.500000  0.500000      1.000000
 
 Following cartesian coordinates:
            Coordinates               Weight
  0.000000  0.000000  0.000000      1.000000
  0.024500  0.000000  0.000000      6.000000
  0.049000  0.000000  0.000000      6.000000
  0.073500  0.000000  0.000000      6.000000
  0.097999  0.000000  0.000000      6.000000
  0.122499  0.000000  0.000000      3.000000
  0.024500  0.024500  0.000000     12.000000
  0.049000  0.024500  0.000000     24.000000
  0.073500  0.024500  0.000000     24.000000
  0.097999  0.024500  0.000000     24.000000
  0.122499  0.024500  0.000000     12.000000
  0.049000  0.049000  0.000000     12.000000
  0.073500  0.049000  0.000000     24.000000
  0.097999  0.049000  0.000000     24.000000
  0.122499  0.049000  0.000000     12.000000
  0.073500  0.073500  0.000000     12.000000
  0.097999  0.073500  0.000000     24.000000
  0.122499  0.073500  0.000000     12.000000
  0.097999  0.097999  0.000000     12.000000
  0.122499  0.097999  0.000000     12.000000
  0.122499  0.122499  0.000000      3.000000
  0.024500  0.024500  0.024500      8.000000
  0.049000  0.024500  0.024500     24.000000
  0.073500  0.024500  0.024500     24.000000
  0.097999  0.024500  0.024500     24.000000
  0.122499  0.024500  0.024500     12.000000
  0.049000  0.049000  0.024500     24.000000
  0.073500  0.049000  0.024500     48.000000
  0.097999  0.049000  0.024500     48.000000
  0.122499  0.049000  0.024500     24.000000
  0.073500  0.073500  0.024500     24.000000
  0.097999  0.073500  0.024500     48.000000
  0.122499  0.073500  0.024500     24.000000
  0.097999  0.097999  0.024500     24.000000
  0.122499  0.097999  0.024500     24.000000
  0.122499  0.122499  0.024500      6.000000
  0.049000  0.049000  0.049000      8.000000
  0.073500  0.049000  0.049000     24.000000
  0.097999  0.049000  0.049000     24.000000
  0.122499  0.049000  0.049000     12.000000
  0.073500  0.073500  0.049000     24.000000
  0.097999  0.073500  0.049000     48.000000
  0.122499  0.073500  0.049000     24.000000
  0.097999  0.097999  0.049000     24.000000
  0.122499  0.097999  0.049000     24.000000
  0.122499  0.122499  0.049000      6.000000
  0.073500  0.073500  0.073500      8.000000
  0.097999  0.073500  0.073500     24.000000
  0.122499  0.073500  0.073500     12.000000
  0.097999  0.097999  0.073500     24.000000
  0.122499  0.097999  0.073500     24.000000
  0.122499  0.122499  0.073500      6.000000
  0.097999  0.097999  0.097999      8.000000
  0.122499  0.097999  0.097999     12.000000
  0.122499  0.122499  0.097999      6.000000
  0.122499  0.122499  0.122499      1.000000
 


--------------------------------------------------------------------------------------------------------




 Dimension of arrays:
   k-points           NKPTS =     56   k-points in BZ     NKDIM =     56   number of bands    NBANDS=     64
   number of dos      NEDOS =    301   number of ions     NIONS =      4
   non local maximal  LDIM  =      4   non local SUM 2l+1 LMDIM =      8
   total plane-waves  NPLWV =  27000
   max r-space proj   IRMAX =      1   max aug-charges    IRDMAX=  15651
   dimension x,y,z NGX =    30 NGY =   30 NGZ =   30
   dimension x,y,z NGXF=    60 NGYF=   60 NGZF=   60
   support grid    NGXF=    60 NGYF=   60 NGZF=   60
   ions per type =               4
   NGX,Y,Z   is equivalent  to a cutoff of  12.22, 12.22, 12.22 a.u.
   NGXF,Y,Z  is equivalent  to a cutoff of  24.44, 24.44, 24.44 a.u.

 SYSTEM =  unknown system                          
 POSCAR =  Al4                                     

 Startparameter for this run:
   NWRITE =      2    write-flag & timer
   PREC   = accura    normal or accurate (medium, high low for compatibility)
   ISTART =      0    job   : 0-new  1-cont  2-samecut
   ICHARG =      2    charge: 1-file 2-atom 10-const
   ISPIN  =      1    spin polarized calculation?
   LNONCOLLINEAR =      F non collinear calculations
   LSORBIT =      F    spin-orbit coupling
   INIWAV =      1    electr: 0-lowe 1-rand  2-diag
   LASPH  =      F    aspherical Exc in radial PAW
 Electronic Relaxation 1
   ENCUT  =  520.0 eV  38.22 Ry    6.18 a.u.   7.59  7.59  7.59*2*pi/ulx,y,z
   ENINI  =  520.0     initial cutoff
   ENAUG  =  291.1 eV  augmentation charge cutoff
   NELM   =    200;   NELMIN=  2; NELMDL=  0     # of ELM steps 
   EDIFF  = 0.1E-05   stopping-criterion for ELM
   LREAL  =      F    real-space projection
   NLSPLINE    = F    spline interpolate recip. space projectors
   LCOMPAT=      F    compatible to vasp.4.4
   GGA_COMPAT  = T    GGA compatible to vasp.4.4-vasp.4.6
   LMAXPAW     = -100 max onsite density
   LMAXMIX     =    2 max onsite mixed and CHGCAR
   VOSKOWN=      0    Vosko Wilk Nusair interpolation
   ROPT   =    0.00000
 Ionic relaxation
   EDIFFG = -.1E-01   stopping-criterion for IOM
   NSW    =      0    number of steps for IOM
   NBLOCK =      1;   KBLOCK =      1    inner block; outer block 
   IBRION =     -1    ionic relax: 0-MD 1-quasi-New 2-CG
   NFREE  =      0    steps in history (QN), initial steepest desc. (CG)
   ISIF   =      4    stress and relaxation
   IWAVPR =     10    prediction:  0-non 1-charg 2-wave 3-comb
   ISYM   =      2    0-nonsym 1-usesym 2-fastsym
   LCORR  =      T    Harris-Foulkes like correction to forces

   POTIM  = 0.5000    time-step for ionic-motion
   TEIN   =    0.0    initial temperature
   TEBEG  =    0.0;   TEEND  =   0.0 temperature during run
   SMASS  =  -3.00    Nose mass-parameter (am)
   estimated Nose-frequenzy (Omega)   =  0.10E-29 period in steps = 0.13E+47 mass=  -0.381E-27a.u.
   SCALEE = 1.0000    scale energy and forces
   NPACO  =    256;   APACO  = 10.0  distance and # of slots for P.C.
   PSTRESS=    0.0 pullay stress

  Mass of Ions in am
   POMASS =  26.98
  Ionic Valenz
   ZVAL   =   3.00
  Atomic Wigner-Seitz radii
   RWIGS  =  -1.00
  virtual crystal weights 
   VCA    =   1.00
   NELECT =      12.0000    total number of electrons
   NUPDOWN=      -1.0000    fix difference up-down

 DOS related values:
   EMIN   =  10.00;   EMAX   =-10.00  energy-range for DOS
   EFERMI =   0.00;   METHOD = LEGACY      
   ISMEAR =    -5;   SIGMA  =   0.20  broadening in eV -4-tet -1-fermi 0-gaus

 Electronic relaxation 2 (details)
   IALGO  =     38    algorithm
   LDIAG  =      T    sub-space diagonalisation (order eigenvalues)
   LSUBROT=      F    optimize rotation matrix (better conditioning)
   TURBO    =      0    0=normal 1=particle mesh
   IRESTART =      0    0=no restart 2=restart with 2 vectors
   NREBOOT  =      0    no. of reboots
   NMIN     =      0    reboot dimension
   EREF     =   0.00    reference energy to select bands
   IMIX   =      4    mixing-type and parameters
     AMIX     =   0.40;   BMIX     =  1.00
     AMIX_MAG =   1.60;   BMIX_MAG =  1.00
     AMIN     =   0.10
     WC   =   100.;   INIMIX=   1;  MIXPRE=   1;  MAXMIX= -45

 Intra band minimization:
   WEIMIN = 0.0000     energy-eigenvalue tresh-hold
   EBREAK =  0.39E-08  absolut break condition
   DEPER  =   0.30     relativ break condition  

   TIME   =   0.40     timestep for ELM

  volume/ion in A,a.u.               =      17.00       114.72
  Fermi-wavevector in a.u.,A,eV,Ry     =   0.918260  1.735260 11.472449  0.843201
  Thomas-Fermi vector in A             =   2.043321
 
 Write flags
   LWAVE        =      F    write WAVECAR
   LDOWNSAMPLE  =      F    k-point downsampling of WAVECAR
   LCHARG       =      F    write CHGCAR
   LVTOT        =      F    write LOCPOT, total local potential
   LVHAR        =      F    write LOCPOT, Hartree potential only
   WRT_POTENTIAL= false  ! write potential to hdf5 file
   LELF         =      F    write electronic localiz. function (ELF)
   LORBIT       =      0    0 simple, 1 ext, 2 COOP (PROOUT), +10 PAW based schemes


 Dipole corrections
   LMONO      =      F    monopole corrections only (constant potential shift)
   LDIPOL     =      F    correct potential (dipole corrections)
   IDIPOL     =      0    1-x, 2-y, 3-z, 4-all directions 
   EPSILON    =  1.0000000 bulk dielectric constant
   LVACPOTAV  =      F  vacuum potentials using an averaging scheme for the charge density
   VACPOTFLAT =  0.1000000 required flatness to determine vacuum potential
 Exchange correlation treatment:
   GGA     = PE    functional components
   XC_C    = 1    coefficients multiplying the functional components
   LIBXC   =     F    Libxc                    
   VOSKOWN =     0    Vosko Wilk Nusair interpolation
   LHFCALC =     F    Hartree Fock is set to
   LHFONE  =     F    Hartree Fock one center treatment
   AEXX    =    0.0000 exact exchange contribution

 Parameters of functionals:
   PE:
     No parameter
 
 Van der Waals corrections
   IVDW    =     0    specifies the selected vdW correction

 Linear response parameters
   LEPSILON=     F    determine dielectric tensor
   LRPA    =     F    only Hartree local field effects (RPA)
   LNABLA  =     F    use nabla operator in PAW spheres
   LVEL    =     F    velocity operator in full k-point grid
   CSHIFT  =0.1000    complex shift for real part using Kramers Kronig
   OMEGAMAX=  -1.0    maximum frequency
   DEG_THRESHOLD= 0.2000000E-02 threshold for treating states as degnerate
   RTIME   =   -0.100 relaxation time in fs
  (WPLASMAI=    0.000 imaginary part of plasma frequency in eV, 0.658/RTIME)
   DFIELD  = 0.0000000 0.0000000 0.0000000 field for delta impulse in time
 
  Optional k-point grid parameters
   LKPOINTS_OPT  =     F    use optional k-point grid
   KPOINTS_OPT_MODE=     1    mode for optional k-point grid
 
 Orbital magnetization related:
   ORBITALMAG=     F  switch on orbital magnetization
   LCHIMAG   =     F  perturbation theory with respect to B field
   DQ        =  0.001000  dq finite difference perturbation B field
   LLRAUG    =     F  two centre corrections for induced B field
   LBONE     =     F  B-component reconstruction in AE one-centre
   LVGVCALC  =     T  calculate vGv susceptibility
   LVGVAPPL  =     F  apply vGv susceptibility instead of pGv for G=0

 Random number generation:
   RANDOM_GENERATOR = DEFAULT
   PCG_SEED         = not used


--------------------------------------------------------------------------------------------------------


 Static calculation
 charge density and potential will be updated during run
 non-spin polarized calculation
 Variant of blocked Davidson
 Davidson routine will perform the subspace rotation
 perform sub-space diagonalisation
    after iterative eigenvector-optimisation
 modified Broyden-mixing scheme, WC =      100.0
 initial mixing is a Kerker type mixing with AMIX =  0.4000 and BMIX =      1.0000
 Hartree-type preconditioning will be used
 using additional bands           58
 reciprocal scheme for non local part
 use partial core corrections
 calculate Harris-corrections to forces 
   (improved forces if not selfconsistent)
 use gradient corrections 
 use of overlap-Matrix (Vanderbilt PP)
 Fermi weights with tetrahedron method with Bloechl corrections


--------------------------------------------------------------------------------------------------------


  energy-cutoff  :      520.00
  volume of cell :       68.00
      direct lattice vectors                 reciprocal lattice vectors
     4.081655102  0.000000000  0.000000000     0.244998653 -0.000000000  0.000000000
     0.000000000  4.081655102  0.000000000     0.000000000  0.244998653  0.000000000
     0.000000000  0.000000000  4.081655102    -0.000000000 -0.000000000  0.244998653

  length of vectors
     4.081655102  4.081655102  4.081655102     0.244998653  0.244998653  0.244998653


 
 k-points in units of 2pi/SCALE and weight: pymatgen with grid density = 4001 / numb
   0.00000000  0.00000000  0.00000000       0.001
   0.02449987  0.00000000  0.00000000       0.006
   0.04899973  0.00000000  0.00000000       0.006
   0.07349960  0.00000000  0.00000000       0.006
   0.09799946  0.00000000  0.00000000       0.006
   0.12249933  0.00000000  0.00000000       0.003
   0.02449987  0.02449987  0.00000000       0.012
   0.04899973  0.02449987  0.00000000       0.024
   0.07349960  0.02449987  0.00000000       0.024
   0.09799946  0.02449987  0.00000000       0.024
   0.12249933  0.02449987  0.00000000       0.012
   0.04899973  0.04899973  0.00000000       0.012
   0.07349960  0.04899973  0.00000000       0.024
   0.09799946  0.04899973  0.00000000       0.024
   0.12249933  0.04899973  0.00000000       0.012
   0.07349960  0.07349960  0.00000000       0.012
   0.09799946  0.07349960  0.00000000       0.024
   0.12249933  0.07349960  0.00000000       0.012
   0.09799946  0.09799946  0.00000000       0.012
   0.12249933  0.09799946  0.00000000       0.012
   0.12249933  0.12249933  0.00000000       0.003
   0.02449987  0.02449987  0.02449987       0.008
   0.04899973  0.02449987  0.02449987       0.024
   0.07349960  0.02449987  0.02449987       0.024
   0.09799946  0.02449987  0.02449987       0.024
   0.12249933  0.02449987  0.02449987       0.012
   0.04899973  0.04899973  0.02449987       0.024
   0.07349960  0.04899973  0.02449987       0.048
   0.09799946  0.04899973  0.02449987       0.048
   0.12249933  0.04899973  0.02449987       0.024
   0.07349960  0.07349960  0.02449987       0.024
   0.09799946  0.07349960  0.02449987       0.048
   0.12249933  0.07349960  0.02449987       0.024
   0.09799946  0.09799946  0.02449987       0.024
   0.12249933  0.09799946  0.02449987       0.024
   0.12249933  0.12249933  0.02449987       0.006
   0.04899973  0.04899973  0.04899973       0.008
   0.07349960  0.04899973  0.04899973       0.024
   0.09799946  0.04899973  0.04899973       0.024
   0.12249933  0.04899973  0.04899973       0.012
   0.07349960  0.07349960  0.04899973       0.024
   0.09799946  0.07349960  0.04899973       0.048
   0.12249933  0.07349960  0.04899973       0.024
   0.09799946  0.09799946  0.04899973       0.024
   0.12249933  0.09799946  0.04899973       0.024
   0.12249933  0.12249933  0.04899973       0.006
   0.07349960  0.07349960  0.07349960       0.008
   0.09799946  0.07349960  0.07349960       0.024
   0.12249933  0.07349960  0.07349960       0.012
   0.09799946  0.09799946  0.07349960       0.024
   0.12249933  0.09799946  0.07349960       0.024
   0.12249933  0.12249933  0.07349960       0.006
   0.09799946  0.09799946  0.09799946       0.008
   0.12249933  0.09799946  0.09799946       0.012
   0.12249933  0.12249933  0.09799946       0.006
   0.12249933  0.12249933  0.12249933       0.001
 
 k-points in reciprocal lattice and weights: pymatgen with grid density = 4001 / numb
   0.00000000  0.00000000  0.00000000       0.001
   0.10000000  0.00000000  0.00000000       0.006
   0.20000000  0.00000000  0.00000000       0.006
   0.30000000  0.00000000  0.00000000       0.006
   0.40000000  0.00000000  0.00000000       0.006
   0.50000000  0.00000000  0.00000000       0.003
   0.10000000  0.10000000  0.00000000       0.012
   0.20000000  0.10000000  0.00000000       0.024
   0.30000000  0.10000000  0.00000000       0.024
   0.40000000  0.10000000  0.00000000       0.024
   0.50000000  0.10000000  0.00000000       0.012
   0.20000000  0.20000000  0.00000000       0.012
   0.30000000  0.20000000  0.00000000       0.024
   0.40000000  0.20000000  0.00000000       0.024
   0.50000000  0.20000000  0.00000000       0.012
   0.30000000  0.30000000  0.00000000       0.012
   0.40000000  0.30000000  0.00000000       0.024
   0.50000000  0.30000000  0.00000000       0.012
   0.40000000  0.40000000  0.00000000       0.012
   0.50000000  0.40000000  0.00000000       0.012
   0.50000000  0.50000000  0.00000000       0.003
   0.10000000  0.10000000  0.10000000       0.008
   0.20000000  0.10000000  0.10000000       0.024
   0.30000000  0.10000000  0.10000000       0.024
   0.40000000  0.10000000  0.10000000       0.024
   0.50000000  0.10000000  0.10000000       0.012
   0.20000000  0.20000000  0.10000000       0.024
   0.30000000  0.20000000  0.10000000       0.048
   0.40000000  0.20000000  0.10000000       0.048
   0.50000000  0.20000000  0.10000000       0.024
   0.30000000  0.30000000  0.10000000       0.024
   0.40000000  0.30000000  0.10000000       0.048
   0.50000000  0.30000000  0.10000000       0.024
   0.40000000  0.40000000  0.10000000       0.024
   0.50000000  0.40000000  0.10000000       0.024
   0.50000000  0.50000000  0.10000000       0.006
   0.20000000  0.20000000  0.20000000       0.008
   0.30000000  0.20000000  0.20000000       0.024
   0.40000000  0.20000000  0.20000000       0.024
   0.50000000  0.20000000  0.20000000       0.012
   0.30000000  0.30000000  0.20000000       0.024
   0.40000000  0.30000000  0.20000000       0.048
   0.50000000  0.30000000  0.20000000       0.024
   0.40000000  0.40000000  0.20000000       0.024
   0.50000000  0.40000000  0.20000000       0.024
   0.50000000  0.50000000  0.20000000       0.006
   0.30000000  0.30000000  0.30000000       0.008
   0.40000000  0.30000000  0.30000000       0.024
   0.50000000  0.30000000  0.30000000       0.012
   0.40000000  0.40000000  0.30000000       0.024
   0.50000000  0.40000000  0.30000000       0.024
   0.50000000  0.50000000  0.30000000       0.006
   0.40000000  0.40000000  0.40000000       0.008
   0.50000000  0.40000000  0.40000000       0.012
   0.50000000  0.50000000  0.40000000       0.006
   0.50000000  0.50000000  0.50000000       0.001
 
 position of ions in fractional coordinates (direct lattice) 
   0.00000000  0.00000000  0.00000000
   0.00000000  0.50000000  0.50000000
   0.50000000  0.00000000  0.50000000
   0.50000000  0.50000000  0.00000000
 
 position of ions in cartesian coordinates  (Angst):
   0.00000000  0.00000000  0.00000000
   0.00000000  2.04082755  2.04082755
   2.04082755  0.00000000  2.04082755
   2.04082755  2.04082755  0.00000000
 


--------------------------------------------------------------------------------------------------------


 k-point     1 :   0.0000 0.0000 0.0000  plane waves:    1839
 k-point     2 :   0.1000 0.0000 0.0000  plane waves:    1831
 k-point     3 :   0.2000 0.0000 0.0000  plane waves:    1823
 k-point     4 :   0.3000 0.0000 0.0000  plane waves:    1835
 k-point     5 :   0.4000 0.0000 0.0000  plane waves:    1827
 k-point     6 :   0.5000 0.0000 0.0000  plane waves:    1840
 k-point     7 :   0.1000 0.1000 0.0000  plane waves:    1841
 k-point     8 :   0.2000 0.1000 0.0000  plane waves:    1830
 k-point     9 :   0.3000 0.1000 0.0000  plane waves:    1839
 k-point    10 :   0.4000 0.1000 0.0000  plane waves:    1841
 k-point    11 :   0.5000 0.1000 0.0000  plane waves:    1838
 k-point    12 :   0.2000 0.2000 0.0000  plane waves:    1845
 k-point    13 :   0.3000 0.2000 0.0000  plane waves:    1842
 k-point    14 :   0.4000 0.2000 0.0000  plane waves:    1829
 k-point    15 :   0.5000 0.2000 0.0000  plane waves:    1832
 k-point    16 :   0.3000 0.3000 0.0000  plane waves:    1839
 k-point    17 :   0.4000 0.3000 0.0000  plane waves:    1831
 k-point    18 :   0.5000 0.3000 0.0000  plane waves:    1832
 k-point    19 :   0.4000 0.4000 0.0000  plane waves:    1834
 k-point    20 :   0.5000 0.4000 0.0000  plane waves:    1824
 k-point    21 :   0.5000 0.5000 0.0000  plane waves:    1852
 k-point    22 :   0.1000 0.1000 0.1000  plane waves:    1830
 k-point    23 :   0.2000 0.1000 0.1000  plane waves:    1842
 k-point    24 :   0.3000 0.1000 0.1000  plane waves:    1827
 k-point    25 :   0.4000 0.1000 0.1000  plane waves:    1839
 k-point    26 :   0.5000 0.1000 0.1000  plane waves:    1838
 k-point    27 :   0.2000 0.2000 0.1000  plane waves:    1839
 k-point    28 :   0.3000 0.2000 0.1000  plane waves:    1833
 k-point    29 :   0.4000 0.2000 0.1000  plane waves:    1827
 k-point    30 :   0.5000 0.2000 0.1000  plane waves:    1834
 k-point    31 :   0.3000 0.3000 0.1000  plane waves:    1836
 k-point    32 :   0.4000 0.3000 0.1000  plane waves:    1826
 k-point    33 :   0.5000 0.3000 0.1000  plane waves:    1836
 k-point    34 :   0.4000 0.4000 0.1000  plane waves:    1827
 k-point    35 :   0.5000 0.4000 0.1000  plane waves:    1816
 k-point    36 :   0.5000 0.5000 0.1000  plane waves:    1812
 k-point    37 :   0.2000 0.2000 0.2000  plane waves:    1845
 k-point    38 :   0.3000 0.2000 0.2000  plane waves:    1842
 k-point    39 :   0.4000 0.2000 0.2000  plane waves:    1821
 k-point    40 :   0.5000 0.2000 0.2000  plane waves:    1832
 k-point    41 :   0.3000 0.3000 0.2000  plane waves:    1831
 k-point    42 :   0.4000 0.3000 0.2000  plane waves:    1823
 k-point    43 :   0.5000 0.3000 0.2000  plane waves:    1828
 k-point    44 :   0.4000 0.4000 0.2000  plane waves:    1816
 k-point    45 :   0.5000 0.4000 0.2000  plane waves:    1816
 k-point    46 :   0.5000 0.5000 0.2000  plane waves:    1816
 k-point    47 :   0.3000 0.3000 0.3000  plane waves:    1833
 k-point    48 :   0.4000 0.3000 0.3000  plane waves:    1823
 k-point    49 :   0.5000 0.3000 0.3000  plane waves:    1818
 k-point    50 :   0.4000 0.4000 0.3000  plane waves:    1816
 k-point    51 :   0.5000 0.4000 0.3000  plane waves:    1826
 k-point    52 :   0.5000 0.5000 0.3000  plane waves:    1820
 k-point    53 :   0.4000 0.4000 0.4000  plane waves:    1832
 k-point    54 :   0.5000 0.4000 0.4000  plane waves:    1836
 k-point    55 :   0.5000 0.5000 0.4000  plane waves:    1836
 k-point    56 :   0.5000 0.5000 0.5000  plane waves:    1856

 maximum and minimum number of plane-waves per node :      1856     1812

 maximum number of plane-waves:      1856
 maximum index in each direction: 
   IXMAX=    7   IYMAX=    7   IZMAX=    7
   IXMIN=   -8   IYMIN=   -8   IZMIN=   -8


 serial   3D FFT for wavefunctions
 parallel 3D FFT for charge:
    minimum data exchange during FFTs selected (reduces bandwidth)


 total amount of memory used by VASP MPI-rank0    40028. kBytes
=======================================================================

   base      :      30000. kBytes
   nonl-proj :       6770. kBytes
   fftplans  :        255. kBytes
   grid      :       1271. kBytes
   one-center:         12. kBytes
   wavefun   :       1720. kBytes
 
     INWAV:  cpu time      0.0000: real time      0.0000
 Broyden mixing: mesh for mixing (old mesh)
   NGX = 15   NGY = 15   NGZ = 15
  (NGX  = 60   NGY  = 60   NGZ  = 60)
  gives a total of   3375 points

 initial charge density was supplied:
 charge density of overlapping atoms calculated
 number of electron      12.0000000 magnetization 
 keeping initial charge density in first step


--------------------------------------------------------------------------------------------------------


 Maximum index for augmentation-charges          741 (set IRDMAX)


--------------------------------------------------------------------------------------------------------


 First call to EWALD:  gamma=   0.434
 Maximum number of real-space cells 3x 3x 3
 Maximum number of reciprocal cells 3x 3x 3

    FEWALD:  cpu time      0.0025: real time      0.0026


--------------------------------------- Ionic step        1  -------------------------------------------




--------------------------------------- Iteration      1(   1)  ---------------------------------------


    POTLOK:  cpu time      0.0102: real time      0.0164
    SETDIJ:  cpu time      0.0036: real time      0.0038
     EDDAV:  cpu time      2.6910: real time      2.7094
 BZINTS: Fermi energy:    8.301051;   12.000000 electrons
         Band energy: 0.444078E+02;  BLOECHL correction:   -0.234496
       DOS:  cpu time      0.0134: real time      0.0138
    --------------------------------------------
      LOOP:  cpu time      2.7183: real time      2.7434

 eigenvalue-minimisations  :  7168
 total energy-change (2. order) :-0.1118836E+02  (-0.4589336E+03)
 number of electron      12.0000000 magnetization 
 augmentation part       12.0000000 magnetization 

 Free energy of the ion-electron system (eV)
  ---------------------------------------------------
  alpha Z        PSCENC =        -0.79030821
  Ewald energy   TEWEN  =      -291.15117960
  -Hartree energ DENC   =        -0.45394724
  -exchange      EXHF   =         0.00000000
  -V(xc)+E(xc)   XCENC  =      -105.17273963
  PAW double counting   =       264.80062850     -136.98248303
  entropy T*S    EENTRO =         0.00000000
  eigenvalues    EBANDS =        44.40783925
  atomic energy  EATOM  =       214.15382826
  Solvation  Ediel_sol  =         0.00000000
  ---------------------------------------------------
  free energy    TOTEN  =       -11.18836170 eV

  energy without entropy =      -11.18836170  energy(sigma->0) =      -11.18836170


--------------------------------------------------------------------------------------------------------




--------------------------------------- Iteration      1(   2)  ---------------------------------------


     EDDAV:  cpu time      5.7365: real time      5.7700
 BZINTS: Fermi energy:    7.696844;   12.000000 electrons
         Band energy: 0.405498E+02;  BLOECHL correction:   -0.238068
       DOS:  cpu time      0.0107: real time      0.0108
    --------------------------------------------
      LOOP:  cpu time      5.7472: real time      5.7808

 eigenvalue-minimisations  : 10816
 total energy-change (2. order) :-0.3858005E+01  (-0.3834624E+01)
 number of electron      12.0000000 magnetization 
 augmentation part       12.0000000 magnetization 

 Free energy of the ion-electron system (eV)
  ---------------------------------------------------
  alpha Z        PSCENC =        -0.79030821
  Ewald energy   TEWEN  =      -291.15117960
  -Hartree energ DENC   =        -0.45394724
  -exchange      EXHF   =         0.00000000
  -V(xc)+E(xc)   XCENC  =      -105.17273963
  PAW double counting   =       264.80062850     -136.98248303
  entropy T*S    EENTRO =         0.00000000
  eigenvalues    EBANDS =        40.54983392
  atomic energy  EATOM  =       214.15382826
  Solvation  Ediel_sol  =         0.00000000
  ---------------------------------------------------
  free energy    TOTEN  =       -15.04636703 eV

  energy without entropy =      -15.04636703  energy(sigma->0) =      -15.04636703


--------------------------------------------------------------------------------------------------------




--------------------------------------- Iteration      1(   3)  ---------------------------------------


     EDDAV:  cpu time      2.7360: real time      2.7533
 BZINTS: Fermi energy:    7.696490;   12.000000 electrons
         Band energy: 0.405479E+02;  BLOECHL correction:   -0.238079
       DOS:  cpu time      0.0107: real time      0.0107
    --------------------------------------------
      LOOP:  cpu time      2.7466: real time      2.7640

 eigenvalue-minimisations  :  7168
 total energy-change (2. order) :-0.1920544E-02  (-0.1901158E-02)
 number of electron      12.0000000 magnetization 
 augmentation part       12.0000000 magnetization 

 Free energy of the ion-electron system (eV)
  ---------------------------------------------------
  alpha Z        PSCENC =        -0.79030821
  Ewald energy   TEWEN  =      -291.15117960
  -Hartree energ DENC   =        -0.45394724
  -exchange      EXHF   =         0.00000000
  -V(xc)+E(xc)   XCENC  =      -105.17273963
  PAW double counting   =       264.80062850     -136.98248303
  entropy T*S    EENTRO =         0.00000000
  eigenvalues    EBANDS =        40.54791337
  atomic energy  EATOM  =       214.15382826
  Solvation  Ediel_sol  =         0.00000000
  ---------------------------------------------------
  free energy    TOTEN  =       -15.04828758 eV

  energy without entropy =      -15.04828758  energy(sigma->0) =      -15.04828758


--------------------------------------------------------------------------------------------------------




--------------------------------------- Iteration      1(   4)  ---------------------------------------


     EDDAV:  cpu time     10.5398: real time     10.6009
 BZINTS: Fermi energy:    7.696489;   12.000000 electrons
         Band energy: 0.405479E+02;  BLOECHL correction:   -0.238079
       DOS:  cpu time      0.0111: real time      0.0112
    --------------------------------------------
      LOOP:  cpu time     10.5509: real time     10.6121

 eigenvalue-minimisations  : 14144
 total energy-change (2. order) :-0.9563337E-06  (-0.9412539E-06)
 number of electron      12.0000000 magnetization 
 augmentation part       12.0000000 magnetization 

 Free energy of the ion-electron system (eV)
  ---------------------------------------------------
  alpha Z        PSCENC =        -0.79030821
  Ewald energy   TEWEN  =      -291.15117960
  -Hartree energ DENC   =        -0.45394724
  -exchange      EXHF   =         0.00000000
  -V(xc)+E(xc)   XCENC  =      -105.17273963
  PAW double counting   =       264.80062850     -136.98248303
  entropy T*S    EENTRO =         0.00000000
  eigenvalues    EBANDS =        40.54791242
  atomic energy  EATOM  =       214.15382826
  Solvation  Ediel_sol  =         0.00000000
  ---------------------------------------------------
  free energy    TOTEN  =       -15.04828853 eV

  energy without entropy =      -15.04828853  energy(sigma->0) =      -15.04828853


--------------------------------------------------------------------------------------------------------




--------------------------------------- Iteration      1(   5)  ---------------------------------------


     EDDAV:  cpu time      2.9478: real time      2.9663
 BZINTS: Fermi energy:    7.696489;   12.000000 electrons
         Band energy: 0.405479E+02;  BLOECHL correction:   -0.238079
       DOS:  cpu time      0.0104: real time      0.0105
    CHARGE:  cpu time      0.0281: real time      0.0285
    MIXING:  cpu time      0.0024: real time      0.0026
    --------------------------------------------
      LOOP:  cpu time      2.9887: real time      3.0079

 eigenvalue-minimisations  :  7168
 total energy-change (2. order) : 0.1035687E-09  (-0.1197879E-11)
 number of electron      12.0000000 magnetization 
 augmentation part       -0.1510151 magnetization 

 Broyden mixing:
  rms(total) = 0.25065E+00    rms(broyden)= 0.25065E+00
  rms(prec ) = 0.46176E+00
  weight for this iteration     100.00

 Free energy of the ion-electron system (eV)
  ---------------------------------------------------
  alpha Z        PSCENC =        -0.79030821
  Ewald energy   TEWEN  =      -291.15117960
  -Hartree energ DENC   =        -0.45394724
  -exchange      EXHF   =         0.00000000
  -V(xc)+E(xc)   XCENC  =      -105.17273963
  PAW double counting   =       264.80062850     -136.98248303
  entropy T*S    EENTRO =         0.00000000
  eigenvalues    EBANDS =        40.54791242
  atomic energy  EATOM  =       214.15382826
  Solvation  Ediel_sol  =         0.00000000
  ---------------------------------------------------
  free energy    TOTEN  =       -15.04828853 eV

  energy without entropy =      -15.04828853  energy(sigma->0) =      -15.04828853


--------------------------------------------------------------------------------------------------------




--------------------------------------- Iteration      1(   6)  ---------------------------------------


    POTLOK:  cpu time      0.0125: real time      0.0129
    SETDIJ:  cpu time      0.0011: real time      0.0011
     EDDAV:  cpu time      6.8174: real time      6.8576
 BZINTS: Fermi energy:    7.681531;   12.000000 electrons
         Band energy: 0.403827E+02;  BLOECHL correction:   -0.238357
       DOS:  cpu time      0.0107: real time      0.0107
    CHARGE:  cpu time      0.0251: real time      0.0252
    MIXING:  cpu time      0.0013: real time      0.0014
    --------------------------------------------
      LOOP:  cpu time      6.8681: real time      6.9090

 eigenvalue-minimisations  : 11456
 total energy-change (2. order) : 0.5115488E-01  (-0.7336360E-03)
 number of electron      12.0000000 magnetization 
 augmentation part       -0.1532710 magnetization 

 Broyden mixing:
  rms(total) = 0.14582E+00    rms(broyden)= 0.14582E+00
  rms(prec ) = 0.28291E+00
  weight for this iteration     100.00

 eigenvalues of (default mixing * dielectric matrix)
  average eigenvalue GAMMA=   2.3319
  2.3319

 Free energy of the ion-electron system (eV)
  ---------------------------------------------------
  alpha Z        PSCENC =        -0.79030821
  Ewald energy   TEWEN  =      -291.15117960
  -Hartree energ DENC   =        -0.36394893
  -exchange      EXHF   =         0.00000000
  -V(xc)+E(xc)   XCENC  =      -105.04172609
  PAW double counting   =       370.32933860     -242.51587444
  entropy T*S    EENTRO =         0.00000000
  eigenvalues    EBANDS =        40.38273676
  atomic energy  EATOM  =       214.15382826
  Solvation  Ediel_sol  =         0.00000000
  ---------------------------------------------------
  free energy    TOTEN  =       -14.99713365 eV

  energy without entropy =      -14.99713365  energy(sigma->0) =      -14.99713365


--------------------------------------------------------------------------------------------------------




--------------------------------------- Iteration      1(   7)  ---------------------------------------


    POTLOK:  cpu time      0.0129: real time      0.0133
    SETDIJ:  cpu time      0.0011: real time      0.0011
     EDDAV:  cpu time      6.8112: real time      6.8513
 BZINTS: Fermi energy:    7.663508;   12.000000 electrons
         Band energy: 0.401968E+02;  BLOECHL correction:   -0.238878
       DOS:  cpu time      0.0109: real time      0.0109
    CHARGE:  cpu time      0.0249: real time      0.0253
    MIXING:  cpu time      0.0009: real time      0.0012
    --------------------------------------------
      LOOP:  cpu time      6.8618: real time      6.9031

 eigenvalue-minimisations  : 11520
 total energy-change (2. order) : 0.3680464E-01  (-0.2076195E-02)
 number of electron      12.0000000 magnetization 
 augmentation part       -0.1574933 magnetization 

 Broyden mixing:
  rms(total) = 0.26220E-01    rms(broyden)= 0.26220E-01
  rms(prec ) = 0.28381E-01
  weight for this iteration     100.00

 eigenvalues of (default mixing * dielectric matrix)
  average eigenvalue GAMMA=   2.8090
  2.8090  2.8090

 Free energy of the ion-electron system (eV)
  ---------------------------------------------------
  alpha Z        PSCENC =        -0.79030821
  Ewald energy   TEWEN  =      -291.15117960
  -Hartree energ DENC   =        -0.38604206
  -exchange      EXHF   =         0.00000000
  -V(xc)+E(xc)   XCENC  =      -104.78269025
  PAW double counting   =       575.55771479     -447.75840730
  entropy T*S    EENTRO =         0.00000000
  eigenvalues    EBANDS =        40.19675535
  atomic energy  EATOM  =       214.15382826
  Solvation  Ediel_sol  =         0.00000000
  ---------------------------------------------------
  free energy    TOTEN  =       -14.96032902 eV

  energy without entropy =      -14.96032902  energy(sigma->0) =      -14.96032902


--------------------------------------------------------------------------------------------------------




--------------------------------------- Iteration      1(   8)  ---------------------------------------


    POTLOK:  cpu time      0.0125: real time      0.0128
    SETDIJ:  cpu time      0.0011: real time      0.0011
     EDDAV:  cpu time      5.1641: real time      5.1936
 BZINTS: Fermi energy:    7.664045;   12.000000 electrons
         Band energy: 0.402052E+02;  BLOECHL correction:   -0.238897
       DOS:  cpu time      0.0106: real time      0.0107
    CHARGE:  cpu time      0.0251: real time      0.0252
    MIXING:  cpu time      0.0003: real time      0.0003
    --------------------------------------------
      LOOP:  cpu time      5.2137: real time      5.2437

 eigenvalue-minimisations  :  9408
 total energy-change (2. order) : 0.9744626E-04  (-0.3404308E-05)
 number of electron      12.0000000 magnetization 
 augmentation part       -0.1577642 magnetization 

 Broyden mixing:
  rms(total) = 0.31131E-02    rms(broyden)= 0.31131E-02
  rms(prec ) = 0.44171E-02
  weight for this iteration     100.00

 eigenvalues of (default mixing * dielectric matrix)
  average eigenvalue GAMMA=   2.1137
  1.0683  2.5303  2.7425

 Free energy of the ion-electron system (eV)
  ---------------------------------------------------
  alpha Z        PSCENC =        -0.79030821
  Ewald energy   TEWEN  =      -291.15117960
  -Hartree energ DENC   =        -0.39932437
  -exchange      EXHF   =         0.00000000
  -V(xc)+E(xc)   XCENC  =      -104.76499454
  PAW double counting   =       528.33775580     -400.55117922
  entropy T*S    EENTRO =         0.00000000
  eigenvalues    EBANDS =        40.20517031
  atomic energy  EATOM  =       214.15382826
  Solvation  Ediel_sol  =         0.00000000
  ---------------------------------------------------
  free energy    TOTEN  =       -14.96023157 eV

  energy without entropy =      -14.96023157  energy(sigma->0) =      -14.96023157


--------------------------------------------------------------------------------------------------------




--------------------------------------- Iteration      1(   9)  ---------------------------------------


    POTLOK:  cpu time      0.0130: real time      0.0134
    SETDIJ:  cpu time      0.0011: real time      0.0011
     EDDAV:  cpu time      8.6377: real time      8.6856
 BZINTS: Fermi energy:    7.663781;   12.000000 electrons
         Band energy: 0.402024E+02;  BLOECHL correction:   -0.238904
       DOS:  cpu time      0.0107: real time      0.0107
    CHARGE:  cpu time      0.0245: real time      0.0246
    MIXING:  cpu time      0.0003: real time      0.0003
    --------------------------------------------
      LOOP:  cpu time      8.6873: real time      8.7358

 eigenvalue-minimisations  : 12480
 total energy-change (2. order) : 0.1120274E-05  (-0.4371598E-06)
 number of electron      12.0000000 magnetization 
 augmentation part       -0.1578185 magnetization 

 Broyden mixing:
  rms(total) = 0.11815E-03    rms(broyden)= 0.11815E-03
  rms(prec ) = 0.16038E-03
  weight for this iteration     100.00

 eigenvalues of (default mixing * dielectric matrix)
  average eigenvalue GAMMA=   2.1772
  0.9973  2.6328  2.6328  2.4458

 Free energy of the ion-electron system (eV)
  ---------------------------------------------------
  alpha Z        PSCENC =        -0.79030821
  Ewald energy   TEWEN  =      -291.15117960
  -Hartree energ DENC   =        -0.40065664
  -exchange      EXHF   =         0.00000000
  -V(xc)+E(xc)   XCENC  =      -104.76149431
  PAW double counting   =       533.31811142     -405.53094476
  entropy T*S    EENTRO =         0.00000000
  eigenvalues    EBANDS =        40.20241338
  atomic energy  EATOM  =       214.15382826
  Solvation  Ediel_sol  =         0.00000000
  ---------------------------------------------------
  free energy    TOTEN  =       -14.96023045 eV

  energy without entropy =      -14.96023045  energy(sigma->0) =      -14.96023045


--------------------------------------------------------------------------------------------------------




--------------------------------------- Iteration      1(  10)  ---------------------------------------


    POTLOK:  cpu time      0.0092: real time      0.0132
    SETDIJ:  cpu time      0.0011: real time      0.0011
     EDDAV:  cpu time      4.1161: real time      4.1403
 BZINTS: Fermi energy:    7.663752;   12.000000 electrons
         Band energy: 0.402021E+02;  BLOECHL correction:   -0.238904
       DOS:  cpu time      0.0105: real time      0.0106
    CHARGE:  cpu time      0.0249: real time      0.0250
    MIXING:  cpu time      0.0003: real time      0.0003
    --------------------------------------------
      LOOP:  cpu time      4.1621: real time      4.1904

 eigenvalue-minimisations  :  8192
 total energy-change (2. order) : 0.1205003E-05  (-0.1110516E-08)
 number of electron      12.0000000 magnetization 
 augmentation part       -0.1578154 magnetization 

 Broyden mixing:
  rms(total) = 0.33707E-04    rms(broyden)= 0.33705E-04
  rms(prec ) = 0.43166E-04
  weight for this iteration     100.00

 eigenvalues of (default mixing * dielectric matrix)
  average eigenvalue GAMMA=   1.9893
  0.9656  1.0701  2.5099  2.7004  2.7004

 Free energy of the ion-electron system (eV)
  ---------------------------------------------------
  alpha Z        PSCENC =        -0.79030821
  Ewald energy   TEWEN  =      -291.15117960
  -Hartree energ DENC   =        -0.40062441
  -exchange      EXHF   =         0.00000000
  -V(xc)+E(xc)   XCENC  =      -104.76157946
  PAW double counting   =       533.27088115     -405.48329795
  entropy T*S    EENTRO =         0.00000000
  eigenvalues    EBANDS =        40.20205098
  atomic energy  EATOM  =       214.15382826
  Solvation  Ediel_sol  =         0.00000000
  ---------------------------------------------------
  free energy    TOTEN  =       -14.96022925 eV

  energy without entropy =      -14.96022925  energy(sigma->0) =      -14.96022925


--------------------------------------------------------------------------------------------------------




--------------------------------------- Iteration      1(  11)  ---------------------------------------


    POTLOK:  cpu time      0.0127: real time      0.0131
    SETDIJ:  cpu time      0.0011: real time      0.0011
     EDDAV:  cpu time      4.7765: real time      4.8035
 BZINTS: Fermi energy:    7.663746;   12.000000 electrons
         Band energy: 0.402020E+02;  BLOECHL correction:   -0.238904
       DOS:  cpu time      0.0109: real time      0.0110
    --------------------------------------------
      LOOP:  cpu time      4.8013: real time      4.8287

 eigenvalue-minimisations  :  7744
 total energy-change (2. order) : 0.1380828E-06  (-0.6394127E-10)
 number of electron      12.0000000 magnetization 
 augmentation part       -0.1578154 magnetization 

 Free energy of the ion-electron system (eV)
  ---------------------------------------------------
  alpha Z        PSCENC =        -0.79030821
  Ewald energy   TEWEN  =      -291.15117960
  -Hartree energ DENC   =        -0.40063787
  -exchange      EXHF   =         0.00000000
  -V(xc)+E(xc)   XCENC  =      -104.76155803
  PAW double counting   =       533.31482528     -405.52717761
  entropy T*S    EENTRO =         0.00000000
  eigenvalues    EBANDS =        40.20197868
  atomic energy  EATOM  =       214.15382826
  Solvation  Ediel_sol  =         0.00000000
  ---------------------------------------------------
  free energy    TOTEN  =       -14.96022911 eV

  energy without entropy =      -14.96022911  energy(sigma->0) =      -14.96022911


--------------------------------------------------------------------------------------------------------




 average (electrostatic) potential at core
  the test charge radii are     1.0406
  (the norm of the test charge is              1.0000)
       1 -72.9792       2 -72.9792       3 -72.9792       4 -72.9792
 
 
 
 E-fermi :   7.6637     XC(G=0): -10.0894     alpha+bet :-14.4388

 val. band max:        7.9149914828   @ k =   0.5000   0.5000   0.1000
 cond. band min:       7.4370404727   @ k =   0.1000   0.1000   0.0000
 fundamental gap:     -0.4779510101
 Fermi energy:         7.6637456948

 k-point     1 :       0.0000    0.0000    0.0000
  band No.  band energies     occupation 
      1      -3.2379      2.00000
      2       4.8401      2.00000
      3       4.8401      2.00000
      4       4.8401      2.00000
      5       6.0946      2.00000
      6       6.0946      2.00000
      7       6.0946      2.00000
      8      12.9422      0.00000
      9      12.9422      0.00000
     10      12.9422      0.00000
     11      13.1486      0.00000
     12      13.1486      0.00000
     13      13.1486      0.00000
     14      13.1486      0.00000
     15      13.1486      0.00000
     16      13.1486      0.00000
     17      16.4856      0.00000
     18      16.4856      0.00000
     19      16.4856      0.00000
     20      20.1467      0.00000
     21      20.1467      0.00000
     22      20.1467      0.00000
     23      21.4154      0.00000
     24      21.4154      0.00000
     25      21.4154      0.00000
     26      23.9427      0.00000
     27      26.7958      0.00000
     28      26.7958      0.00000
     29      29.5415      0.00000
     30      31.8897      0.00000
     31      31.8897      0.00000
     32      31.8897      0.00000
     33      32.6478      0.00000
     34      32.6478      0.00000
     35      32.6478      0.00000
     36      34.1277      0.00000
     37      34.1277      0.00000
     38      34.1277      0.00000
     39      34.1277      0.00000
     40      34.1277      0.00000
     41      34.1277      0.00000
     42      39.7310      0.00000
     43      39.7310      0.00000
     44      39.7310      0.00000
     45      40.1046      0.00000
     46      40.3918      0.00000
     47      40.3918      0.00000
     48      40.3918      0.00000
     49      40.3918      0.00000
     50      40.3918      0.00000
     51      40.3918      0.00000
     52      40.8347      0.00000
     53      40.8347      0.00000
     54      40.8347      0.00000
     55      41.8101      0.00000
     56      41.8101      0.00000
     57      41.8101      0.00000
     58      47.4655      0.00000
     59      47.4655      0.00000
     60      47.4655      0.00000
     61      47.4655      0.00000
     62      47.4655      0.00000
     63      47.4655      0.00000
     64      48.0429      0.00000

 k-point     2 :       0.1000    0.0000    0.0000
  band No.  band energies     occupation 
      1      -3.1491      2.00000
      2       3.7359      2.00000
      3       4.9217      2.00000
      4       4.9217      2.00000
      5       6.1811      2.00328
      6       6.1811      2.07694
      7       7.3535      1.46877
      8      11.4791      0.00000
      9      11.4791      0.00000
     10      12.5508      0.00000
     11      12.5508      0.00000
     12      13.0298      0.00000
     13      13.2245      0.00000
     14      13.2245      0.00000
     15      14.7759      0.00000
     16      14.7759      0.00000
     17      16.5667      0.00000
     18      17.2162      0.00000
     19      17.2162      0.00000
     20      19.2183      0.00000
     21      19.2183      0.00000
     22      19.5242      0.00000
     23      21.1989      0.00000
     24      22.4734      0.00000
     25      22.4734      0.00000
     26      24.7426      0.00000
     27      25.6772      0.00000
     28      26.8780      0.00000
     29      29.5362      0.00000
     30      31.9927      0.00000
     31      31.9927      0.00000
     32      32.1598      0.00000
     33      32.1598      0.00000
     34      32.3134      0.00000
     35      33.0315      0.00000
     36      33.0315      0.00000
     37      33.1741      0.00000
     38      33.8164      0.00000
     39      33.8164      0.00000
     40      34.1468      0.00000
     41      34.1468      0.00000
     42      39.7826      0.00000
     43      39.7826      0.00000
     44      39.8231      0.00000
     45      40.1570      0.00000
     46      40.1570      0.00000
     47      40.2395      0.00000
     48      40.4408      0.00000
     49      40.4408      0.00000
     50      40.4953      0.00000
     51      40.5742      0.00000
     52      40.5742      0.00000
     53      41.2535      0.00000
     54      41.2535      0.00000
     55      42.3659      0.00000
     56      42.5675      0.00000
     57      42.5675      0.00000
     58      45.1719      0.00000
     59      45.1719      0.00000
     60      45.2779      0.00000
     61      46.7230      0.00000
     62      46.7230      0.00000
     63      46.7573      0.00000
     64      46.7573      0.00000

 k-point     3 :       0.2000    0.0000    0.0000
  band No.  band energies     occupation 
      1      -2.8829      2.00000
      2       2.3298      2.00000
      3       5.1666      2.00000
      4       5.1666      2.00000
      5       6.4392      2.02778
      6       6.4392      2.53649
      7       9.2231     -0.15083
      8      10.0828      0.00000
      9      10.0828      0.00000
     10      11.4298      0.00000
     11      11.4298      0.00000
     12      13.2924      0.00000
     13      13.4522      0.00000
     14      13.4522      0.00000
     15      16.6637      0.00000
     16      16.6637      0.00000
     17      16.8077      0.00000
     18      17.9875      0.00000
     19      17.9875      0.00000
     20      18.3471      0.00000
     21      18.7327      0.00000
     22      18.7327      0.00000
     23      20.6364      0.00000
     24      23.3628      0.00000
     25      24.0828      0.00000
     26      24.0828      0.00000
     27      26.4518      0.00000
     28      27.1238      0.00000
     29      30.1386      0.00000
     30      30.7788      0.00000
     31      30.7788      0.00000
     32      30.8381      0.00000
     33      30.8381      0.00000
     34      31.5187      0.00000
     35      32.3100      0.00000
     36      32.3100      0.00000
     37      33.0232      0.00000
     38      33.0232      0.00000
     39      34.1977      0.00000
     40      34.1977      0.00000
     41      35.1972      0.00000
     42      38.2955      0.00000
     43      39.2336      0.00000
     44      39.2336      0.00000
     45      40.2613      0.00000
     46      40.2613      0.00000
     47      40.5852      0.00000
     48      40.5852      0.00000
     49      40.5869      0.00000
     50      40.5869      0.00000
     51      41.5565      0.00000
     52      41.7429      0.00000
     53      42.0773      0.00000
     54      42.0856      0.00000
     55      42.0856      0.00000
     56      42.4942      0.00000
     57      43.2505      0.00000
     58      43.2505      0.00000
     59      43.7962      0.00000
     60      43.7962      0.00000
     61      45.4326      0.00000
     62      45.4326      0.00000
     63      45.6846      0.00000
     64      45.6846      0.00000

 k-point     4 :       0.3000    0.0000    0.0000
  band No.  band energies     occupation 
      1      -2.4403      2.00000
      2       1.0500      2.00000
      3       5.5749      2.00000
      4       5.5749      2.00000
      5       6.8634      2.03478
      6       6.8634      2.54720
      7       8.8512      0.00000
      8       8.8512      0.00000
      9      10.2889      0.00000
     10      10.2889      0.00000
     11      11.2738      0.00000
     12      13.7292      0.00000
     13      13.8317      0.00000
     14      13.8317      0.00000
     15      16.8642      0.00000
     16      16.8642      0.00000
     17      17.1475      0.00000
     18      17.2016      0.00000
     19      18.7109      0.00000
     20      18.7109      0.00000
     21      19.8853      0.00000
     22      20.5191      0.00000
     23      20.5191      0.00000
     24      20.8248      0.00000
     25      25.8019      0.00000
     26      25.8019      0.00000
     27      27.5305      0.00000
     28      28.2505      0.00000
     29      28.2505      0.00000
     30      28.5376      0.00000
     31      29.0245      0.00000
     32      29.0245      0.00000
     33      30.5709      0.00000
     34      31.1465      0.00000
     35      31.9483      0.00000
     36      31.9483      0.00000
     37      32.8692      0.00000
     38      32.8692      0.00000
     39      34.2627      0.00000
     40      34.2627      0.00000
     41      36.7210      0.00000
     42      36.9497      0.00000
     43      38.5168      0.00000
     44      38.5168      0.00000
     45      39.0156      0.00000
     46      39.0523      0.00000
     47      39.0523      0.00000
     48      40.8264      0.00000
     49      40.8264      0.00000
     50      41.0191      0.00000
     51      41.0191      0.00000
     52      41.9083      0.00000
     53      42.2926      0.00000
     54      42.2926      0.00000
     55      43.3083      0.00000
     56      43.3083      0.00000
     57      43.3739      0.00000
     58      43.9038      0.00000
     59      44.2536      0.00000
     60      44.2536      0.00000
     61      44.5406      0.00000
     62      44.5406      0.00000
     63      44.8601      0.00000
     64      44.8601      0.00000

 k-point     5 :       0.4000    0.0000    0.0000
  band No.  band energies     occupation 
      1      -1.8228      2.00000
      2      -0.0738      2.00000
      3       6.1471      2.00000
      4       6.1471      2.00000
      5       7.4329      1.98774
      6       7.4329      2.02041
      7       7.7848      0.00000
      8       7.7848      0.00000
      9       9.2682      0.00000
     10       9.2682      0.00000
     11      13.4727      0.00000
     12      14.3384      0.00000
     13      14.3633      0.00000
     14      14.3633      0.00000
     15      15.8814      0.00000
     16      15.8814      0.00000
     17      16.0580      0.00000
     18      17.7363      0.00000
     19      18.2407      0.00000
     20      19.1499      0.00000
     21      20.9103      0.00000
     22      20.9103      0.00000
     23      22.3891      0.00000
     24      22.3891      0.00000
     25      25.7104      0.00000
     26      25.7104      0.00000
     27      27.0653      0.00000
     28      27.0653      0.00000
     29      27.5362      0.00000
     30      27.5362      0.00000
     31      28.0931      0.00000
     32      29.6399      0.00000
     33      30.6680      0.00000
     34      30.6680      0.00000
     35      30.8668      0.00000
     36      32.3698      0.00000
     37      33.7230      0.00000
     38      33.7230      0.00000
     39      34.3171      0.00000
     40      34.3171      0.00000
     41      35.1869      0.00000
     42      36.1193      0.00000
     43      36.5712      0.00000
     44      36.5712      0.00000
     45      38.4006      0.00000
     46      39.0574      0.00000
     47      39.0574      0.00000
     48      40.9004      0.00000
     49      41.1495      0.00000
     50      41.1495      0.00000
     51      41.5353      0.00000
     52      41.5353      0.00000
     53      42.0625      0.00000
     54      42.0625      0.00000
     55      43.1185      0.00000
     56      43.1185      0.00000
     57      43.2310      0.00000
     58      43.2310      0.00000
     59      44.3392      0.00000
     60      44.3392      0.00000
     61      45.5204      0.00000
     62      46.1225      0.00000
     63      46.1225      0.00000
     64      46.7640      0.00000

 k-point     6 :       0.5000    0.0000    0.0000
  band No.  band energies     occupation 
      1      -1.0330      2.00000
      2      -1.0330      2.00000
      3       6.8836      2.00000
      4       6.8836      2.00000
      5       6.8836      2.00000
      6       6.8836      2.00000
      7       7.9138      0.00000
      8       7.9138      0.00000
      9       8.6344      0.00000
     10       8.6344      0.00000
     11      15.0468      0.00000
     12      15.0468      0.00000
     13      15.0468      0.00000
     14      15.0468      0.00000
     15      15.1169      0.00000
     16      15.1169      0.00000
     17      15.8040      0.00000
     18      15.8040      0.00000
     19      18.3928      0.00000
     20      18.3928      0.00000
     21      23.2502      0.00000
     22      23.2502      0.00000
     23      23.2502      0.00000
     24      23.2502      0.00000
     25      23.6794      0.00000
     26      23.6794      0.00000
     27      25.7341      0.00000
     28      25.7341      0.00000
     29      28.8022      0.00000
     30      28.8022      0.00000
     31      29.1872      0.00000
     32      29.1872      0.00000
     33      29.1872      0.00000
     34      29.1872      0.00000
     35      33.3995      0.00000
     36      33.3995      0.00000
     37      33.7287      0.00000
     38      33.7287      0.00000
     39      34.3383      0.00000
     40      34.3383      0.00000
     41      34.9430      0.00000
     42      34.9430      0.00000
     43      34.9430      0.00000
     44      34.9430      0.00000
     45      39.0818      0.00000
     46      39.0818      0.00000
     47      39.7018      0.00000
     48      39.7018      0.00000
     49      41.5201      0.00000
     50      41.5201      0.00000
     51      41.5201      0.00000
     52      41.5201      0.00000
     53      42.3835      0.00000
     54      42.3835      0.00000
     55      42.3835      0.00000
     56      42.3835      0.00000
     57      43.0166      0.00000
     58      43.0166      0.00000
     59      44.1611      0.00000
     60      44.1611      0.00000
     61      47.9176      0.00000
     62      47.9176      0.00000
     63      48.0185      0.00000
     64      48.0185      0.00000

 k-point     7 :       0.1000    0.1000    0.0000
  band No.  band energies     occupation 
      1      -3.0603      2.00000
      2       3.8200      2.00000
      3       3.8200      2.00000
      4       5.0033      2.00000
      5       6.2671      2.04761
      6       7.4370      2.09146
      7       7.4370      0.96513
      8      10.4145      0.00000
      9      11.5613      0.00000
     10      11.5613      0.00000
     11      12.6291      0.00000
     12      12.6291      0.00000
     13      13.3014      0.00000
     14      14.5519      0.00000
     15      14.8570      0.00000
     16      14.8570      0.00000
     17      17.2949      0.00000
     18      17.2949      0.00000
     19      17.9823      0.00000
     20      18.0507      0.00000
     21      18.5272      0.00000
     22      20.3194      0.00000
     23      21.5230      0.00000
     24      22.3383      0.00000
     25      22.7433      0.00000
     26      25.4248      0.00000
     27      25.6201      0.00000
     28      26.2242      0.00000
     29      29.3154      0.00000
     30      31.5197      0.00000
     31      31.5197      0.00000
     32      31.7818      0.00000
     33      32.1008      0.00000
     34      32.9258      0.00000
     35      33.0687      0.00000
     36      33.2228      0.00000
     37      33.2626      0.00000
     38      33.2626      0.00000
     39      33.6159      0.00000
     40      33.8259      0.00000
     41      33.8259      0.00000
     42      38.6661      0.00000
     43      39.0838      0.00000
     44      39.0838      0.00000
     45      40.4091      0.00000
     46      40.4091      0.00000
     47      40.5888      0.00000
     48      40.5888      0.00000
     49      40.7903      0.00000
     50      40.8483      0.00000
     51      41.1068      0.00000
     52      41.1068      0.00000
     53      41.2998      0.00000
     54      41.5178      0.00000
     55      42.6047      0.00000
     56      43.0963      0.00000
     57      43.0963      0.00000
     58      43.9245      0.00000
     59      43.9245      0.00000
     60      45.6566      0.00000
     61      45.6566      0.00000
     62      46.0979      0.00000
     63      46.5836      0.00000
     64      46.7387      0.00000

 k-point     8 :       0.2000    0.1000    0.0000
  band No.  band energies     occupation 
      1      -2.7942      2.00000
      2       2.4152      2.00000
      3       4.0722      2.00000
      4       5.2482      2.00000
      5       6.5227      2.09489
      6       7.6861      0.82209
      7       9.0705     -0.07708
      8       9.3038      0.00000
      9      10.1650      0.00000
     10      11.5120      0.00000
     11      11.8078      0.00000
     12      12.5450      0.00000
     13      12.8639      0.00000
     14      15.1003      0.00000
     15      15.9420      0.00000
     16      16.6627      0.00000
     17      16.7445      0.00000
     18      17.3931      0.00000
     19      17.5289      0.00000
     20      18.8076      0.00000
     21      19.6464      0.00000
     22      19.7294      0.00000
     23      21.1878      0.00000
     24      23.4260      0.00000
     25      23.4548      0.00000
     26      23.9969      0.00000
     27      26.2745      0.00000
     28      27.3043      0.00000
     29      29.5930      0.00000
     30      29.6767      0.00000
     31      30.4785      0.00000
     32      30.6588      0.00000
     33      30.8233      0.00000
     34      31.8918      0.00000
     35      32.4378      0.00000
     36      33.0024      0.00000
     37      33.0844      0.00000
     38      33.2110      0.00000
     39      33.7093      0.00000
     40      33.8457      0.00000
     41      35.5589      0.00000
     42      37.6093      0.00000
     43      37.7827      0.00000
     44      38.3682      0.00000
     45      39.8245      0.00000
     46      40.5651      0.00000
     47      40.5786      0.00000
     48      40.6137      0.00000
     49      41.0541      0.00000
     50      41.4753      0.00000
     51      41.6146      0.00000
     52      41.8667      0.00000
     53      41.9278      0.00000
     54      41.9986      0.00000
     55      42.2461      0.00000
     56      42.9223      0.00000
     57      42.9501      0.00000
     58      42.9594      0.00000
     59      44.3209      0.00000
     60      44.3592      0.00000
     61      44.7066      0.00000
     62      45.9402      0.00000
     63      45.9546      0.00000
     64      47.1044      0.00000

 k-point     9 :       0.3000    0.1000    0.0000
  band No.  band energies     occupation 
      1      -2.3519      2.00000
      2       1.1362      2.00000
      3       4.4916      2.00000
      4       5.6566      2.00000
      5       6.9286      2.04492
      6       7.8677      0.44480
      7       8.0928      0.00000
      8       8.9332      0.00000
      9      10.3789      0.00000
     10      11.3487      0.00000
     11      11.4314      0.00000
     12      12.2182      0.00000
     13      13.2565      0.00000
     14      15.4679      0.00000
     15      15.5054      0.00000
     16      16.2965      0.00000
     17      17.9010      0.00000
     18      17.9121      0.00000
     19      18.6752      0.00000
     20      18.7909      0.00000
     21      20.3935      0.00000
     22      20.5886      0.00000
     23      21.0231      0.00000
     24      21.4743      0.00000
     25      25.1879      0.00000
     26      25.5094      0.00000
     27      26.8453      0.00000
     28      27.2492      0.00000
     29      28.3136      0.00000
     30      28.9788      0.00000
     31      29.2498      0.00000
     32      29.4241      0.00000
     33      30.0314      0.00000
     34      30.4207      0.00000
     35      31.8665      0.00000
     36      32.3231      0.00000
     37      33.0495      0.00000
     38      33.3688      0.00000
     39      33.8511      0.00000
     40      34.5136      0.00000
     41      35.7648      0.00000
     42      37.3390      0.00000
     43      37.4608      0.00000
     44      37.6158      0.00000
     45      38.0602      0.00000
     46      40.0872      0.00000
     47      40.1983      0.00000
     48      40.4416      0.00000
     49      40.5961      0.00000
     50      40.8863      0.00000
     51      41.5767      0.00000
     52      41.8716      0.00000
     53      42.1155      0.00000
     54      42.1595      0.00000
     55      42.2320      0.00000
     56      42.3024      0.00000
     57      43.4102      0.00000
     58      44.0615      0.00000
     59      44.6222      0.00000
     60      44.9684      0.00000
     61      45.1124      0.00000
     62      45.8228      0.00000
     63      46.0414      0.00000
     64      47.6496      0.00000

 k-point    10 :       0.4000    0.1000    0.0000
  band No.  band energies     occupation 
      1      -1.7349      2.00000
      2       0.0131      2.00000
      3       5.0768      2.00000
      4       6.2289      2.00000
      5       6.7134      2.00578
      6       7.5993      1.66722
      7       7.8668      0.00000
      8       8.5901      0.00000
      9       9.4179      0.00000
     10      10.4063      0.00000
     11      12.7914      0.00000
     12      13.4938      0.00000
     13      13.8496      0.00000
     14      14.4196      0.00000
     15      15.3159      0.00000
     16      16.0712      0.00000
     17      17.6702      0.00000
     18      18.3106      0.00000
     19      18.4336      0.00000
     20      19.8234      0.00000
     21      20.0386      0.00000
     22      20.9888      0.00000
     23      22.4301      0.00000
     24      23.3678      0.00000
     25      24.8740      0.00000
     26      25.7820      0.00000
     27      26.6805      0.00000
     28      27.0389      0.00000
     29      27.1004      0.00000
     30      27.9911      0.00000
     31      28.0424      0.00000
     32      28.4410      0.00000
     33      30.4789      0.00000
     34      31.1497      0.00000
     35      31.3043      0.00000
     36      31.3647      0.00000
     37      33.5488      0.00000
     38      33.8114      0.00000
[...]
     64      48.2744      0.00000

 k-point    52 :       0.5000    0.5000    0.3000
  band No.  band energies     occupation 
      1       1.9141      2.00000
      2       1.9141      2.00000
      3       1.9141      2.00000
      4       1.9141      2.00000
      5       5.3138      2.00000
      6       5.3138      2.00000
      7       5.3138      2.00000
      8       5.3138      2.07114
      9      15.2499      0.00000
     10      15.2499      0.00000
     11      15.2499      0.00000
     12      15.2499      0.00000
     13      17.6629      0.00000
     14      17.6629      0.00000
     15      17.6629      0.00000
     16      17.6629      0.00000
     17      19.4223      0.00000
     18      19.4223      0.00000
     19      19.4223      0.00000
     20      19.4223      0.00000
     21      20.7582      0.00000
     22      20.7582      0.00000
     23      20.7582      0.00000
     24      20.7582      0.00000
     25      23.5822      0.00000
     26      23.5822      0.00000
     27      23.5822      0.00000
     28      23.5822      0.00000
     29      25.8041      0.00000
     30      25.8041      0.00000
     31      25.8041      0.00000
     32      25.8041      0.00000
     33      29.7199      0.00000
     34      29.7199      0.00000
     35      29.7199      0.00000
     36      29.7199      0.00000
     37      31.1904      0.00000
     38      31.1904      0.00000
     39      31.1904      0.00000
     40      31.1904      0.00000
     41      37.0489      0.00000
     42      37.0489      0.00000
     43      37.0489      0.00000
     44      37.0489      0.00000
     45      39.2070      0.00000
     46      39.2070      0.00000
     47      39.2070      0.00000
     48      39.2070      0.00000
     49      40.8101      0.00000
     50      40.8101      0.00000
     51      40.8101      0.00000
     52      40.8101      0.00000
     53      45.6516      0.00000
     54      45.6516      0.00000
     55      45.6516      0.00000
     56      45.6516      0.00000
     57      46.6473      0.00000
     58      46.6473      0.00000
     59      46.6473      0.00000
     60      46.6473      0.00000
     61      48.2770      0.00000
     62      48.2770      0.00000
     63      48.2770      0.00000
     64      48.2770      0.00000

 k-point    53 :       0.4000    0.4000    0.4000
  band No.  band energies     occupation 
      1       0.9673      2.00000
      2       2.6831      2.00000
      3       2.6831      2.00000
      4       2.6831      2.00000
      5       4.3897      2.00000
      6       4.3897      2.00000
      7       4.3897      2.00000
      8       6.0717      2.06540
      9      15.9645      0.00000
     10      15.9645      0.00000
     11      15.9645      0.00000
     12      16.8223      0.00000
     13      16.8223      0.00000
     14      16.8223      0.00000
     15      18.3499      0.00000
     16      18.3499      0.00000
     17      18.5204      0.00000
     18      18.5204      0.00000
     19      18.5204      0.00000
     20      19.9022      0.00000
     21      19.9022      0.00000
     22      21.4392      0.00000
     23      21.4392      0.00000
     24      21.4392      0.00000
     25      21.9404      0.00000
     26      23.7287      0.00000
     27      24.2199      0.00000
     28      24.2199      0.00000
     29      24.2199      0.00000
     30      25.0710      0.00000
     31      25.0710      0.00000
     32      25.0710      0.00000
     33      29.8456      0.00000
     34      29.8456      0.00000
     35      29.8456      0.00000
     36      30.3087      0.00000
     37      30.3087      0.00000
     38      32.1331      0.00000
     39      32.1331      0.00000
     40      32.1331      0.00000
     41      36.8443      0.00000
     42      38.2601      0.00000
     43      38.2601      0.00000
     44      38.2601      0.00000
     45      38.2876      0.00000
     46      38.2876      0.00000
     47      38.2876      0.00000
     48      39.6823      0.00000
     49      39.6823      0.00000
     50      39.6823      0.00000
     51      40.0244      0.00000
     52      40.0244      0.00000
     53      45.4664      0.00000
     54      46.0041      0.00000
     55      46.0041      0.00000
     56      46.0041      0.00000
     57      47.0364      0.00000
     58      47.0364      0.00000
     59      47.1033      0.00000
     60      48.4698      0.00000
     61      48.4698      0.00000
     62      48.4698      0.00000
     63      48.8900      0.00000
     64      48.8900      0.00000

 k-point    54 :       0.5000    0.4000    0.4000
  band No.  band energies     occupation 
      1       1.7425      2.00000
      2       1.7425      2.00000
      3       3.3823      2.00000
      4       3.3823      2.00000
      5       3.5255      2.00000
      6       3.5255      2.00000
      7       5.1482      2.00000
      8       5.1482      2.02201
      9      16.5317      0.00000
     10      16.5317      0.00000
     11      16.6398      0.00000
     12      16.6398      0.00000
     13      17.5118      0.00000
     14      17.5118      0.00000
     15      18.0751      0.00000
     16      18.0751      0.00000
     17      18.8406      0.00000
     18      18.8406      0.00000
     19      19.8294      0.00000
     20      19.8294      0.00000
     21      20.0979      0.00000
     22      20.0979      0.00000
     23      20.5907      0.00000
     24      20.5907      0.00000
     25      22.8538      0.00000
     26      22.8538      0.00000
     27      23.8190      0.00000
     28      23.8190      0.00000
     29      23.9761      0.00000
     30      23.9761      0.00000
     31      24.5557      0.00000
     32      24.5557      0.00000
     33      30.1875      0.00000
     34      30.1875      0.00000
     35      30.9835      0.00000
     36      30.9835      0.00000
     37      31.6296      0.00000
     38      31.6296      0.00000
     39      31.7932      0.00000
     40      31.7932      0.00000
     41      37.8125      0.00000
     42      37.8125      0.00000
     43      38.0382      0.00000
     44      38.0382      0.00000
     45      38.3005      0.00000
     46      38.3005      0.00000
     47      38.4699      0.00000
     48      38.4699      0.00000
     49      39.4935      0.00000
     50      39.4935      0.00000
     51      39.7655      0.00000
     52      39.7655      0.00000
     53      45.4633      0.00000
     54      45.4633      0.00000
     55      45.6228      0.00000
     56      45.6228      0.00000
     57      47.6658      0.00000
     58      47.6658      0.00000
     59      47.9484      0.00000
     60      47.9484      0.00000
     61      49.1606      0.00000
     62      49.1606      0.00000
     63      49.2535      0.00000
     64      49.2535      0.00000

 k-point    55 :       0.5000    0.5000    0.4000
  band No.  band energies     occupation 
      1       2.5132      2.00000
      2       2.5132      2.00000
      3       2.5132      2.00000
      4       2.5132      2.00000
      5       4.2210      2.00000
      6       4.2210      2.00000
      7       4.2210      2.00000
      8       4.2210      2.00000
      9      17.2207      0.00000
     10      17.2207      0.00000
     11      17.2207      0.00000
     12      17.2207      0.00000
     13      18.1985      0.00000
     14      18.1985      0.00000
     15      18.1985      0.00000
     16      18.1985      0.00000
     17      19.5534      0.00000
     18      19.5534      0.00000
     19      19.5534      0.00000
     20      19.5534      0.00000
     21      19.7592      0.00000
     22      19.7592      0.00000
     23      19.7592      0.00000
     24      19.7592      0.00000
     25      22.8237      0.00000
     26      22.8237      0.00000
     27      22.8237      0.00000
     28      22.8237      0.00000
     29      23.6886      0.00000
     30      23.6886      0.00000
     31      23.6886      0.00000
     32      23.6886      0.00000
     33      31.2945      0.00000
     34      31.2945      0.00000
     35      31.2945      0.00000
     36      31.2945      0.00000
     37      31.8217      0.00000
     38      31.8217      0.00000
     39      31.8217      0.00000
     40      31.8217      0.00000
     41      37.7006      0.00000
     42      37.7006      0.00000
     43      37.7006      0.00000
     44      37.7006      0.00000
     45      38.7888      0.00000
     46      38.7888      0.00000
     47      38.7888      0.00000
     48      38.7888      0.00000
     49      38.8458      0.00000
     50      38.8458      0.00000
     51      38.8458      0.00000
     52      38.8458      0.00000
     53      45.0894      0.00000
     54      45.0894      0.00000
     55      45.0894      0.00000
     56      45.0894      0.00000
     57      48.6891      0.00000
     58      48.6891      0.00000
     59      48.6891      0.00000
     60      48.6891      0.00000
     61      49.3853      0.00000
     62      49.3853      0.00000
     63      49.3853      0.00000
     64      49.3853      0.00000

 k-point    56 :       0.5000    0.5000    0.5000
  band No.  band energies     occupation 
      1       3.2176      2.00000
      2       3.2176      2.00000
      3       3.2176      2.00000
      4       3.2176      2.00000
      5       3.3514      2.00000
      6       3.3514      2.00000
      7       3.3514      2.00000
      8       3.3514      2.00000
      9      18.7871      0.00000
     10      18.7871      0.00000
     11      18.7871      0.00000
     12      18.7871      0.00000
     13      18.7871      0.00000
     14      18.7871      0.00000
     15      18.7871      0.00000
     16      18.7871      0.00000
     17      19.0160      0.00000
     18      19.0160      0.00000
     19      19.0160      0.00000
     20      19.0160      0.00000
     21      19.0160      0.00000
     22      19.0160      0.00000
     23      19.0160      0.00000
     24      19.0160      0.00000
     25      22.5898      0.00000
     26      22.5898      0.00000
     27      22.5898      0.00000
     28      22.5898      0.00000
     29      22.6272      0.00000
     30      22.6272      0.00000
     31      22.6272      0.00000
     32      22.6272      0.00000
     33      32.0541      0.00000
     34      32.0541      0.00000
     35      32.0541      0.00000
     36      32.0541      0.00000
     37      32.0541      0.00000
     38      32.0541      0.00000
     39      32.0541      0.00000
     40      32.0541      0.00000
     41      37.9528      0.00000
     42      37.9528      0.00000
     43      37.9528      0.00000
     44      37.9528      0.00000
     45      37.9528      0.00000
     46      37.9528      0.00000
     47      37.9528      0.00000
     48      37.9528      0.00000
     49      38.6843      0.00000
     50      38.6843      0.00000
     51      38.6843      0.00000
     52      38.6843      0.00000
     53      44.5538      0.00000
     54      44.5538      0.00000
     55      44.5538      0.00000
     56      44.5538      0.00000
     57      49.6679      0.00000
     58      49.6679      0.00000
     59      49.6679      0.00000
     60      49.6679      0.00000
     61      50.6109      0.00000
     62      50.6109      0.00000
     63      50.6109      0.00000
     64      50.6109      0.00000


--------------------------------------------------------------------------------------------------------


 soft charge-density along one line, spin component           1
         0         1         2         3         4         5         6         7         8         9
 total charge-density along one line
 
 pseudopotential strength for first ion, spin component:           1
  8.454  14.408   0.000  -0.000   0.000   0.000  -0.000   0.000
 14.408  24.557   0.000  -0.000   0.000   0.000  -0.000   0.000
  0.000   0.000   1.986   0.000   0.000   5.729   0.000   0.000
 -0.000  -0.000   0.000   1.986   0.000   0.000   5.729   0.000
  0.000   0.000   0.000   0.000   1.986   0.000   0.000   5.729
  0.000   0.000   5.729   0.000   0.000  16.438   0.000   0.000
 -0.000  -0.000   0.000   5.729   0.000   0.000  16.438   0.000
  0.000   0.000   0.000   0.000   5.729   0.000   0.000  16.438
 total augmentation occupancy for first ion, spin component:           1
  3.226  -0.769  -0.000  -0.000   0.000   0.000  -0.000   0.000
 -0.769   0.253   0.000   0.000   0.000   0.000   0.000   0.000
 -0.000   0.000   1.058   0.000   0.000  -0.066  -0.000  -0.000
 -0.000   0.000   0.000   1.058   0.000  -0.000  -0.066  -0.000
  0.000   0.000   0.000   0.000   1.058  -0.000  -0.000  -0.066
  0.000   0.000  -0.066  -0.000  -0.000   0.005   0.000   0.000
 -0.000   0.000  -0.000  -0.066  -0.000   0.000   0.005   0.000
  0.000   0.000  -0.000  -0.000  -0.066   0.000   0.000   0.005


------------------------ aborting loop because EDIFF is reached ----------------------------------------


    CHARGE:  cpu time      0.0248: real time      0.0249
    FORLOC:  cpu time      0.0007: real time      0.0007
    FORNL :  cpu time      0.0280: real time      0.0283
    STRESS:  cpu time      0.4341: real time      0.4395
    FORCOR:  cpu time      0.0035: real time      0.0037
    FORHAR:  cpu time      0.0012: real time      0.0013
    MIXING:  cpu time      0.0003: real time      0.0003
    OFIELD:  cpu time      0.0003: real time      0.0003

  FORCE on cell =-STRESS in cart. coord.  units (eV):
  Direction    XX          YY          ZZ          XY          YZ          ZX
  --------------------------------------------------------------------------------------
  Alpha Z    -0.79031    -0.79031    -0.79031
  Ewald     -97.05044   -97.05044   -97.05044    -0.00000     0.00000     0.00000
  Hartree     0.13355     0.13355     0.13355    -0.00000    -0.00000    -0.00000
  E(xc)     -33.93612   -33.93612   -33.93612     0.00000    -0.00000     0.00000
  Local       0.87778     0.87778     0.87778     0.00000    -0.00000     0.00000
  n-local    73.98626    74.82777    76.48467     0.18638     0.86926     0.32312
  augment    -4.21176    -4.21176    -4.21176    -0.00000     0.00000     0.00000
  Kinetic    56.52204    58.27148    61.95500     1.56329    -8.13922    -1.27041
  Fock        0.00000     0.00000     0.00000     0.00000     0.00000     0.00000
  -------------------------------------------------------------------------------------
  Total      -0.96156    -0.96156    -0.96156     0.00000    -0.00000    -0.00000
  in kB     -22.65562   -22.65562   -22.65562     0.00000    -0.00000    -0.00000
  external pressure =      -22.66 kB  Pullay stress =        0.00 kB


 VOLUME and BASIS-vectors are now :
 -----------------------------------------------------------------------------
  energy-cutoff  :      520.00
  volume of cell :       68.00
      direct lattice vectors                 reciprocal lattice vectors
     4.081655102  0.000000000  0.000000000     0.244998653 -0.000000000  0.000000000
     0.000000000  4.081655102  0.000000000     0.000000000  0.244998653  0.000000000
     0.000000000  0.000000000  4.081655102    -0.000000000 -0.000000000  0.244998653

  length of vectors
     4.081655102  4.081655102  4.081655102     0.244998653  0.244998653  0.244998653


 FORCES acting on ions
    electron-ion (+dipol)            ewald-force                    non-local-force                 convergence-correction
 -----------------------------------------------------------------------------------------------
   -.566E-15 -.890E-15 -.839E-15   -.410E-15 -.614E-15 -.911E-15   -.620E-19 0.127E-19 -.817E-19   0.982E-15 -.591E-17 0.878E-16
   -.551E-15 -.322E-14 -.107E-14   -.359E-15 0.493E-15 0.458E-15   -.199E-19 -.472E-20 0.816E-20   0.964E-15 0.337E-18 -.904E-16
   -.724E-15 -.305E-16 0.224E-13   0.287E-15 -.464E-15 0.221E-15   -.444E-19 0.149E-19 -.122E-18   -.105E-14 0.159E-16 -.876E-16
   -.153E-14 -.713E-14 -.193E-13   0.339E-15 0.616E-15 0.247E-15   0.184E-18 -.208E-19 0.481E-19   -.102E-14 -.114E-16 0.910E-16
 -----------------------------------------------------------------------------------------------
   -.337E-14 -.113E-13 0.119E-14   -.144E-15 0.311E-16 0.144E-16   0.575E-19 0.210E-20 -.147E-18   -.124E-15 -.106E-17 0.855E-18
 
 
 POSITION                                       TOTAL-FORCE (eV/Angst)
 -----------------------------------------------------------------------------------
      0.00000      0.00000      0.00000         0.000000      0.000000      0.000000
      0.00000      2.04083      2.04083        -0.000000     -0.000000      0.000000
      2.04083      0.00000      2.04083        -0.000000      0.000000     -0.000000
      2.04083      2.04083      0.00000        -0.000000     -0.000000     -0.000000
 -----------------------------------------------------------------------------------
    total drift:                               -0.000000     -0.000000      0.000000


--------------------------------------------------------------------------------------------------------



  FREE ENERGIE OF THE ION-ELECTRON SYSTEM (eV)
  ---------------------------------------------------
  free  energy   TOTEN  =       -14.96022911 eV

  energy  without entropy=      -14.96022911  energy(sigma->0) =      -14.96022911
 


--------------------------------------------------------------------------------------------------------


    POTLOK:  cpu time      0.0066: real time      0.0070


--------------------------------------------------------------------------------------------------------


     LOOP+:  cpu time     61.8643: real time     62.2863
 -----------------------------------------------------------------------------
|                                                                             |
|           W    W    AA    RRRRR   N    N  II  N    N   GGGG   !!!           |
|           W    W   A  A   R    R  NN   N  II  NN   N  G    G  !!!           |
|           W    W  A    A  R    R  N N  N  II  N N  N  G       !!!           |
|           W WW W  AAAAAA  RRRRR   N  N N  II  N  N N  G  GGG   !            |
|           WW  WW  A    A  R   R   N   NN  II  N   NN  G    G                |
|           W    W  A    A  R    R  N    N  II  N    N   GGGG   !!!           |
|                                                                             |
|     Tetrahedron method does not include variations of the Fermi             |
|     occupations, so forces and stress will be inaccurate. We suggest        |
|     using a different smearing scheme ISMEAR = 1 or 2 for metals in         |
|     relaxations.                                                            |
|                                                                             |
 -----------------------------------------------------------------------------

    4ORBIT:  cpu time      0.0000: real time      0.0000
 BZINTS: Fermi energy:    7.663746;   12.000000 electrons
         Band energy: 0.402020E+02;  BLOECHL correction:   -0.238904

 total amount of memory used by VASP MPI-rank0    40028. kBytes
=======================================================================

   base      :      30000. kBytes
   nonl-proj :       6770. kBytes
   fftplans  :        255. kBytes
   grid      :       1271. kBytes
   one-center:         12. kBytes
   wavefun   :       1720. kBytes
 
  
  
 General timing and accounting informations for this job:
 ========================================================
  
                  Total CPU time used (sec):       65.035
                            User time (sec):       62.738
                          System time (sec):        2.297
                         Elapsed time (sec):       67.692
  
                   Maximum memory used (kb):      720688.
                   Average memory used (kb):          N/A
  
                          Minor page faults:       145863
                          Major page faults:          132
                 Voluntary context switches:         4781
