  16  16   1   0
  0.1950000E+02  0.7151339E-09  0.6841661E-09  0.6883342E-09  0.5000000E-15
  1.000000000000000E-004
  CAR 
 unknown system                          
      8.97413218    -52.72394995  301      3.52104267      1.00000000
    -52.724  0.0000E+00  0.0000E+00  0.0000E+00  0.0000E+00
    -52.518  0.0000E+00  0.0000E+00  0.0000E+00  0.0000E+00
    -52.313  0.0000E+00  0.0000E+00  0.0000E+00  0.0000E+00
    -52.107  0.0000E+00  0.0000E+00  0.0000E+00  0.0000E+00
    -51.901  0.0000E+00  0.0000E+00  0.0000E+00  0.0000E+00
    -51.696  0.0000E+00  0.0000E+00  0.0000E+00  0.0000E+00
    -51.490  0.0000E+00  0.0000E+00  0.0000E+00  0.0000E+00
    -51.284  0.0000E+00  0.0000E+00  0.0000E+00  0.0000E+00
    -51.079  0.0000E+00  0.0000E+00  0.0000E+00  0.0000E+00
    -50.873  0.0000E+00  0.0000E+00  0.0000E+00  0.0000E+00
    -50.667  0.0000E+00  0.0000E+00  0.0000E+00  0.0000E+00
    -50.462  0.0000E+00  0.0000E+00  0.0000E+00  0.0000E+00
    -50.256  0.0000E+00  0.0000E+00  0.0000E+00  0.0000E+00
    -50.050  0.2831E-05  0.2831E-05  0.5822E-06  0.5822E-06
    -49.845  0.1420E+00  0.1420E+00  0.2920E-01  0.2920E-01
    -49.639  0.5524E-01  0.5524E-01  0.4056E-01  0.4056E-01
    -49.433  0.2938E+00  0.2938E+00  0.1010E+00  0.1010E+00
    -49.228  0.5874E+00  0.5874E+00  0.2218E+00  0.2218E+00
    -49.022  0.1004E+00  0.1004E+00  0.2424E+00  0.2424E+00
    -48.816  0.7225E-06  0.7225E-06  0.2424E+00  0.2424E+00
    -48.611  0.0000E+00  0.0000E+00  0.2424E+00  0.2424E+00
    -48.405  0.0000E+00  0.0000E+00  0.2424E+00  0.2424E+00
    -48.199  0.0000E+00  0.0000E+00  0.2424E+00  0.2424E+00
    -47.994  0.0000E+00  0.0000E+00  0.2424E+00  0.2424E+00
    -47.788  0.0000E+00  0.0000E+00  0.2424E+00  0.2424E+00
    -47.582  0.0000E+00  0.0000E+00  0.2424E+00  0.2424E+00
    -47.377  0.0000E+00  0.0000E+00  0.2424E+00  0.2424E+00
    -47.171  0.0000E+00  0.0000E+00  0.2424E+00  0.2424E+00
    -46.965  0.0000E+00  0.0000E+00  0.2424E+00  0.2424E+00
    -46.760  0.0000E+00  0.0000E+00  0.2424E+00  0.2424E+00
    -46.554  0.0000E+00  0.0000E+00  0.2424E+00  0.2424E+00
    -46.348  0.0000E+00  0.0000E+00  0.2424E+00  0.2424E+00
    -46.143  0.0000E+00  0.0000E+00  0.2424E+00  0.2424E+00
    -45.937  0.0000E+00  0.0000E+00  0.2424E+00  0.2424E+00
    -45.732  0.0000E+00  0.0000E+00  0.2424E+00  0.2424E+00
    -45.526  0.0000E+00  0.0000E+00  0.2424E+00  0.2424E+00
    -45.320  0.0000E+00  0.0000E+00  0.2424E+00  0.2424E+00
    -45.115  0.0000E+00  0.0000E+00  0.2424E+00  0.2424E+00
    -44.909  0.0000E+00  0.0000E+00  0.2424E+00  0.2424E+00
    -44.703  0.0000E+00  0.0000E+00  0.2424E+00  0.2424E+00
    -44.498  0.0000E+00  0.0000E+00  0.2424E+00  0.2424E+00
    -44.292  0.0000E+00  0.0000E+00  0.2424E+00  0.2424E+00
    -44.086  0.0000E+00  0.0000E+00  0.2424E+00  0.2424E+00
    -43.881  0.0000E+00  0.0000E+00  0.2424E+00  0.2424E+00
    -43.675  0.0000E+00  0.0000E+00  0.2424E+00  0.2424E+00
    -43.469  0.0000E+00  0.0000E+00  0.2424E+00  0.2424E+00
    -43.264  0.0000E+00  0.0000E+00  0.2424E+00  0.2424E+00
    -43.058  0.0000E+00  0.0000E+00  0.2424E+00  0.2424E+00
    -42.852  0.0000E+00  0.0000E+00  0.2424E+00  0.2424E+00
    -42.647  0.0000E+00  0.0000E+00  0.2424E+00  0.2424E+00
    -42.441  0.0000E+00  0.0000E+00  0.2424E+00  0.2424E+00
    -42.235  0.0000E+00  0.0000E+00  0.2424E+00  0.2424E+00
    -42.030  0.0000E+00  0.0000E+00  0.2424E+00  0.2424E+00
    -41.824  0.0000E+00  0.0000E+00  0.2424E+00  0.2424E+00
    -41.618  0.0000E+00  0.0000E+00  0.2424E+00  0.2424E+00
    -41.413  0.0000E+00  0.0000E+00  0.2424E+00  0.2424E+00
    -41.207  0.0000E+00  0.0000E+00  0.2424E+00  0.2424E+00
    -41.001  0.0000E+00  0.0000E+00  0.2424E+00  0.2424E+00
    -40.796  0.0000E+00  0.0000E+00  0.2424E+00  0.2424E+00
    -40.590  0.0000E+00  0.0000E+00  0.2424E+00  0.2424E+00
    -40.384  0.0000E+00  0.0000E+00  0.2424E+00  0.2424E+00
    -40.179  0.0000E+00  0.0000E+00  0.2424E+00  0.2424E+00
    -39.973  0.0000E+00  0.0000E+00  0.2424E+00  0.2424E+00
    -39.767  0.0000E+00  0.0000E+00  0.2424E+00  0.2424E+00
    -39.562  0.0000E+00  0.0000E+00  0.2424E+00  0.2424E+00
    -39.356  0.0000E+00  0.0000E+00  0.2424E+00  0.2424E+00
    -39.150  0.0000E+00  0.0000E+00  0.2424E+00  0.2424E+00
    -38.945  0.0000E+00  0.0000E+00  0.2424E+00  0.2424E+00
    -38.739  0.0000E+00  0.0000E+00  0.2424E+00  0.2424E+00
    -38.533  0.0000E+00  0.0000E+00  0.2424E+00  0.2424E+00
    -38.328  0.0000E+00  0.0000E+00  0.2424E+00  0.2424E+00
    -38.122  0.0000E+00  0.0000E+00  0.2424E+00  0.2424E+00
    -37.916  0.0000E+00  0.0000E+00  0.2424E+00  0.2424E+00
    -37.711  0.0000E+00  0.0000E+00  0.2424E+00  0.2424E+00
    -37.505  0.0000E+00  0.0000E+00  0.2424E+00  0.2424E+00
    -37.299  0.0000E+00  0.0000E+00  0.2424E+00  0.2424E+00
    -37.094  0.0000E+00  0.0000E+00  0.2424E+00  0.2424E+00
    -36.888  0.0000E+00  0.0000E+00  0.2424E+00  0.2424E+00
    -36.682  0.0000E+00  0.0000E+00  0.2424E+00  0.2424E+00
    -36.477  0.0000E+00  0.0000E+00  0.2424E+00  0.2424E+00
    -36.271  0.0000E+00  0.0000E+00  0.2424E+00  0.2424E+00
    -36.065  0.0000E+00  0.0000E+00  0.2424E+00  0.2424E+00
    -35.860  0.0000E+00  0.0000E+00  0.2424E+00  0.2424E+00
    -35.654  0.0000E+00  0.0000E+00  0.2424E+00  0.2424E+00
    -35.448  0.0000E+00  0.0000E+00  0.2424E+00  0.2424E+00
    -35.243  0.0000E+00  0.0000E+00  0.2424E+00  0.2424E+00
    -35.037  0.0000E+00  0.0000E+00  0.2424E+00  0.2424E+00
    -34.832  0.0000E+00  0.0000E+00  0.2424E+00  0.2424E+00
    -34.626  0.0000E+00  0.0000E+00  0.2424E+00  0.2424E+00
    -34.420  0.0000E+00  0.0000E+00  0.2424E+00  0.2424E+00
    -34.215  0.0000E+00  0.0000E+00  0.2424E+00  0.2424E+00
    -34.009  0.0000E+00  0.0000E+00  0.2424E+00  0.2424E+00
    -33.803  0.0000E+00  0.0000E+00  0.2424E+00  0.2424E+00
    -33.598  0.0000E+00  0.0000E+00  0.2424E+00  0.2424E+00
    -33.392  0.0000E+00  0.0000E+00  0.2424E+00  0.2424E+00
    -33.186  0.0000E+00  0.0000E+00  0.2424E+00  0.2424E+00
    -32.981  0.0000E+00  0.0000E+00  0.2424E+00  0.2424E+00
    -32.775  0.0000E+00  0.0000E+00  0.2424E+00  0.2424E+00
    -32.569  0.0000E+00  0.0000E+00  0.2424E+00  0.2424E+00
    -32.364  0.0000E+00  0.0000E+00  0.2424E+00  0.2424E+00
    -32.158  0.0000E+00  0.0000E+00  0.2424E+00  0.2424E+00
    -31.952  0.0000E+00  0.0000E+00  0.2424E+00  0.2424E+00
    -31.747  0.0000E+00  0.0000E+00  0.2424E+00  0.2424E+00
    -31.541  0.0000E+00  0.0000E+00  0.2424E+00  0.2424E+00
    -31.335  0.0000E+00  0.0000E+00  0.2424E+00  0.2424E+00
    -31.130  0.0000E+00  0.0000E+00  0.2424E+00  0.2424E+00
    -30.924  0.0000E+00  0.0000E+00  0.2424E+00  0.2424E+00
    -30.718  0.0000E+00  0.0000E+00  0.2424E+00  0.2424E+00
    -30.513  0.0000E+00  0.0000E+00  0.2424E+00  0.2424E+00
    -30.307  0.0000E+00  0.0000E+00  0.2424E+00  0.2424E+00
    -30.101  0.0000E+00  0.0000E+00  0.2424E+00  0.2424E+00
    -29.896  0.0000E+00  0.0000E+00  0.2424E+00  0.2424E+00
    -29.690  0.0000E+00  0.0000E+00  0.2424E+00  0.2424E+00
    -29.484  0.0000E+00  0.0000E+00  0.2424E+00  0.2424E+00
    -29.279  0.0000E+00  0.0000E+00  0.2424E+00  0.2424E+00
    -29.073  0.0000E+00  0.0000E+00  0.2424E+00  0.2424E+00
    -28.867  0.0000E+00  0.0000E+00  0.2424E+00  0.2424E+00
    -28.662  0.0000E+00  0.0000E+00  0.2424E+00  0.2424E+00
    -28.456  0.0000E+00  0.0000E+00  0.2424E+00  0.2424E+00
    -28.250  0.0000E+00  0.0000E+00  0.2424E+00  0.2424E+00
    -28.045  0.0000E+00  0.0000E+00  0.2424E+00  0.2424E+00
    -27.839  0.0000E+00  0.0000E+00  0.2424E+00  0.2424E+00
    -27.633  0.0000E+00  0.0000E+00  0.2424E+00  0.2424E+00
    -27.428  0.0000E+00  0.0000E+00  0.2424E+00  0.2424E+00
    -27.222  0.0000E+00  0.0000E+00  0.2424E+00  0.2424E+00
    -27.016  0.0000E+00  0.0000E+00  0.2424E+00  0.2424E+00
    -26.811  0.0000E+00  0.0000E+00  0.2424E+00  0.2424E+00
    -26.605  0.0000E+00  0.0000E+00  0.2424E+00  0.2424E+00
    -26.399  0.0000E+00  0.0000E+00  0.2424E+00  0.2424E+00
    -26.194  0.0000E+00  0.0000E+00  0.2424E+00  0.2424E+00
    -25.988  0.0000E+00  0.0000E+00  0.2424E+00  0.2424E+00
    -25.782  0.0000E+00  0.0000E+00  0.2424E+00  0.2424E+00
    -25.577  0.0000E+00  0.0000E+00  0.2424E+00  0.2424E+00
    -25.371  0.0000E+00  0.0000E+00  0.2424E+00  0.2424E+00
    -25.165  0.0000E+00  0.0000E+00  0.2424E+00  0.2424E+00
    -24.960  0.0000E+00  0.0000E+00  0.2424E+00  0.2424E+00
    -24.754  0.0000E+00  0.0000E+00  0.2424E+00  0.2424E+00
    -24.548  0.0000E+00  0.0000E+00  0.2424E+00  0.2424E+00
    -24.343  0.0000E+00  0.0000E+00  0.2424E+00  0.2424E+00
    -24.137  0.0000E+00  0.0000E+00  0.2424E+00  0.2424E+00
    -23.932  0.0000E+00  0.0000E+00  0.2424E+00  0.2424E+00
    -23.726  0.0000E+00  0.0000E+00  0.2424E+00  0.2424E+00
    -23.520  0.0000E+00  0.0000E+00  0.2424E+00  0.2424E+00
    -23.315  0.0000E+00  0.0000E+00  0.2424E+00  0.2424E+00
    -23.109  0.0000E+00  0.0000E+00  0.2424E+00  0.2424E+00
    -22.903  0.0000E+00  0.0000E+00  0.2424E+00  0.2424E+00
    -22.698  0.0000E+00  0.0000E+00  0.2424E+00  0.2424E+00
    -22.492  0.0000E+00  0.0000E+00  0.2424E+00  0.2424E+00
    -22.286  0.0000E+00  0.0000E+00  0.2424E+00  0.2424E+00
    -22.081  0.0000E+00  0.0000E+00  0.2424E+00  0.2424E+00
    -21.875  0.0000E+00  0.0000E+00  0.2424E+00  0.2424E+00
    -21.669  0.0000E+00  0.0000E+00  0.2424E+00  0.2424E+00
    -21.464  0.0000E+00  0.0000E+00  0.2424E+00  0.2424E+00
    -21.258  0.0000E+00  0.0000E+00  0.2424E+00  0.2424E+00
    -21.052  0.0000E+00  0.0000E+00  0.2424E+00  0.2424E+00
    -20.847  0.0000E+00  0.0000E+00  0.2424E+00  0.2424E+00
    -20.641  0.0000E+00  0.0000E+00  0.2424E+00  0.2424E+00
    -20.435  0.0000E+00  0.0000E+00  0.2424E+00  0.2424E+00
    -20.230  0.0000E+00  0.0000E+00  0.2424E+00  0.2424E+00
    -20.024  0.0000E+00  0.0000E+00  0.2424E+00  0.2424E+00
    -19.818  0.0000E+00  0.0000E+00  0.2424E+00  0.2424E+00
    -19.613  0.0000E+00  0.0000E+00  0.2424E+00  0.2424E+00
    -19.407  0.0000E+00  0.0000E+00  0.2424E+00  0.2424E+00
    -19.201  0.0000E+00  0.0000E+00  0.2424E+00  0.2424E+00
    -18.996  0.0000E+00  0.0000E+00  0.2424E+00  0.2424E+00
    -18.790  0.0000E+00  0.0000E+00  0.2424E+00  0.2424E+00
    -18.584  0.0000E+00  0.0000E+00  0.2424E+00  0.2424E+00
    -18.379  0.0000E+00  0.0000E+00  0.2424E+00  0.2424E+00
    -18.173  0.0000E+00  0.0000E+00  0.2424E+00  0.2424E+00
    -17.967  0.0000E+00  0.0000E+00  0.2424E+00  0.2424E+00
    -17.762  0.0000E+00  0.0000E+00  0.2424E+00  0.2424E+00
    -17.556  0.0000E+00  0.0000E+00  0.2424E+00  0.2424E+00
    -17.350  0.0000E+00  0.0000E+00  0.2424E+00  0.2424E+00
    -17.145  0.0000E+00  0.0000E+00  0.2424E+00  0.2424E+00
    -16.939  0.0000E+00  0.0000E+00  0.2424E+00  0.2424E+00
    -16.733  0.0000E+00  0.0000E+00  0.2424E+00  0.2424E+00
    -16.528  0.0000E+00  0.0000E+00  0.2424E+00  0.2424E+00
    -16.322  0.0000E+00  0.0000E+00  0.2424E+00  0.2424E+00
    -16.116  0.0000E+00  0.0000E+00  0.2424E+00  0.2424E+00
    -15.911  0.0000E+00  0.0000E+00  0.2424E+00  0.2424E+00
    -15.705  0.0000E+00  0.0000E+00  0.2424E+00  0.2424E+00
    -15.499  0.0000E+00  0.0000E+00  0.2424E+00  0.2424E+00
    -15.294  0.0000E+00  0.0000E+00  0.2424E+00  0.2424E+00
    -15.088  0.0000E+00  0.0000E+00  0.2424E+00  0.2424E+00
    -14.882  0.0000E+00  0.0000E+00  0.2424E+00  0.2424E+00
    -14.677  0.0000E+00  0.0000E+00  0.2424E+00  0.2424E+00
    -14.471  0.0000E+00  0.0000E+00  0.2424E+00  0.2424E+00
    -14.265  0.0000E+00  0.0000E+00  0.2424E+00  0.2424E+00
    -14.060  0.0000E+00  0.0000E+00  0.2424E+00  0.2424E+00
    -13.854  0.0000E+00  0.0000E+00  0.2424E+00  0.2424E+00
    -13.648  0.0000E+00  0.0000E+00  0.2424E+00  0.2424E+00
    -13.443  0.0000E+00  0.0000E+00  0.2424E+00  0.2424E+00
    -13.237  0.0000E+00  0.0000E+00  0.2424E+00  0.2424E+00
    -13.032  0.0000E+00  0.0000E+00  0.2424E+00  0.2424E+00
    -12.826  0.0000E+00  0.0000E+00  0.2424E+00  0.2424E+00
    -12.620  0.0000E+00  0.0000E+00  0.2424E+00  0.2424E+00
    -12.415  0.0000E+00  0.0000E+00  0.2424E+00  0.2424E+00
    -12.209  0.0000E+00  0.0000E+00  0.2424E+00  0.2424E+00
    -12.003  0.0000E+00  0.0000E+00  0.2424E+00  0.2424E+00
    -11.798  0.0000E+00  0.0000E+00  0.2424E+00  0.2424E+00
    -11.592  0.0000E+00  0.0000E+00  0.2424E+00  0.2424E+00
    -11.386  0.2359E-10  0.2359E-10  0.2424E+00  0.2424E+00
    -11.181  0.7772E-03  0.7772E-03  0.2426E+00  0.2426E+00
    -10.975  0.1418E-01  0.1418E-01  0.2455E+00  0.2455E+00
    -10.769  0.2197E-01  0.2197E-01  0.2500E+00  0.2500E+00
    -10.564  0.2626E-01  0.2626E-01  0.2554E+00  0.2554E+00
    -10.358  0.3698E-01  0.3698E-01  0.2630E+00  0.2630E+00
    -10.152  0.4236E-01  0.4236E-01  0.2717E+00  0.2717E+00
     -9.947  0.3087E-01  0.3087E-01  0.2781E+00  0.2781E+00
     -9.741  0.4726E-01  0.4726E-01  0.2878E+00  0.2878E+00
     -9.535  0.7959E-01  0.7959E-01  0.3042E+00  0.3042E+00
     -9.330  0.8750E-01  0.8750E-01  0.3222E+00  0.3222E+00
     -9.124  0.5181E-02  0.5181E-02  0.3232E+00  0.3232E+00
     -8.918  0.0000E+00  0.0000E+00  0.3232E+00  0.3232E+00
     -8.713  0.0000E+00  0.0000E+00  0.3232E+00  0.3232E+00
     -8.507  0.0000E+00  0.0000E+00  0.3232E+00  0.3232E+00
     -8.301  0.0000E+00  0.0000E+00  0.3232E+00  0.3232E+00
     -8.096  0.0000E+00  0.0000E+00  0.3232E+00  0.3232E+00
     -7.890  0.0000E+00  0.0000E+00  0.3232E+00  0.3232E+00
     -7.684  0.0000E+00  0.0000E+00  0.3232E+00  0.3232E+00
     -7.479  0.0000E+00  0.0000E+00  0.3232E+00  0.3232E+00
     -7.273  0.0000E+00  0.0000E+00  0.3232E+00  0.3232E+00
     -7.067  0.0000E+00  0.0000E+00  0.3232E+00  0.3232E+00
     -6.862  0.0000E+00  0.0000E+00  0.3232E+00  0.3232E+00
     -6.656  0.0000E+00  0.0000E+00  0.3232E+00  0.3232E+00
     -6.450  0.0000E+00  0.0000E+00  0.3232E+00  0.3232E+00
     -6.245  0.0000E+00  0.0000E+00  0.3232E+00  0.3232E+00
     -6.039  0.0000E+00  0.0000E+00  0.3232E+00  0.3232E+00
     -5.833  0.0000E+00  0.0000E+00  0.3232E+00  0.3232E+00
     -5.628  0.0000E+00  0.0000E+00  0.3232E+00  0.3232E+00
     -5.422  0.0000E+00  0.0000E+00  0.3232E+00  0.3232E+00
     -5.216  0.0000E+00  0.0000E+00  0.3232E+00  0.3232E+00
     -5.011  0.0000E+00  0.0000E+00  0.3232E+00  0.3232E+00
     -4.805  0.0000E+00  0.0000E+00  0.3232E+00  0.3232E+00
     -4.599  0.0000E+00  0.0000E+00  0.3232E+00  0.3232E+00
     -4.394  0.0000E+00  0.0000E+00  0.3232E+00  0.3232E+00
     -4.188  0.0000E+00  0.0000E+00  0.3232E+00  0.3232E+00
     -3.982  0.0000E+00  0.0000E+00  0.3232E+00  0.3232E+00
     -3.777  0.0000E+00  0.0000E+00  0.3232E+00  0.3232E+00
     -3.571  0.0000E+00  0.0000E+00  0.3232E+00  0.3232E+00
     -3.365  0.1530E-16  0.1530E-16  0.3232E+00  0.3232E+00
     -3.160  0.8058E-05  0.8058E-05  0.3232E+00  0.3232E+00
     -2.954  0.2057E-02  0.2057E-02  0.3237E+00  0.3237E+00
     -2.749  0.5836E-02  0.5836E-02  0.3249E+00  0.3249E+00
     -2.543  0.9178E-02  0.9178E-02  0.3267E+00  0.3267E+00
     -2.337  0.3351E-01  0.3351E-01  0.3336E+00  0.3336E+00
     -2.132  0.5341E-01  0.5341E-01  0.3446E+00  0.3446E+00
     -1.926  0.5528E-01  0.5528E-01  0.3560E+00  0.3560E+00
     -1.720  0.4488E-01  0.4488E-01  0.3652E+00  0.3652E+00
     -1.515  0.4760E-01  0.4760E-01  0.3750E+00  0.3750E+00
     -1.309  0.4220E-01  0.4220E-01  0.3837E+00  0.3837E+00
     -1.103  0.6713E-01  0.6713E-01  0.3975E+00  0.3975E+00
     -0.898  0.8074E-01  0.8074E-01  0.4141E+00  0.4141E+00
     -0.692  0.8363E-01  0.8363E-01  0.4313E+00  0.4313E+00
     -0.486  0.7122E-01  0.7122E-01  0.4459E+00  0.4459E+00
     -0.281  0.6476E-01  0.6476E-01  0.4593E+00  0.4593E+00
     -0.075  0.1331E+00  0.1331E+00  0.4866E+00  0.4866E+00
      0.131  0.8132E-01  0.8132E-01  0.5034E+00  0.5034E+00
      0.336  0.3655E-01  0.3655E-01  0.5109E+00  0.5109E+00
      0.542  0.7400E-01  0.7400E-01  0.5261E+00  0.5261E+00
      0.748  0.5815E-01  0.5815E-01  0.5381E+00  0.5381E+00
      0.953  0.1287E+00  0.1287E+00  0.5645E+00  0.5645E+00
      1.159  0.1292E+00  0.1292E+00  0.5911E+00  0.5911E+00
      1.365  0.6526E-01  0.6526E-01  0.6045E+00  0.6045E+00
      1.570  0.7547E-01  0.7547E-01  0.6201E+00  0.6201E+00
      1.776  0.6659E-01  0.6659E-01  0.6337E+00  0.6337E+00
      1.982  0.7223E-01  0.7223E-01  0.6486E+00  0.6486E+00
      2.187  0.9682E-01  0.9682E-01  0.6685E+00  0.6685E+00
      2.393  0.8729E-01  0.8729E-01  0.6865E+00  0.6865E+00
      2.599  0.1100E+00  0.1100E+00  0.7091E+00  0.7091E+00
      2.804  0.1213E+00  0.1213E+00  0.7340E+00  0.7340E+00
      3.010  0.1376E+00  0.1376E+00  0.7623E+00  0.7623E+00
      3.216  0.1126E+00  0.1126E+00  0.7855E+00  0.7855E+00
      3.421  0.7519E-01  0.7519E-01  0.8010E+00  0.8010E+00
      3.627  0.1056E+00  0.1056E+00  0.8227E+00  0.8227E+00
      3.833  0.1135E+00  0.1135E+00  0.8460E+00  0.8460E+00
      4.038  0.6459E-01  0.6459E-01  0.8593E+00  0.8593E+00
      4.244  0.5506E-01  0.5506E-01  0.8706E+00  0.8706E+00
      4.450  0.5274E-01  0.5274E-01  0.8815E+00  0.8815E+00
      4.655  0.1033E+00  0.1033E+00  0.9027E+00  0.9027E+00
      4.861  0.9704E-01  0.9704E-01  0.9227E+00  0.9227E+00
      5.067  0.3498E-01  0.3498E-01  0.9299E+00  0.9299E+00
      5.272  0.2270E-01  0.2270E-01  0.9345E+00  0.9345E+00
      5.478  0.5678E-01  0.5678E-01  0.9462E+00  0.9462E+00
      5.684  0.7077E-01  0.7077E-01  0.9608E+00  0.9608E+00
      5.889  0.2848E-01  0.2848E-01  0.9666E+00  0.9666E+00
      6.095  0.1369E-01  0.1368E-01  0.9694E+00  0.9694E+00
      6.301  0.1247E-02  0.1247E-02  0.9697E+00  0.9697E+00
      6.506  0.2472E-07  0.2537E-07  0.9697E+00  0.9697E+00
      6.712  0.0000E+00  0.0000E+00  0.9697E+00  0.9697E+00
      6.918  0.0000E+00  0.0000E+00  0.9697E+00  0.9697E+00
      7.123  0.0000E+00  0.0000E+00  0.9697E+00  0.9697E+00
      7.329  0.0000E+00  0.0000E+00  0.9697E+00  0.9697E+00
      7.535  0.0000E+00  0.0000E+00  0.9697E+00  0.9697E+00
      7.740  0.0000E+00  0.0000E+00  0.9697E+00  0.9697E+00
      7.946  0.0000E+00  0.0000E+00  0.9697E+00  0.9697E+00
      8.151  0.0000E+00  0.0000E+00  0.9697E+00  0.9697E+00
      8.357  0.0000E+00  0.0000E+00  0.9697E+00  0.9697E+00
      8.563  0.0000E+00  0.0000E+00  0.9697E+00  0.9697E+00
      8.768  0.0000E+00  0.0000E+00  0.9697E+00  0.9697E+00
      8.974  0.0000E+00  0.0000E+00  0.9697E+00  0.9697E+00
      8.97413218    -52.72394995  301      3.52104267      1.00000000
    -52.724  0.0000E+00  0.0000E+00  0.0000E+00  0.0000E+00  0.0000E+00  0.0000E+00  0.0000E+00  0.0000E+00  0.0000E+00  0.0000E+00  0.0000E+00  0.0000E+00  0.0000E+00  0.0000E+00  0.0000E+00  0.0000E+00  0.0000E+00  0.0000E+00
    -52.518  0.0000E+00  0.0000E+00  0.0000E+00  0.0000E+00  0.0000E+00  0.0000E+00  0.0000E+00  0.0000E+00  0.0000E+00  0.0000E+00  0.0000E+00  0.0000E+00  0.0000E+00  0.0000E+00  0.0000E+00  0.0000E+00  0.0000E+00  0.0000E+00
    -52.313  0.0000E+00  0.0000E+00  0.0000E+00  0.0000E+00  0.0000E+00  0.0000E+00  0.0000E+00  0.0000E+00  0.0000E+00  0.0000E+00  0.0000E+00  0.0000E+00  0.0000E+00  0.0000E+00  0.0000E+00  0.0000E+00  0.0000E+00  0.0000E+00
    -52.107  0.0000E+00  0.0000E+00  0.0000E+00  0.0000E+00  0.0000E+00  0.0000E+00  0.0000E+00  0.0000E+00  0.0000E+00  0.0000E+00  0.0000E+00  0.0000E+00  0.0000E+00  0.0000E+00  0.0000E+00  0.0000E+00  0.0000E+00  0.0000E+00
    -51.901  0.0000E+00  0.0000E+00  0.0000E+00  0.0000E+00  0.0000E+00  0.0000E+00  0.0000E+00  0.0000E+00  0.0000E+00  0.0000E+00  0.0000E+00  0.0000E+00  0.0000E+00  0.0000E+00  0.0000E+00  0.0000E+00  0.0000E+00  0.0000E+00
    -51.696  0.0000E+00  0.0000E+00  0.0000E+00  0.0000E+00  0.0000E+00  0.0000E+00  0.0000E+00  0.0000E+00  0.0000E+00  0.0000E+00  0.0000E+00  0.0000E+00  0.0000E+00  0.0000E+00  0.0000E+00  0.0000E+00  0.0000E+00  0.0000E+00
    -51.490  0.0000E+00  0.0000E+00  0.0000E+00  0.0000E+00  0.0000E+00  0.0000E+00  0.0000E+00  0.0000E+00  0.0000E+00  0.0000E+00  0.0000E+00  0.0000E+00  0.0000E+00  0.0000E+00  0.0000E+00  0.0000E+00  0.0000E+00  0.0000E+00
    -51.284  0.0000E+00  0.0000E+00  0.0000E+00  0.0000E+00  0.0000E+00  0.0000E+00  0.0000E+00  0.0000E+00  0.0000E+00  0.0000E+00  0.0000E+00  0.0000E+00  0.0000E+00  0.0000E+00  0.0000E+00  0.0000E+00  0.0000E+00  0.0000E+00
    -51.079  0.0000E+00  0.0000E+00  0.0000E+00  0.0000E+00  0.0000E+00  0.0000E+00  0.0000E+00  0.0000E+00  0.0000E+00  0.0000E+00  0.0000E+00  0.0000E+00  0.0000E+00  0.0000E+00  0.0000E+00  0.0000E+00  0.0000E+00  0.0000E+00
    -50.873  0.0000E+00  0.0000E+00  0.0000E+00  0.0000E+00  0.0000E+00  0.0000E+00  0.0000E+00  0.0000E+00  0.0000E+00  0.0000E+00  0.0000E+00  0.0000E+00  0.0000E+00  0.0000E+00  0.0000E+00  0.0000E+00  0.0000E+00  0.0000E+00
    -50.667  0.0000E+00  0.0000E+00  0.0000E+00  0.0000E+00  0.0000E+00  0.0000E+00  0.0000E+00  0.0000E+00  0.0000E+00  0.0000E+00  0.0000E+00  0.0000E+00  0.0000E+00  0.0000E+00  0.0000E+00  0.0000E+00  0.0000E+00  0.0000E+00
    -50.462  0.0000E+00  0.0000E+00  0.0000E+00  0.0000E+00  0.0000E+00  0.0000E+00  0.0000E+00  0.0000E+00  0.0000E+00  0.0000E+00  0.0000E+00  0.0000E+00  0.0000E+00  0.0000E+00  0.0000E+00  0.0000E+00  0.0000E+00  0.0000E+00
    -50.256  0.0000E+00  0.0000E+00  0.0000E+00  0.0000E+00  0.0000E+00  0.0000E+00  0.0000E+00  0.0000E+00  0.0000E+00  0.0000E+00  0.0000E+00  0.0000E+00  0.0000E+00  0.0000E+00  0.0000E+00  0.0000E+00  0.0000E+00  0.0000E+00
    -50.050  0.1500E-07  0.1195E-08  0.5010E-05  0.2312E-05  0.1175E-05  0.5194E-07  0.2333E-04  0.9357E-06  0.2654E-09  0.7789E-10  0.8476E-11  0.2613E-11  0.6716E-08  0.6557E-09  0.2827E-08  0.3741E-10  0.9077E-08  0.5996E-09
    -49.845  0.3530E-03  0.2823E-03  0.4367E+00  0.4516E+00  0.2253E-01  0.1498E-01  0.4477E+00  0.2916E+00  0.6286E-05  0.4685E-05  0.2036E-06  0.1320E-06  0.1698E-03  0.1467E-03  0.5702E-04  0.2296E-04  0.4988E-03  0.3417E-03
    -49.639  0.5038E-04  0.1050E-03  0.1859E+00  0.9071E-01  0.1611E-02  0.1769E-01  0.3035E-01  0.3631E+00  0.9230E-06  0.2098E-05  0.3067E-07  0.1241E-06  0.2883E-04  0.4777E-04  0.3467E-05  0.3335E-04  0.1579E-03  0.3018E-03
    -49.433  0.7638E-04  0.7517E-04  0.1874E+01  0.1705E+01  0.1885E+01  0.1542E+01  0.1839E+01  0.1800E+01  0.5445E-05  0.3888E-05  0.9604E-05  0.1247E-05  0.1752E-04  0.1721E-04  0.6716E-05  0.8845E-05  0.5467E-04  0.5869E-04
    -49.228  0.9289E-04  0.1025E-03  0.1714E+01  0.1846E+01  0.2906E+01  0.3240E+01  0.1923E+01  0.1727E+01  0.3839E-04  0.3539E-04  0.1488E-04  0.2296E-04  0.3316E-04  0.3568E-04  0.2432E-04  0.2434E-04  0.6132E-04  0.6242E-04
    -49.022  0.1826E-04  0.2766E-04  0.6326E+00  0.7496E+00  0.2751E-01  0.2780E-01  0.6032E+00  0.6608E+00  0.4962E-05  0.1011E-04  0.1885E-06  0.4482E-06  0.7338E-05  0.1004E-04  0.2026E-05  0.4632E-05  0.4100E-04  0.5157E-04
    -48.816  0.2855E-10  0.6982E-10  0.3022E-05  0.6839E-05  0.1104E-06  0.2792E-06  0.2465E-05  0.6662E-05  0.7662E-11  0.3166E-10  0.2735E-12  0.2005E-11  0.1186E-10  0.2374E-10  0.5381E-11  0.3693E-10  0.1146E-09  0.5606E-09
    -48.611  0.0000E+00  0.0000E+00  0.0000E+00  0.0000E+00  0.0000E+00  0.0000E+00  0.0000E+00  0.0000E+00  0.0000E+00  0.0000E+00  0.0000E+00  0.0000E+00  0.0000E+00  0.0000E+00  0.0000E+00  0.0000E+00  0.0000E+00  0.0000E+00
    -48.405  0.0000E+00  0.0000E+00  0.0000E+00  0.0000E+00  0.0000E+00  0.0000E+00  0.0000E+00  0.0000E+00  0.0000E+00  0.0000E+00  0.0000E+00  0.0000E+00  0.0000E+00  0.0000E+00  0.0000E+00  0.0000E+00  0.0000E+00  0.0000E+00
    -48.199  0.0000E+00  0.0000E+00  0.0000E+00  0.0000E+00  0.0000E+00  0.0000E+00  0.0000E+00  0.0000E+00  0.0000E+00  0.0000E+00  0.0000E+00  0.0000E+00  0.0000E+00  0.0000E+00  0.0000E+00  0.0000E+00  0.0000E+00  0.0000E+00
    -47.994  0.0000E+00  0.0000E+00  0.0000E+00  0.0000E+00  0.0000E+00  0.0000E+00  0.0000E+00  0.0000E+00  0.0000E+00  0.0000E+00  0.0000E+00  0.0000E+00  0.0000E+00  0.0000E+00  0.0000E+00  0.0000E+00  0.0000E+00  0.0000E+00
    -47.788  0.0000E+00  0.0000E+00  0.0000E+00  0.0000E+00  0.0000E+00  0.0000E+00  0.0000E+00  0.0000E+00  0.0000E+00  0.0000E+00  0.0000E+00  0.0000E+00  0.0000E+00  0.0000E+00  0.0000E+00  0.0000E+00  0.0000E+00  0.0000E+00
    -47.582  0.0000E+00  0.0000E+00  0.0000E+00  0.0000E+00  0.0000E+00  0.0000E+00  0.0000E+00  0.0000E+00  0.0000E+00  0.0000E+00  0.0000E+00  0.0000E+00  0.0000E+00  0.0000E+00  0.0000E+00  0.0000E+00  0.0000E+00  0.0000E+00
    -47.377  0.0000E+00  0.0000E+00  0.0000E+00  0.0000E+00  0.0000E+00  0.0000E+00  0.0000E+00  0.0000E+00  0.0000E+00  0.0000E+00  0.0000E+00  0.0000E+00  0.0000E+00  0.0000E+00  0.0000E+00  0.0000E+00  0.0000E+00  0.0000E+00
    -47.171  0.0000E+00  0.0000E+00  0.0000E+00  0.0000E+00  0.0000E+00  0.0000E+00  0.0000E+00  0.0000E+00  0.0000E+00  0.0000E+00  0.0000E+00  0.0000E+00  0.0000E+00  0.0000E+00  0.0000E+00  0.0000E+00  0.0000E+00  0.0000E+00
    -46.965  0.0000E+00  0.0000E+00  0.0000E+00  0.0000E+00  0.0000E+00  0.0000E+00  0.0000E+00  0.0000E+00  0.0000E+00  0.0000E+00  0.0000E+00  0.0000E+00  0.0000E+00  0.0000E+00  0.0000E+00  0.0000E+00  0.0000E+00  0.0000E+00
    -46.760  0.0000E+00  0.0000E+00  0.0000E+00  0.0000E+00  0.0000E+00  0.0000E+00  0.0000E+00  0.0000E+00  0.0000E+00  0.0000E+00  0.0000E+00  0.0000E+00  0.0000E+00  0.0000E+00  0.0000E+00  0.0000E+00  0.0000E+00  0.0000E+00
    -46.554  0.0000E+00  0.0000E+00  0.0000E+00  0.0000E+00  0.0000E+00  0.0000E+00  0.0000E+00  0.0000E+00  0.0000E+00  0.0000E+00  0.0000E+00  0.0000E+00  0.0000E+00  0.0000E+00  0.0000E+00  0.0000E+00  0.0000E+00  0.0000E+00
    -46.348  0.0000E+00  0.0000E+00  0.0000E+00  0.0000E+00  0.0000E+00  0.0000E+00  0.0000E+00  0.0000E+00  0.0000E+00  0.0000E+00  0.0000E+00  0.0000E+00  0.0000E+00  0.0000E+00  0.0000E+00  0.0000E+00  0.0000E+00  0.0000E+00
    -46.143  0.0000E+00  0.0000E+00  0.0000E+00  0.0000E+00  0.0000E+00  0.0000E+00  0.0000E+00  0.0000E+00  0.0000E+00  0.0000E+00  0.0000E+00  0.0000E+00  0.0000E+00  0.0000E+00  0.0000E+00  0.0000E+00  0.0000E+00  0.0000E+00
    -45.937  0.0000E+00  0.0000E+00  0.0000E+00  0.0000E+00  0.0000E+00  0.0000E+00  0.0000E+00  0.0000E+00  0.0000E+00  0.0000E+00  0.0000E+00  0.0000E+00  0.0000E+00  0.0000E+00  0.0000E+00  0.0000E+00  0.0000E+00  0.0000E+00
    -45.732  0.0000E+00  0.0000E+00  0.0000E+00  0.0000E+00  0.0000E+00  0.0000E+00  0.0000E+00  0.0000E+00  0.0000E+00  0.0000E+00  0.0000E+00  0.0000E+00  0.0000E+00  0.0000E+00  0.0000E+00  0.0000E+00  0.0000E+00  0.0000E+00
    -45.526  0.0000E+00  0.0000E+00  0.0000E+00  0.0000E+00  0.0000E+00  0.0000E+00  0.0000E+00  0.0000E+00  0.0000E+00  0.0000E+00  0.0000E+00  0.0000E+00  0.0000E+00  0.0000E+00  0.0000E+00  0.0000E+00  0.0000E+00  0.0000E+00
    -45.320  0.0000E+00  0.0000E+00  0.0000E+00  0.0000E+00  0.0000E+00  0.0000E+00  0.0000E+00  0.0000E+00  0.0000E+00  0.0000E+00  0.0000E+00  0.0000E+00  0.0000E+00  0.0000E+00  0.0000E+00  0.0000E+00  0.0000E+00  0.0000E+00
    -45.115  0.0000E+00  0.0000E+00  0.0000E+00  0.0000E+00  0.0000E+00  0.0000E+00  0.0000E+00  0.0000E+00  0.0000E+00  0.0000E+00  0.0000E+00  0.0000E+00  0.0000E+00  0.0000E+00  0.0000E+00  0.0000E+00  0.0000E+00  0.0000E+00
    -44.909  0.0000E+00  0.0000E+00  0.0000E+00  0.0000E+00  0.0000E+00  0.0000E+00  0.0000E+00  0.0000E+00  0.0000E+00  0.0000E+00  0.0000E+00  0.0000E+00  0.0000E+00  0.0000E+00  0.0000E+00  0.0000E+00  0.0000E+00  0.0000E+00
    -44.703  0.0000E+00  0.0000E+00  0.0000E+00  0.0000E+00  0.0000E+00  0.0000E+00  0.0000E+00  0.0000E+00  0.0000E+00  0.0000E+00  0.0000E+00  0.0000E+00  0.0000E+00  0.0000E+00  0.0000E+00  0.0000E+00  0.0000E+00  0.0000E+00
    -44.498  0.0000E+00  0.0000E+00  0.0000E+00  0.0000E+00  0.0000E+00  0.0000E+00  0.0000E+00  0.0000E+00  0.0000E+00  0.0000E+00  0.0000E+00  0.0000E+00  0.0000E+00  0.0000E+00  0.0000E+00  0.0000E+00  0.0000E+00  0.0000E+00
    -44.292  0.0000E+00  0.0000E+00  0.0000E+00  0.0000E+00  0.0000E+00  0.0000E+00  0.0000E+00  0.0000E+00  0.0000E+00  0.0000E+00  0.0000E+00  0.0000E+00  0.0000E+00  0.0000E+00  0.0000E+00  0.0000E+00  0.0000E+00  0.0000E+00
    -44.086  0.0000E+00  0.0000E+00  0.0000E+00  0.0000E+00  0.0000E+00  0.0000E+00  0.0000E+00  0.0000E+00  0.0000E+00  0.0000E+00  0.0000E+00  0.0000E+00  0.0000E+00  0.0000E+00  0.0000E+00  0.0000E+00  0.0000E+00  0.0000E+00
    -43.881  0.0000E+00  0.0000E+00  0.0000E+00  0.0000E+00  0.0000E+00  0.0000E+00  0.0000E+00  0.0000E+00  0.0000E+00  0.0000E+00  0.0000E+00  0.0000E+00  0.0000E+00  0.0000E+00  0.0000E+00  0.0000E+00  0.0000E+00  0.0000E+00
    -43.675  0.0000E+00  0.0000E+00  0.0000E+00  0.0000E+00  0.0000E+00  0.0000E+00  0.0000E+00  0.0000E+00  0.0000E+00  0.0000E+00  0.0000E+00  0.0000E+00  0.0000E+00  0.0000E+00  0.0000E+00  0.0000E+00  0.0000E+00  0.0000E+00
    -43.469  0.0000E+00  0.0000E+00  0.0000E+00  0.0000E+00  0.0000E+00  0.0000E+00  0.0000E+00  0.0000E+00  0.0000E+00  0.0000E+00  0.0000E+00  0.0000E+00  0.0000E+00  0.0000E+00  0.0000E+00  0.0000E+00  0.0000E+00  0.0000E+00
    -43.264  0.0000E+00  0.0000E+00  0.0000E+00  0.0000E+00  0.0000E+00  0.0000E+00  0.0000E+00  0.0000E+00  0.0000E+00  0.0000E+00  0.0000E+00  0.0000E+00  0.0000E+00  0.0000E+00  0.0000E+00  0.0000E+00  0.0000E+00  0.0000E+00
    -43.058  0.0000E+00  0.0000E+00  0.0000E+00  0.0000E+00  0.0000E+00  0.0000E+00  0.0000E+00  0.0000E+00  0.0000E+00  0.0000E+00  0.0000E+00  0.0000E+00  0.0000E+00  0.0000E+00  0.0000E+00  0.0000E+00  0.0000E+00  0.0000E+00
    -42.852  0.0000E+00  0.0000E+00  0.0000E+00  0.0000E+00  0.0000E+00  0.0000E+00  0.0000E+00  0.0000E+00  0.0000E+00  0.0000E+00  0.0000E+00  0.0000E+00  0.0000E+00  0.0000E+00  0.0000E+00  0.0000E+00  0.0000E+00  0.0000E+00
    -42.647  0.0000E+00  0.0000E+00  0.0000E+00  0.0000E+00  0.0000E+00  0.0000E+00  0.0000E+00  0.0000E+00  0.0000E+00  0.0000E+00  0.0000E+00  0.0000E+00  0.0000E+00  0.0000E+00  0.0000E+00  0.0000E+00  0.0000E+00  0.0000E+00
    -42.441  0.0000E+00  0.0000E+00  0.0000E+00  0.0000E+00  0.0000E+00  0.0000E+00  0.0000E+00  0.0000E+00  0.0000E+00  0.0000E+00  0.0000E+00  0.0000E+00  0.0000E+00  0.0000E+00  0.0000E+00  0.0000E+00  0.0000E+00  0.0000E+00