 running   24 mpi-ranks, on    1 nodes
 distrk:  each k-point on   24 cores,    1 groups
 distr:  one band on    1 cores,   24 groups
 vasp.6.4.1 05Apr23 (build Jun 01 2023 13:46:15) complex                        
  
 POSCAR found type information on POSCAR FeSe
 POSCAR found :  2 types and      16 ions
 Reading from existing POTCAR
 scaLAPACK will be used
 -----------------------------------------------------------------------------
|                                                                             |
|           W    W    AA    RRRRR   N    N  II  N    N   GGGG   !!!           |
|           W    W   A  A   R    R  NN   N  II  NN   N  G    G  !!!           |
|           W    W  A    A  R    R  N N  N  II  N N  N  G       !!!           |
|           W WW W  AAAAAA  RRRRR   N  N N  II  N  N N  G  GGG   !            |
|           WW  WW  A    A  R   R   N   NN  II  N   NN  G    G                |
|           W    W  A    A  R    R  N    N  II  N    N   GGGG   !!!           |
|                                                                             |
|     For optimal performance we recommend to set                             |
|       NCORE = 2 up to number-of-cores-per-socket                            |
|     NCORE specifies how many cores store one orbital (NPAR=cpu/NCORE).      |
|     This setting can greatly improve the performance of VASP for DFT.       |
|     The default, NCORE=1 might be grossly inefficient on modern             |
|     multi-core architectures or massively parallel machines. Do your        |
|     own testing! More info at https://www.vasp.at/wiki/index.php/NCORE      |
|     Unfortunately you need to use the default for GW and RPA                |
|     calculations (for HF NCORE is supported but not extensively tested      |
|     yet).                                                                   |
|                                                                             |
 -----------------------------------------------------------------------------

 Reading from existing POTCAR
 LDA part: xc-table for Pade appr. of Perdew
 POSCAR, INCAR and KPOINTS ok, starting setup
 FFT: planning ... GRIDC
 FFT: planning ... GRID_SOFT
 FFT: planning ... GRID
 WAVECAR not read
 WARNING: random wavefunctions but no delay for mixing, default for NELMDL
 entering main loop
       N       E                     dE             d eps       ncg     rms          rms(c)
DAV:   1     0.196203656808E+04    0.19620E+04   -0.90518E+04 92280   0.205E+03
DAV:   2     0.938597213053E+02   -0.18682E+04   -0.18353E+04 84936   0.585E+02
DAV:   3    -0.942267269715E+02   -0.18809E+03   -0.18189E+03124728   0.184E+02
DAV:   4    -0.104999629713E+03   -0.10773E+02   -0.10712E+02121056   0.456E+01
DAV:   5    -0.105300294093E+03   -0.30066E+00   -0.30019E+00113376   0.718E+00    0.259E+01
RMM:   6    -0.112626199802E+03   -0.73259E+01   -0.13526E+02 84875   0.815E+01    0.384E+01
RMM:   7    -0.965451570471E+02    0.16081E+02   -0.36591E+01 85023   0.475E+01    0.113E+01
RMM:   8    -0.996557148273E+02   -0.31106E+01   -0.77357E+00 95284   0.140E+01    0.273E+01
RMM:   9    -0.959844173444E+02    0.36713E+01   -0.54435E+00 91412   0.130E+01    0.201E+00
RMM:  10    -0.964411418726E+02   -0.45672E+00   -0.21293E+00122586   0.446E+00    0.928E+00
RMM:  11    -0.961880907337E+02    0.25305E+00   -0.35560E-01104778   0.256E+00    0.254E+00
RMM:  12    -0.962067125118E+02   -0.18622E-01   -0.12463E-01127735   0.902E-01    0.278E+00
RMM:  13    -0.961478599191E+02    0.58853E-01   -0.57549E-02 94425   0.116E+00    0.124E+00
RMM:  14    -0.961574127422E+02   -0.95528E-02   -0.26479E-01122171   0.240E+00    0.997E-01
RMM:  15    -0.961512108747E+02    0.62019E-02   -0.88788E-02102795   0.177E+00    0.912E-01
RMM:  16    -0.961496550786E+02    0.15558E-02   -0.94263E-03105772   0.352E-01    0.795E-01
RMM:  17    -0.961454183262E+02    0.42368E-02   -0.61227E-03 87787   0.360E-01    0.459E-01
RMM:  18    -0.961455148192E+02   -0.96493E-04   -0.23686E-03 78347   0.277E-01    0.192E-01
RMM:  19    -0.961453362442E+02    0.17858E-03   -0.14908E-03 76481   0.201E-01
   1 F= -.10152633E+03 E0= -.10151171E+03  d E =-.101526E+03  mag=    -0.0000
 curvature:   0.00 expect dE= 0.000E+00 dE for cont linesearch  0.000E+00
 trial: gam= 0.00000 g(F)=  0.337E-03 g(S)=  0.436E-03 ort = 0.000E+00 (trialstep = 0.100E+01)
 search vector abs. value=  0.773E-03
 bond charge predicted
       N       E                     dE             d eps       ncg     rms          rms(c)
DAV:   1    -0.961478842866E+02   -0.23695E-02   -0.77868E-02109560   0.178E+00    0.422E-01
RMM:   2    -0.961464035991E+02    0.14807E-02   -0.77626E-03118131   0.581E-01    0.253E-01
RMM:   3    -0.961524740536E+02   -0.60705E-02   -0.63451E-03 85132   0.554E-01    0.139E+00
RMM:   4    -0.961468341729E+02    0.56399E-02   -0.30447E-03 78599   0.401E-01    0.404E-01
RMM:   5    -0.961467824493E+02    0.51724E-04   -0.11947E-03 66829   0.229E-01
   2 F= -.10152808E+03 E0= -.10151361E+03  d E =-.174768E-02  mag=     0.0000
 ZBRENT: can't locate minimum, use default step
 trial-energy change:   -0.001748  1 .order   -0.001133   -0.000773   -0.001492
 step:   4.0000(harm=  4.0000)  dis= 0.00508  next Energy=  -101.535180 (dE=-0.885E-02)
 bond charge predicted
       N       E                     dE             d eps       ncg     rms          rms(c)
DAV:   1    -0.961654329932E+02   -0.18599E-01   -0.67298E-01 97776   0.533E+00    0.132E+00
RMM:   2    -0.961557859957E+02    0.96470E-02   -0.76744E-02110879   0.193E+00    0.116E+00
RMM:   3    -0.962052445607E+02   -0.49459E-01   -0.58575E-02 95976   0.164E+00    0.408E+00
RMM:   4    -0.961653590193E+02    0.39886E-01   -0.24660E-02 92173   0.108E+00    0.166E+00
RMM:   5    -0.961677606933E+02   -0.24017E-02   -0.84440E-03112943   0.353E-01    0.172E+00
RMM:   6    -0.961655155005E+02    0.22452E-02   -0.38494E-03 85618   0.343E-01    0.164E+00
RMM:   7    -0.961468653546E+02    0.18650E-01   -0.19984E-02125364   0.639E-01    0.316E-01
RMM:   8    -0.961471752069E+02   -0.30985E-03   -0.34034E-03 89919   0.316E-01    0.129E-01
RMM:   9    -0.961470596686E+02    0.11554E-03   -0.15658E-03 77742   0.178E-01
   3 F= -.10152925E+03 E0= -.10151502E+03  d E =-.291789E-02  mag=     0.0000
 curvature:  -2.68 expect dE=-0.394E-02 dE for cont linesearch -0.266E-02
 ZBRENT: increasing intervall
 opt :  10.0000  next Energy=  -101.530811 (dE=-0.448E-02)
 bond charge predicted
       N       E                     dE             d eps       ncg     rms          rms(c)
DAV:   1    -0.962124344222E+02   -0.65259E-01   -0.26720E+00 95472   0.106E+01    0.250E+00
RMM:   2    -0.961655159742E+02    0.46918E-01   -0.28978E-01112060   0.376E+00    0.174E+00
RMM:   3    -0.963573016351E+02   -0.19179E+00   -0.24850E-01 94256   0.340E+00    0.816E+00
RMM:   4    -0.961717785520E+02    0.18552E+00   -0.12343E-01 93502   0.238E+00    0.233E+00
RMM:   5    -0.961831466205E+02   -0.11368E-01   -0.70883E-02 90256   0.162E+00    0.280E+00
RMM:   6    -0.961481329095E+02    0.35014E-01   -0.28099E-02 88916   0.117E+00    0.572E-01
RMM:   7    -0.961502557556E+02   -0.21228E-02   -0.98399E-03106692   0.302E-01    0.694E-01
RMM:   8    -0.961478667891E+02    0.23890E-02   -0.94103E-03108099   0.401E-01    0.429E-01
RMM:   9    -0.961460091934E+02    0.18576E-02   -0.14685E-03 71462   0.222E-01    0.197E-01
RMM:  10    -0.961456504762E+02    0.35872E-03   -0.28811E-03 92154   0.168E-01    0.159E-01
RMM:  11    -0.961457557346E+02   -0.10526E-03   -0.29526E-04 49040   0.972E-02
   4 F= -.10152970E+03 E0= -.10151581E+03  d E =-.336641E-02  mag=     0.0000
 curvature:  -1.57 expect dE=-0.873E-02 dE for cont linesearch -0.218E-03
 trial: gam= 0.00000 g(F)=  0.282E-02 g(S)=  0.274E-02 ort =-0.327E-03 (trialstep = 0.389E+00)
 search vector abs. value=  0.556E-02
 bond charge predicted
       N       E                     dE             d eps       ncg     rms          rms(c)
DAV:   1    -0.961470463856E+02   -0.13959E-02   -0.81631E-02 98448   0.372E+00    0.393E-01
RMM:   2    -0.961479768067E+02   -0.93042E-03   -0.24864E-02125080   0.982E-01    0.349E-01
RMM:   3    -0.961533561166E+02   -0.53793E-02   -0.82622E-03 99686   0.622E-01    0.129E+00
RMM:   4    -0.961490597371E+02    0.42964E-02   -0.30648E-03 83168   0.384E-01    0.460E-01
RMM:   5    -0.961493627437E+02   -0.30301E-03   -0.10058E-03 83132   0.138E-01    0.505E-01
RMM:   6    -0.961493840841E+02   -0.21340E-04   -0.88722E-04 62171   0.165E-01
   5 F= -.10153297E+03 E0= -.10151945E+03  d E =-.327331E-02  mag=     0.0000
 ZBRENT: can't locate minimum, use default step
 trial-energy change:   -0.003273  1 .order   -0.002305   -0.002164   -0.002445
 step:   1.5577(harm=  1.5577)  dis= 0.00568  next Energy=  -101.540602 (dE=-0.109E-01)
 bond charge predicted
       N       E                     dE             d eps       ncg     rms          rms(c)
DAV:   1    -0.961472617912E+02    0.21010E-02   -0.74556E-01 90384   0.111E+01    0.123E+00
RMM:   2    -0.961561832692E+02   -0.89215E-02   -0.24535E-01124374   0.313E+00    0.128E+00
RMM:   3    -0.961907787341E+02   -0.34595E-01   -0.92917E-02 97016   0.210E+00    0.322E+00
RMM:   4    -0.961628629944E+02    0.27916E-01   -0.37124E-02 96182   0.129E+00    0.173E+00
RMM:   5    -0.961592138085E+02    0.36492E-02   -0.16033E-02 90775   0.811E-01    0.127E+00
RMM:   6    -0.961588038751E+02    0.40993E-03   -0.61601E-03 86976   0.491E-01    0.110E+00
RMM:   7    -0.961497053271E+02    0.90985E-02   -0.43966E-03 79696   0.399E-01    0.295E-01
RMM:   8    -0.961508343060E+02   -0.11290E-02   -0.24542E-03 87375   0.198E-01    0.426E-01
RMM:   9    -0.961497709136E+02    0.10634E-02   -0.65921E-04 58499   0.143E-01    0.240E-01
RMM:  10    -0.961492323488E+02    0.53856E-03   -0.14578E-03 77929   0.176E-01    0.841E-02
RMM:  11    -0.961493770504E+02   -0.14470E-03   -0.21551E-04 48701   0.882E-02
   6 F= -.10153190E+03 E0= -.10151788E+03  d E =-.219692E-02  mag=    -0.0000
 curvature:  -1.21 expect dE=-0.265E-02 dE for cont linesearch -0.109E-02
 trial: gam= 0.00000 g(F)=  0.101E-02 g(S)=  0.118E-02 ort =-0.224E-02 (trialstep = 0.623E+00)
 search vector abs. value=  0.219E-02
 bond charge predicted
       N       E                     dE             d eps       ncg     rms          rms(c)
DAV:   1    -0.961479802268E+02    0.12521E-02   -0.98698E-02 85344   0.496E+00    0.437E-01
RMM:   2    -0.961532659881E+02   -0.52858E-02   -0.44076E-02118561   0.132E+00    0.931E-01
RMM:   3    -0.961513269732E+02    0.19390E-02   -0.12574E-02 99107   0.788E-01    0.507E-01
RMM:   4    -0.961506427773E+02    0.68420E-03   -0.36272E-03 94944   0.382E-01    0.302E-01
RMM:   5    -0.961508611470E+02   -0.21837E-03   -0.14412E-03 74993   0.220E-01    0.394E-01
RMM:   6    -0.961505000575E+02    0.36109E-03   -0.47878E-04 57842   0.153E-01    0.210E-01
RMM:   7    -0.961503261329E+02    0.17392E-03   -0.18548E-04 47826   0.708E-02
   7 F= -.10153302E+03 E0= -.10151917E+03  d E =-.112512E-02  mag=     0.0000
 trial-energy change:   -0.001125  1 .order   -0.001160   -0.001363   -0.000957
 step:   2.0907(harm=  2.0907)  dis= 0.00364  next Energy=  -101.534184 (dE=-0.229E-02)
 bond charge predicted
       N       E                     dE             d eps       ncg     rms          rms(c)
DAV:   1    -0.961363847451E+02    0.14115E-01   -0.53776E-01 84864   0.117E+01    0.103E+00
RMM:   2    -0.961669791704E+02   -0.30594E-01   -0.24635E-01118582   0.311E+00    0.225E+00
RMM:   3    -0.961546926302E+02    0.12287E-01   -0.71085E-02 99650   0.187E+00    0.117E+00
RMM:   4    -0.961520005535E+02    0.26921E-02   -0.20795E-02102669   0.907E-01    0.861E-01
RMM:   5    -0.961522244098E+02   -0.22386E-03   -0.83628E-03 99207   0.515E-01    0.878E-01
RMM:   6    -0.961507341617E+02    0.14902E-02   -0.26139E-03 79499   0.325E-01    0.550E-01
RMM:   7    -0.961493646069E+02    0.13696E-02   -0.14629E-03 75855   0.165E-01    0.269E-01
RMM:   8    -0.961486604898E+02    0.70412E-03   -0.80780E-04 65024   0.152E-01    0.662E-02
RMM:   9    -0.961487842952E+02   -0.12381E-03   -0.54110E-04 57324   0.971E-02
   8 F= -.10153189E+03 E0= -.10151806E+03  d E =0.639486E-05  mag=    -0.0000
 curvature:  -1.05 expect dE=-0.381E-02 dE for cont linesearch -0.227E-02
 ZBRENT: interpolating
 opt :   1.2296  next Energy=  -101.533489 (dE=-0.159E-02)
 bond charge predicted
       N       E                     dE             d eps       ncg     rms          rms(c)
DAV:   1    -0.961460197764E+02    0.26407E-02   -0.19033E-01 84912   0.690E+00    0.612E-01
RMM:   2    -0.961570746241E+02   -0.11055E-01   -0.84909E-02118079   0.184E+00    0.138E+00
RMM:   3    -0.961522595474E+02    0.48151E-02   -0.24595E-02 98421   0.110E+00    0.683E-01
RMM:   4    -0.961525038098E+02   -0.24426E-03   -0.74968E-03 98291   0.550E-01    0.762E-01
RMM:   5    -0.961512433165E+02    0.12605E-02   -0.29236E-03 83384   0.330E-01    0.410E-01
RMM:   6    -0.961511892038E+02    0.54113E-04   -0.98197E-04 66564   0.200E-01
   9 F= -.10153406E+03 E0= -.10152039E+03  d E =-.215976E-02  mag=    -0.0000
 curvature:  -0.21 expect dE=-0.527E-03 dE for cont linesearch -0.194E-03
 trial: gam= 0.00000 g(F)=  0.497E-03 g(S)=  0.196E-02 ort =-0.141E-02 (trialstep = 0.662E+00)
 search vector abs. value=  0.246E-02
 reached required accuracy - stopping structural energy minimisation
