unknown system                          
           1
     4.952213   -5.017134    1.148168
     4.695362    4.863033    0.978033
     1.077052   -0.130671    6.787787
   Fe   Se
     8     8
unknown system                          
           1
     4.952213   -5.017134    1.148168
     4.695362    4.863033    0.978033
     1.077052   -0.130671    6.787787
   Fe   Se
     8     8
Direct configuration=     1
   0.95744696  0.00024845  0.99965399
   0.04255304  0.49975155  0.00034601
   0.45744696  0.00024845  0.99965399
   0.54255304  0.49975155  0.00034601
   0.25000000  0.25000000  0.00000000
   0.25000000  0.75000000  0.00000000
   0.75000000  0.25000000  0.00000000
   0.75000000  0.75000000  0.00000000
   0.25795602  0.06015586  0.74853876
   0.37824573  0.55990080  0.74915813
   0.75795602  0.06015586  0.74853876
   0.87824573  0.55990080  0.74915813
   0.24204398  0.43984414  0.25146124
   0.12175427  0.94009920  0.25084187
   0.74204398  0.43984414  0.25146124
   0.62175427  0.94009920  0.25084187
