  16  16   1   0
  0.1906250E+02  0.7446674E-09  0.7446674E-09  0.5576928E-09  0.5000000E-15
  1.000000000000000E-004
  CAR 
 unknown system                          
     11.63762412    -53.72377795  301      4.00148147      1.00000000
    -53.724  0.0000E+00  0.0000E+00  0.0000E+00  0.0000E+00
    -53.506  0.0000E+00  0.0000E+00  0.0000E+00  0.0000E+00
    -53.288  0.0000E+00  0.0000E+00  0.0000E+00  0.0000E+00
    -53.070  0.0000E+00  0.0000E+00  0.0000E+00  0.0000E+00
    -52.852  0.0000E+00  0.0000E+00  0.0000E+00  0.0000E+00
    -52.634  0.0000E+00  0.0000E+00  0.0000E+00  0.0000E+00
    -52.417  0.0000E+00  0.0000E+00  0.0000E+00  0.0000E+00
    -52.199  0.0000E+00  0.0000E+00  0.0000E+00  0.0000E+00
    -51.981  0.0000E+00  0.0000E+00  0.0000E+00  0.0000E+00
    -51.763  0.0000E+00  0.0000E+00  0.0000E+00  0.0000E+00
    -51.545  0.0000E+00  0.0000E+00  0.0000E+00  0.0000E+00
    -51.327  0.0000E+00  0.0000E+00  0.0000E+00  0.0000E+00
    -51.109  0.0000E+00  0.0000E+00  0.0000E+00  0.0000E+00
    -50.891  0.0000E+00  0.0000E+00  0.0000E+00  0.0000E+00
    -50.674  0.1836E+02  0.1836E+02  0.4000E+01  0.4000E+01
    -50.456  0.3507E+02  0.3507E+02  0.1006E+02  0.1006E+02
    -50.238  0.7868E+01  0.7868E+01  0.1200E+02  0.1200E+02
    -50.020  0.0000E+00  0.0000E+00  0.1200E+02  0.1200E+02
    -49.802  0.0000E+00  0.0000E+00  0.1200E+02  0.1200E+02
    -49.584  0.0000E+00  0.0000E+00  0.1200E+02  0.1200E+02
    -49.366  0.0000E+00  0.0000E+00  0.1200E+02  0.1200E+02
    -49.148  0.0000E+00  0.0000E+00  0.1200E+02  0.1200E+02
    -48.931  0.0000E+00  0.0000E+00  0.1200E+02  0.1200E+02
    -48.713  0.0000E+00  0.0000E+00  0.1200E+02  0.1200E+02
    -48.495  0.0000E+00  0.0000E+00  0.1200E+02  0.1200E+02
    -48.277  0.0000E+00  0.0000E+00  0.1200E+02  0.1200E+02
    -48.059  0.0000E+00  0.0000E+00  0.1200E+02  0.1200E+02
    -47.841  0.3168E+02  0.3168E+02  0.1738E+02  0.1738E+02
    -47.623  0.7213E+01  0.7213E+01  0.1900E+02  0.1900E+02
    -47.406  0.2295E+02  0.2295E+02  0.2400E+02  0.2400E+02
    -47.188  0.0000E+00  0.0000E+00  0.2400E+02  0.2400E+02
    -46.970  0.0000E+00  0.0000E+00  0.2400E+02  0.2400E+02
    -46.752  0.0000E+00  0.0000E+00  0.2400E+02  0.2400E+02
    -46.534  0.0000E+00  0.0000E+00  0.2400E+02  0.2400E+02
    -46.316  0.0000E+00  0.0000E+00  0.2400E+02  0.2400E+02
    -46.098  0.0000E+00  0.0000E+00  0.2400E+02  0.2400E+02
    -45.880  0.0000E+00  0.0000E+00  0.2400E+02  0.2400E+02
    -45.663  0.0000E+00  0.0000E+00  0.2400E+02  0.2400E+02
    -45.445  0.0000E+00  0.0000E+00  0.2400E+02  0.2400E+02
    -45.227  0.0000E+00  0.0000E+00  0.2400E+02  0.2400E+02
    -45.009  0.0000E+00  0.0000E+00  0.2400E+02  0.2400E+02
    -44.791  0.0000E+00  0.0000E+00  0.2400E+02  0.2400E+02
    -44.573  0.0000E+00  0.0000E+00  0.2400E+02  0.2400E+02
    -44.355  0.0000E+00  0.0000E+00  0.2400E+02  0.2400E+02
    -44.137  0.0000E+00  0.0000E+00  0.2400E+02  0.2400E+02
    -43.920  0.0000E+00  0.0000E+00  0.2400E+02  0.2400E+02
    -43.702  0.0000E+00  0.0000E+00  0.2400E+02  0.2400E+02
    -43.484  0.0000E+00  0.0000E+00  0.2400E+02  0.2400E+02
    -43.266  0.0000E+00  0.0000E+00  0.2400E+02  0.2400E+02
    -43.048  0.0000E+00  0.0000E+00  0.2400E+02  0.2400E+02
    -42.830  0.0000E+00  0.0000E+00  0.2400E+02  0.2400E+02
    -42.612  0.0000E+00  0.0000E+00  0.2400E+02  0.2400E+02
    -42.394  0.0000E+00  0.0000E+00  0.2400E+02  0.2400E+02
    -42.177  0.0000E+00  0.0000E+00  0.2400E+02  0.2400E+02
    -41.959  0.0000E+00  0.0000E+00  0.2400E+02  0.2400E+02
    -41.741  0.0000E+00  0.0000E+00  0.2400E+02  0.2400E+02
    -41.523  0.0000E+00  0.0000E+00  0.2400E+02  0.2400E+02
    -41.305  0.0000E+00  0.0000E+00  0.2400E+02  0.2400E+02
    -41.087  0.0000E+00  0.0000E+00  0.2400E+02  0.2400E+02
    -40.869  0.0000E+00  0.0000E+00  0.2400E+02  0.2400E+02
    -40.651  0.0000E+00  0.0000E+00  0.2400E+02  0.2400E+02
    -40.434  0.0000E+00  0.0000E+00  0.2400E+02  0.2400E+02
    -40.216  0.0000E+00  0.0000E+00  0.2400E+02  0.2400E+02
    -39.998  0.0000E+00  0.0000E+00  0.2400E+02  0.2400E+02
    -39.780  0.0000E+00  0.0000E+00  0.2400E+02  0.2400E+02
    -39.562  0.0000E+00  0.0000E+00  0.2400E+02  0.2400E+02
    -39.344  0.0000E+00  0.0000E+00  0.2400E+02  0.2400E+02
    -39.126  0.0000E+00  0.0000E+00  0.2400E+02  0.2400E+02
    -38.909  0.0000E+00  0.0000E+00  0.2400E+02  0.2400E+02
    -38.691  0.0000E+00  0.0000E+00  0.2400E+02  0.2400E+02
    -38.473  0.0000E+00  0.0000E+00  0.2400E+02  0.2400E+02
    -38.255  0.0000E+00  0.0000E+00  0.2400E+02  0.2400E+02
    -38.037  0.0000E+00  0.0000E+00  0.2400E+02  0.2400E+02
    -37.819  0.0000E+00  0.0000E+00  0.2400E+02  0.2400E+02
    -37.601  0.0000E+00  0.0000E+00  0.2400E+02  0.2400E+02
    -37.383  0.0000E+00  0.0000E+00  0.2400E+02  0.2400E+02
    -37.166  0.0000E+00  0.0000E+00  0.2400E+02  0.2400E+02
    -36.948  0.0000E+00  0.0000E+00  0.2400E+02  0.2400E+02
    -36.730  0.0000E+00  0.0000E+00  0.2400E+02  0.2400E+02
    -36.512  0.0000E+00  0.0000E+00  0.2400E+02  0.2400E+02
    -36.294  0.0000E+00  0.0000E+00  0.2400E+02  0.2400E+02
    -36.076  0.0000E+00  0.0000E+00  0.2400E+02  0.2400E+02
    -35.858  0.0000E+00  0.0000E+00  0.2400E+02  0.2400E+02
    -35.640  0.0000E+00  0.0000E+00  0.2400E+02  0.2400E+02
    -35.423  0.0000E+00  0.0000E+00  0.2400E+02  0.2400E+02
    -35.205  0.0000E+00  0.0000E+00  0.2400E+02  0.2400E+02
    -34.987  0.0000E+00  0.0000E+00  0.2400E+02  0.2400E+02
    -34.769  0.0000E+00  0.0000E+00  0.2400E+02  0.2400E+02
    -34.551  0.0000E+00  0.0000E+00  0.2400E+02  0.2400E+02
    -34.333  0.0000E+00  0.0000E+00  0.2400E+02  0.2400E+02
    -34.115  0.0000E+00  0.0000E+00  0.2400E+02  0.2400E+02
    -33.897  0.0000E+00  0.0000E+00  0.2400E+02  0.2400E+02
    -33.680  0.0000E+00  0.0000E+00  0.2400E+02  0.2400E+02
    -33.462  0.0000E+00  0.0000E+00  0.2400E+02  0.2400E+02
    -33.244  0.0000E+00  0.0000E+00  0.2400E+02  0.2400E+02
    -33.026  0.0000E+00  0.0000E+00  0.2400E+02  0.2400E+02
    -32.808  0.0000E+00  0.0000E+00  0.2400E+02  0.2400E+02
    -32.590  0.0000E+00  0.0000E+00  0.2400E+02  0.2400E+02
    -32.372  0.0000E+00  0.0000E+00  0.2400E+02  0.2400E+02
    -32.155  0.0000E+00  0.0000E+00  0.2400E+02  0.2400E+02
    -31.937  0.0000E+00  0.0000E+00  0.2400E+02  0.2400E+02
    -31.719  0.0000E+00  0.0000E+00  0.2400E+02  0.2400E+02
    -31.501  0.0000E+00  0.0000E+00  0.2400E+02  0.2400E+02
    -31.283  0.0000E+00  0.0000E+00  0.2400E+02  0.2400E+02
    -31.065  0.0000E+00  0.0000E+00  0.2400E+02  0.2400E+02
    -30.847  0.0000E+00  0.0000E+00  0.2400E+02  0.2400E+02
    -30.629  0.0000E+00  0.0000E+00  0.2400E+02  0.2400E+02
    -30.412  0.0000E+00  0.0000E+00  0.2400E+02  0.2400E+02
    -30.194  0.0000E+00  0.0000E+00  0.2400E+02  0.2400E+02
    -29.976  0.0000E+00  0.0000E+00  0.2400E+02  0.2400E+02
    -29.758  0.0000E+00  0.0000E+00  0.2400E+02  0.2400E+02
    -29.540  0.0000E+00  0.0000E+00  0.2400E+02  0.2400E+02
    -29.322  0.0000E+00  0.0000E+00  0.2400E+02  0.2400E+02
    -29.104  0.0000E+00  0.0000E+00  0.2400E+02  0.2400E+02
    -28.886  0.0000E+00  0.0000E+00  0.2400E+02  0.2400E+02
    -28.669  0.0000E+00  0.0000E+00  0.2400E+02  0.2400E+02
    -28.451  0.0000E+00  0.0000E+00  0.2400E+02  0.2400E+02
    -28.233  0.0000E+00  0.0000E+00  0.2400E+02  0.2400E+02
    -28.015  0.0000E+00  0.0000E+00  0.2400E+02  0.2400E+02
    -27.797  0.0000E+00  0.0000E+00  0.2400E+02  0.2400E+02
    -27.579  0.0000E+00  0.0000E+00  0.2400E+02  0.2400E+02
    -27.361  0.0000E+00  0.0000E+00  0.2400E+02  0.2400E+02
    -27.143  0.0000E+00  0.0000E+00  0.2400E+02  0.2400E+02
    -26.926  0.0000E+00  0.0000E+00  0.2400E+02  0.2400E+02
    -26.708  0.0000E+00  0.0000E+00  0.2400E+02  0.2400E+02
    -26.490  0.0000E+00  0.0000E+00  0.2400E+02  0.2400E+02
    -26.272  0.0000E+00  0.0000E+00  0.2400E+02  0.2400E+02
    -26.054  0.0000E+00  0.0000E+00  0.2400E+02  0.2400E+02
    -25.836  0.0000E+00  0.0000E+00  0.2400E+02  0.2400E+02
    -25.618  0.0000E+00  0.0000E+00  0.2400E+02  0.2400E+02
    -25.401  0.0000E+00  0.0000E+00  0.2400E+02  0.2400E+02
    -25.183  0.0000E+00  0.0000E+00  0.2400E+02  0.2400E+02
    -24.965  0.0000E+00  0.0000E+00  0.2400E+02  0.2400E+02
    -24.747  0.0000E+00  0.0000E+00  0.2400E+02  0.2400E+02
    -24.529  0.0000E+00  0.0000E+00  0.2400E+02  0.2400E+02
    -24.311  0.0000E+00  0.0000E+00  0.2400E+02  0.2400E+02
    -24.093  0.0000E+00  0.0000E+00  0.2400E+02  0.2400E+02
    -23.875  0.0000E+00  0.0000E+00  0.2400E+02  0.2400E+02
    -23.658  0.0000E+00  0.0000E+00  0.2400E+02  0.2400E+02
    -23.440  0.0000E+00  0.0000E+00  0.2400E+02  0.2400E+02
    -23.222  0.0000E+00  0.0000E+00  0.2400E+02  0.2400E+02
    -23.004  0.0000E+00  0.0000E+00  0.2400E+02  0.2400E+02
    -22.786  0.0000E+00  0.0000E+00  0.2400E+02  0.2400E+02
    -22.568  0.0000E+00  0.0000E+00  0.2400E+02  0.2400E+02
    -22.350  0.0000E+00  0.0000E+00  0.2400E+02  0.2400E+02
    -22.132  0.0000E+00  0.0000E+00  0.2400E+02  0.2400E+02
    -21.915  0.0000E+00  0.0000E+00  0.2400E+02  0.2400E+02
    -21.697  0.0000E+00  0.0000E+00  0.2400E+02  0.2400E+02
    -21.479  0.0000E+00  0.0000E+00  0.2400E+02  0.2400E+02
    -21.261  0.0000E+00  0.0000E+00  0.2400E+02  0.2400E+02
    -21.043  0.0000E+00  0.0000E+00  0.2400E+02  0.2400E+02
    -20.825  0.0000E+00  0.0000E+00  0.2400E+02  0.2400E+02
    -20.607  0.0000E+00  0.0000E+00  0.2400E+02  0.2400E+02
    -20.389  0.0000E+00  0.0000E+00  0.2400E+02  0.2400E+02
    -20.172  0.0000E+00  0.0000E+00  0.2400E+02  0.2400E+02
    -19.954  0.0000E+00  0.0000E+00  0.2400E+02  0.2400E+02
    -19.736  0.0000E+00  0.0000E+00  0.2400E+02  0.2400E+02
    -19.518  0.0000E+00  0.0000E+00  0.2400E+02  0.2400E+02
    -19.300  0.0000E+00  0.0000E+00  0.2400E+02  0.2400E+02
    -19.082  0.0000E+00  0.0000E+00  0.2400E+02  0.2400E+02
    -18.864  0.0000E+00  0.0000E+00  0.2400E+02  0.2400E+02
    -18.646  0.0000E+00  0.0000E+00  0.2400E+02  0.2400E+02
    -18.429  0.0000E+00  0.0000E+00  0.2400E+02  0.2400E+02
    -18.211  0.0000E+00  0.0000E+00  0.2400E+02  0.2400E+02
    -17.993  0.0000E+00  0.0000E+00  0.2400E+02  0.2400E+02
    -17.775  0.0000E+00  0.0000E+00  0.2400E+02  0.2400E+02
    -17.557  0.0000E+00  0.0000E+00  0.2400E+02  0.2400E+02
    -17.339  0.0000E+00  0.0000E+00  0.2400E+02  0.2400E+02
    -17.121  0.0000E+00  0.0000E+00  0.2400E+02  0.2400E+02
    -16.904  0.0000E+00  0.0000E+00  0.2400E+02  0.2400E+02
    -16.686  0.0000E+00  0.0000E+00  0.2400E+02  0.2400E+02
    -16.468  0.0000E+00  0.0000E+00  0.2400E+02  0.2400E+02
    -16.250  0.0000E+00  0.0000E+00  0.2400E+02  0.2400E+02
    -16.032  0.0000E+00  0.0000E+00  0.2400E+02  0.2400E+02
    -15.814  0.0000E+00  0.0000E+00  0.2400E+02  0.2400E+02
    -15.596  0.0000E+00  0.0000E+00  0.2400E+02  0.2400E+02
    -15.378  0.0000E+00  0.0000E+00  0.2400E+02  0.2400E+02
    -15.161  0.0000E+00  0.0000E+00  0.2400E+02  0.2400E+02
    -14.943  0.0000E+00  0.0000E+00  0.2400E+02  0.2400E+02
    -14.725  0.0000E+00  0.0000E+00  0.2400E+02  0.2400E+02
    -14.507  0.0000E+00  0.0000E+00  0.2400E+02  0.2400E+02
    -14.289  0.0000E+00  0.0000E+00  0.2400E+02  0.2400E+02
    -14.071  0.0000E+00  0.0000E+00  0.2400E+02  0.2400E+02
    -13.853  0.0000E+00  0.0000E+00  0.2400E+02  0.2400E+02
    -13.635  0.0000E+00  0.0000E+00  0.2400E+02  0.2400E+02
    -13.418  0.0000E+00  0.0000E+00  0.2400E+02  0.2400E+02
    -13.200  0.0000E+00  0.0000E+00  0.2400E+02  0.2400E+02
    -12.982  0.0000E+00  0.0000E+00  0.2400E+02  0.2400E+02
    -12.764  0.0000E+00  0.0000E+00  0.2400E+02  0.2400E+02
    -12.546  0.0000E+00  0.0000E+00  0.2400E+02  0.2400E+02
    -12.328  0.0000E+00  0.0000E+00  0.2400E+02  0.2400E+02
    -12.110  0.0000E+00  0.0000E+00  0.2400E+02  0.2400E+02
    -11.892  0.0000E+00  0.0000E+00  0.2400E+02  0.2400E+02
    -11.675  0.0000E+00  0.0000E+00  0.2400E+02  0.2400E+02
    -11.457  0.0000E+00  0.0000E+00  0.2400E+02  0.2400E+02
    -11.239  0.0000E+00  0.0000E+00  0.2400E+02  0.2400E+02
    -11.021  0.0000E+00  0.0000E+00  0.2400E+02  0.2400E+02
    -10.803  0.0000E+00  0.0000E+00  0.2400E+02  0.2400E+02
    -10.585  0.0000E+00  0.0000E+00  0.2400E+02  0.2400E+02
    -10.367  0.5513E+00  0.5513E+00  0.2402E+02  0.2402E+02
    -10.150  0.1701E+01  0.1701E+01  0.2423E+02  0.2423E+02
     -9.932  0.2967E+01  0.2967E+01  0.2464E+02  0.2464E+02
     -9.714  0.3224E+01  0.3224E+01  0.2521E+02  0.2521E+02
     -9.496  0.3708E+01  0.3708E+01  0.2586E+02  0.2586E+02
     -9.278  0.6034E+01  0.6034E+01  0.2674E+02  0.2674E+02
     -9.060  0.1034E+02  0.1034E+02  0.2831E+02  0.2831E+02
     -8.842  0.9662E+01  0.9662E+01  0.2992E+02  0.2992E+02
     -8.624  0.1008E+02  0.1008E+02  0.3150E+02  0.3150E+02
     -8.407  0.1398E+01  0.1398E+01  0.3200E+02  0.3200E+02
     -8.189  0.0000E+00  0.0000E+00  0.3200E+02  0.3200E+02
     -7.971  0.0000E+00  0.0000E+00  0.3200E+02  0.3200E+02
     -7.753  0.0000E+00  0.0000E+00  0.3200E+02  0.3200E+02
     -7.535  0.0000E+00  0.0000E+00  0.3200E+02  0.3200E+02
     -7.317  0.0000E+00  0.0000E+00  0.3200E+02  0.3200E+02
     -7.099  0.0000E+00  0.0000E+00  0.3200E+02  0.3200E+02
     -6.881  0.0000E+00  0.0000E+00  0.3200E+02  0.3200E+02
     -6.664  0.0000E+00  0.0000E+00  0.3200E+02  0.3200E+02
     -6.446  0.0000E+00  0.0000E+00  0.3200E+02  0.3200E+02
     -6.228  0.0000E+00  0.0000E+00  0.3200E+02  0.3200E+02
     -6.010  0.0000E+00  0.0000E+00  0.3200E+02  0.3200E+02
     -5.792  0.0000E+00  0.0000E+00  0.3200E+02  0.3200E+02
     -5.574  0.0000E+00  0.0000E+00  0.3200E+02  0.3200E+02
     -5.356  0.0000E+00  0.0000E+00  0.3200E+02  0.3200E+02
     -5.138  0.0000E+00  0.0000E+00  0.3200E+02  0.3200E+02
     -4.921  0.0000E+00  0.0000E+00  0.3200E+02  0.3200E+02
     -4.703  0.0000E+00  0.0000E+00  0.3200E+02  0.3200E+02
     -4.485  0.0000E+00  0.0000E+00  0.3200E+02  0.3200E+02
     -4.267  0.0000E+00  0.0000E+00  0.3200E+02  0.3200E+02
     -4.049  0.0000E+00  0.0000E+00  0.3200E+02  0.3200E+02
     -3.831  0.0000E+00  0.0000E+00  0.3200E+02  0.3200E+02
     -3.613  0.0000E+00  0.0000E+00  0.3200E+02  0.3200E+02
     -3.395  0.0000E+00  0.0000E+00  0.3200E+02  0.3200E+02
     -3.178  0.0000E+00  0.0000E+00  0.3200E+02  0.3200E+02
     -2.960  0.0000E+00  0.0000E+00  0.3200E+02  0.3200E+02
     -2.742  0.0000E+00  0.0000E+00  0.3200E+02  0.3200E+02
     -2.524  0.0000E+00  0.0000E+00  0.3200E+02  0.3200E+02
     -2.306  0.0000E+00  0.0000E+00  0.3200E+02  0.3200E+02
     -2.088  0.2554E+00  0.2554E+00  0.3201E+02  0.3201E+02
     -1.870  0.1573E+01  0.1573E+01  0.3214E+02  0.3214E+02
     -1.653  0.6286E+01  0.6286E+01  0.3294E+02  0.3294E+02
     -1.435  0.1076E+02  0.1076E+02  0.3438E+02  0.3438E+02
     -1.217  0.7476E+01  0.7476E+01  0.3588E+02  0.3588E+02
     -0.999  0.6616E+01  0.6616E+01  0.3709E+02  0.3709E+02
     -0.781  0.5442E+01  0.5442E+01  0.3834E+02  0.3834E+02
     -0.563  0.5114E+01  0.5114E+01  0.3940E+02  0.3940E+02
     -0.345  0.9317E+01  0.9317E+01  0.4054E+02  0.4054E+02
     -0.127  0.7537E+01  0.7537E+01  0.4192E+02  0.4192E+02
      0.090  0.1274E+02  0.1274E+02  0.4366E+02  0.4366E+02
      0.308  0.1578E+02  0.1578E+02  0.4594E+02  0.4594E+02
      0.526  0.1568E+02  0.1568E+02  0.4837E+02  0.4837E+02
      0.744  0.1663E+02  0.1663E+02  0.5076E+02  0.5076E+02
      0.962  0.1226E+02  0.1226E+02  0.5276E+02  0.5276E+02
      1.180  0.9765E+01  0.9765E+01  0.5441E+02  0.5441E+02
      1.398  0.1134E+02  0.1134E+02  0.5599E+02  0.5599E+02
      1.616  0.1783E+02  0.1783E+02  0.5848E+02  0.5848E+02
      1.833  0.1869E+02  0.1869E+02  0.6079E+02  0.6079E+02
      2.051  0.2637E+02  0.2637E+02  0.6412E+02  0.6412E+02
      2.269  0.2544E+02  0.2544E+02  0.6794E+02  0.6794E+02
      2.487  0.1660E+02  0.1660E+02  0.7047E+02  0.7047E+02
      2.705  0.9457E+01  0.9457E+01  0.7196E+02  0.7196E+02
      2.923  0.9550E+01  0.9550E+01  0.7353E+02  0.7353E+02
      3.141  0.7711E+01  0.7711E+01  0.7494E+02  0.7494E+02
      3.359  0.3914E+01  0.3915E+01  0.7589E+02  0.7589E+02
      3.576  0.6419E+01  0.6419E+01  0.7687E+02  0.7687E+02
      3.794  0.1133E+02  0.1133E+02  0.7831E+02  0.7831E+02
      4.012  0.1022E+02  0.1022E+02  0.8009E+02  0.8009E+02
      4.230  0.1136E+02  0.1136E+02  0.8136E+02  0.8136E+02
      4.448  0.2335E+02  0.2335E+02  0.8423E+02  0.8423E+02
      4.666  0.1493E+02  0.1493E+02  0.8667E+02  0.8667E+02
      4.884  0.1400E+02  0.1400E+02  0.8879E+02  0.8879E+02
      5.101  0.1306E+02  0.1306E+02  0.9083E+02  0.9083E+02
      5.319  0.1555E+02  0.1555E+02  0.9259E+02  0.9259E+02
      5.537  0.8391E+01  0.8390E+01  0.9478E+02  0.9478E+02
      5.755  0.1345E+01  0.1345E+01  0.9507E+02  0.9507E+02
      5.973  0.1802E+01  0.1801E+01  0.9533E+02  0.9533E+02
      6.191  0.1611E+01  0.1610E+01  0.9566E+02  0.9566E+02
      6.409  0.9936E+00  0.9892E+00  0.9594E+02  0.9594E+02
      6.627  0.5622E+00  0.5628E+00  0.9609E+02  0.9609E+02
      6.844  0.7080E+00  0.7095E+00  0.9622E+02  0.9622E+02
      7.062  0.9975E+00  0.9995E+00  0.9640E+02  0.9640E+02
      7.280  0.1686E+01  0.1692E+01  0.9671E+02  0.9671E+02
      7.498  0.2423E+01  0.2278E+01  0.9713E+02  0.9712E+02
      7.716  0.3649E+01  0.3532E+01  0.9774E+02  0.9773E+02
      7.934  0.5355E+01  0.4929E+01  0.9862E+02  0.9862E+02
      8.152  0.2865E+01  0.3010E+01  0.9949E+02  0.9948E+02
      8.370  0.1212E+01  0.1237E+01  0.9987E+02  0.9987E+02
      8.587  0.3474E+00  0.3608E+00  0.9998E+02  0.9999E+02
      8.805  0.0000E+00  0.2082E-01  0.1000E+03  0.1000E+03
      9.023  0.0000E+00  0.0000E+00  0.1000E+03  0.1000E+03
      9.241  0.0000E+00  0.0000E+00  0.1000E+03  0.1000E+03
      9.459  0.0000E+00  0.0000E+00  0.1000E+03  0.1000E+03
      9.677  0.0000E+00  0.0000E+00  0.1000E+03  0.1000E+03
      9.895  0.0000E+00  0.0000E+00  0.1000E+03  0.1000E+03
     10.113  0.0000E+00  0.0000E+00  0.1000E+03  0.1000E+03
     10.330  0.0000E+00  0.0000E+00  0.1000E+03  0.1000E+03
     10.548  0.0000E+00  0.0000E+00  0.1000E+03  0.1000E+03
     10.766  0.0000E+00  0.0000E+00  0.1000E+03  0.1000E+03
     10.984  0.0000E+00  0.0000E+00  0.1000E+03  0.1000E+03
     11.202  0.0000E+00  0.0000E+00  0.1000E+03  0.1000E+03
     11.420  0.0000E+00  0.0000E+00  0.1000E+03  0.1000E+03
     11.638  0.0000E+00  0.0000E+00  0.1000E+03  0.1000E+03
     11.63762412    -53.72377795  301      4.00148147      1.00000000
    -53.724  0.0000E+00  0.0000E+00  0.0000E+00  0.0000E+00  0.0000E+00  0.0000E+00  0.0000E+00  0.0000E+00  0.0000E+00  0.0000E+00  0.0000E+00  0.0000E+00  0.0000E+00  0.0000E+00  0.0000E+00  0.0000E+00  0.0000E+00  0.0000E+00
    -53.506  0.0000E+00  0.0000E+00  0.0000E+00  0.0000E+00  0.0000E+00  0.0000E+00  0.0000E+00  0.0000E+00  0.0000E+00  0.0000E+00  0.0000E+00  0.0000E+00  0.0000E+00  0.0000E+00  0.0000E+00  0.0000E+00  0.0000E+00  0.0000E+00
    -53.288  0.0000E+00  0.0000E+00  0.0000E+00  0.0000E+00  0.0000E+00  0.0000E+00  0.0000E+00  0.0000E+00  0.0000E+00  0.0000E+00  0.0000E+00  0.0000E+00  0.0000E+00  0.0000E+00  0.0000E+00  0.0000E+00  0.0000E+00  0.0000E+00
    -53.070  0.0000E+00  0.0000E+00  0.0000E+00  0.0000E+00  0.0000E+00  0.0000E+00  0.0000E+00  0.0000E+00  0.0000E+00  0.0000E+00  0.0000E+00  0.0000E+00  0.0000E+00  0.0000E+00  0.0000E+00  0.0000E+00  0.0000E+00  0.0000E+00
    -52.852  0.0000E+00  0.0000E+00  0.0000E+00  0.0000E+00  0.0000E+00  0.0000E+00  0.0000E+00  0.0000E+00  0.0000E+00  0.0000E+00  0.0000E+00  0.0000E+00  0.0000E+00  0.0000E+00  0.0000E+00  0.0000E+00  0.0000E+00  0.0000E+00
    -52.634  0.0000E+00  0.0000E+00  0.0000E+00  0.0000E+00  0.0000E+00  0.0000E+00  0.0000E+00  0.0000E+00  0.0000E+00  0.0000E+00  0.0000E+00  0.0000E+00  0.0000E+00  0.0000E+00  0.0000E+00  0.0000E+00  0.0000E+00  0.0000E+00
    -52.417  0.0000E+00  0.0000E+00  0.0000E+00  0.0000E+00  0.0000E+00  0.0000E+00  0.0000E+00  0.0000E+00  0.0000E+00  0.0000E+00  0.0000E+00  0.0000E+00  0.0000E+00  0.0000E+00  0.0000E+00  0.0000E+00  0.0000E+00  0.0000E+00
    -52.199  0.0000E+00  0.0000E+00  0.0000E+00  0.0000E+00  0.0000E+00  0.0000E+00  0.0000E+00  0.0000E+00  0.0000E+00  0.0000E+00  0.0000E+00  0.0000E+00  0.0000E+00  0.0000E+00  0.0000E+00  0.0000E+00  0.0000E+00  0.0000E+00
    -51.981  0.0000E+00  0.0000E+00  0.0000E+00  0.0000E+00  0.0000E+00  0.0000E+00  0.0000E+00  0.0000E+00  0.0000E+00  0.0000E+00  0.0000E+00  0.0000E+00  0.0000E+00  0.0000E+00  0.0000E+00  0.0000E+00  0.0000E+00  0.0000E+00
    -51.763  0.0000E+00  0.0000E+00  0.0000E+00  0.0000E+00  0.0000E+00  0.0000E+00  0.0000E+00  0.0000E+00  0.0000E+00  0.0000E+00  0.0000E+00  0.0000E+00  0.0000E+00  0.0000E+00  0.0000E+00  0.0000E+00  0.0000E+00  0.0000E+00
    -51.545  0.0000E+00  0.0000E+00  0.0000E+00  0.0000E+00  0.0000E+00  0.0000E+00  0.0000E+00  0.0000E+00  0.0000E+00  0.0000E+00  0.0000E+00  0.0000E+00  0.0000E+00  0.0000E+00  0.0000E+00  0.0000E+00  0.0000E+00  0.0000E+00
    -51.327  0.0000E+00  0.0000E+00  0.0000E+00  0.0000E+00  0.0000E+00  0.0000E+00  0.0000E+00  0.0000E+00  0.0000E+00  0.0000E+00  0.0000E+00  0.0000E+00  0.0000E+00  0.0000E+00  0.0000E+00  0.0000E+00  0.0000E+00  0.0000E+00
    -51.109  0.0000E+00  0.0000E+00  0.0000E+00  0.0000E+00  0.0000E+00  0.0000E+00  0.0000E+00  0.0000E+00  0.0000E+00  0.0000E+00  0.0000E+00  0.0000E+00  0.0000E+00  0.0000E+00  0.0000E+00  0.0000E+00  0.0000E+00  0.0000E+00
    -50.891  0.0000E+00  0.0000E+00  0.0000E+00  0.0000E+00  0.0000E+00  0.0000E+00  0.0000E+00  0.0000E+00  0.0000E+00  0.0000E+00  0.0000E+00  0.0000E+00  0.0000E+00  0.0000E+00  0.0000E+00  0.0000E+00  0.0000E+00  0.0000E+00
    -50.674  0.3964E-10  0.1566E-05  0.1161E+01  0.8181E-04  0.3409E+01  0.6058E-05  0.1309E-09  0.3788E-07  0.2219E-05  0.4049E-08  0.1347E-09  0.3164E-06  0.1500E-09  0.4828E-06  0.6479E-05  0.4507E-09  0.1182E-09  0.1751E-05
    -50.456  0.2016E-03  0.3617E-05  0.3410E+01  0.2151E-03  0.1163E+01  0.3583E-06  0.4158E+01  0.2736E-05  0.6663E-05  0.2024E-06  0.8598E-09  0.9360E-08  0.9263E-04  0.1395E-05  0.2223E-05  0.2708E-09  0.2779E-03  0.4417E-05
    -50.238  0.5656E-04  0.2123E-08  0.2865E-09  0.7023E-07  0.1245E-10  0.7190E-09  0.1963E+01  0.6823E-06  0.9533E-11  0.5631E-07  0.2201E-09  0.8875E-10  0.2598E-04  0.8093E-09  0.7789E-11  0.1736E-09  0.7794E-04  0.1273E-09
    -50.020  0.0000E+00  0.0000E+00  0.0000E+00  0.0000E+00  0.0000E+00  0.0000E+00  0.0000E+00  0.0000E+00  0.0000E+00  0.0000E+00  0.0000E+00  0.0000E+00  0.0000E+00  0.0000E+00  0.0000E+00  0.0000E+00  0.0000E+00  0.0000E+00
    -49.802  0.0000E+00  0.0000E+00  0.0000E+00  0.0000E+00  0.0000E+00  0.0000E+00  0.0000E+00  0.0000E+00  0.0000E+00  0.0000E+00  0.0000E+00  0.0000E+00  0.0000E+00  0.0000E+00  0.0000E+00  0.0000E+00  0.0000E+00  0.0000E+00
    -49.584  0.0000E+00  0.0000E+00  0.0000E+00  0.0000E+00  0.0000E+00  0.0000E+00  0.0000E+00  0.0000E+00  0.0000E+00  0.0000E+00  0.0000E+00  0.0000E+00  0.0000E+00  0.0000E+00  0.0000E+00  0.0000E+00  0.0000E+00  0.0000E+00
    -49.366  0.0000E+00  0.0000E+00  0.0000E+00  0.0000E+00  0.0000E+00  0.0000E+00  0.0000E+00  0.0000E+00  0.0000E+00  0.0000E+00  0.0000E+00  0.0000E+00  0.0000E+00  0.0000E+00  0.0000E+00  0.0000E+00  0.0000E+00  0.0000E+00
    -49.148  0.0000E+00  0.0000E+00  0.0000E+00  0.0000E+00  0.0000E+00  0.0000E+00  0.0000E+00  0.0000E+00  0.0000E+00  0.0000E+00  0.0000E+00  0.0000E+00  0.0000E+00  0.0000E+00  0.0000E+00  0.0000E+00  0.0000E+00  0.0000E+00
    -48.931  0.0000E+00  0.0000E+00  0.0000E+00  0.0000E+00  0.0000E+00  0.0000E+00  0.0000E+00  0.0000E+00  0.0000E+00  0.0000E+00  0.0000E+00  0.0000E+00  0.0000E+00  0.0000E+00  0.0000E+00  0.0000E+00  0.0000E+00  0.0000E+00
    -48.713  0.0000E+00  0.0000E+00  0.0000E+00  0.0000E+00  0.0000E+00  0.0000E+00  0.0000E+00  0.0000E+00  0.0000E+00  0.0000E+00  0.0000E+00  0.0000E+00  0.0000E+00  0.0000E+00  0.0000E+00  0.0000E+00  0.0000E+00  0.0000E+00
    -48.495  0.0000E+00  0.0000E+00  0.0000E+00  0.0000E+00  0.0000E+00  0.0000E+00  0.0000E+00  0.0000E+00  0.0000E+00  0.0000E+00  0.0000E+00  0.0000E+00  0.0000E+00  0.0000E+00  0.0000E+00  0.0000E+00  0.0000E+00  0.0000E+00
    -48.277  0.0000E+00  0.0000E+00  0.0000E+00  0.0000E+00  0.0000E+00  0.0000E+00  0.0000E+00  0.0000E+00  0.0000E+00  0.0000E+00  0.0000E+00  0.0000E+00  0.0000E+00  0.0000E+00  0.0000E+00  0.0000E+00  0.0000E+00  0.0000E+00
    -48.059  0.0000E+00  0.0000E+00  0.0000E+00  0.0000E+00  0.0000E+00  0.0000E+00  0.0000E+00  0.0000E+00  0.0000E+00  0.0000E+00  0.0000E+00  0.0000E+00  0.0000E+00  0.0000E+00  0.0000E+00  0.0000E+00  0.0000E+00  0.0000E+00
    -47.841  0.3780E-05  0.1455E-03  0.2012E-03  0.2101E+01  0.3576E-05  0.2470E+01  0.3204E-05  0.3312E+01  0.2539E-06  0.4855E-05  0.4041E-06  0.2960E-08  0.1176E-05  0.6709E-04  0.2772E-09  0.5762E-05  0.4248E-05  0.2018E-03
    -47.623  0.3920E-08  0.1269E-03  0.1469E-06  0.4507E-08  0.2255E-10  0.6846E-08  0.1107E-05  0.1797E+01  0.9727E-07  0.5433E-11  0.2476E-10  0.2405E-08  0.1142E-08  0.5851E-04  0.6422E-10  0.3427E-11  0.1033E-08  0.1760E-03
    -47.406  0.3590E-05  0.1713E-04  0.1586E-03  0.2471E+01  0.1123E-05  0.2103E+01  0.5366E-06  0.1146E+01  0.4611E-07  0.5813E-05  0.6565E-07  0.7688E-09  0.1423E-05  0.7895E-05  0.1307E-09  0.4981E-05  0.4355E-05  0.2381E-04
    -47.188  0.0000E+00  0.0000E+00  0.0000E+00  0.0000E+00  0.0000E+00  0.0000E+00  0.0000E+00  0.0000E+00  0.0000E+00  0.0000E+00  0.0000E+00  0.0000E+00  0.0000E+00  0.0000E+00  0.0000E+00  0.0000E+00  0.0000E+00  0.0000E+00
    -46.970  0.0000E+00  0.0000E+00  0.0000E+00  0.0000E+00  0.0000E+00  0.0000E+00  0.0000E+00  0.0000E+00  0.0000E+00  0.0000E+00  0.0000E+00  0.0000E+00  0.0000E+00  0.0000E+00  0.0000E+00  0.0000E+00  0.0000E+00  0.0000E+00
    -46.752  0.0000E+00  0.0000E+00  0.0000E+00  0.0000E+00  0.0000E+00  0.0000E+00  0.0000E+00  0.0000E+00  0.0000E+00  0.0000E+00  0.0000E+00  0.0000E+00  0.0000E+00  0.0000E+00  0.0000E+00  0.0000E+00  0.0000E+00  0.0000E+00
    -46.534  0.0000E+00  0.0000E+00  0.0000E+00  0.0000E+00  0.0000E+00  0.0000E+00  0.0000E+00  0.0000E+00  0.0000E+00  0.0000E+00  0.0000E+00  0.0000E+00  0.0000E+00  0.0000E+00  0.0000E+00  0.0000E+00  0.0000E+00  0.0000E+00
    -46.316  0.0000E+00  0.0000E+00  0.0000E+00  0.0000E+00  0.0000E+00  0.0000E+00  0.0000E+00  0.0000E+00  0.0000E+00  0.0000E+00  0.0000E+00  0.0000E+00  0.0000E+00  0.0000E+00  0.0000E+00  0.0000E+00  0.0000E+00  0.0000E+00
    -46.098  0.0000E+00  0.0000E+00  0.0000E+00  0.0000E+00  0.0000E+00  0.0000E+00  0.0000E+00  0.0000E+00  0.0000E+00  0.0000E+00  0.0000E+00  0.0000E+00  0.0000E+00  0.0000E+00  0.0000E+00  0.0000E+00  0.0000E+00  0.0000E+00
    -45.880  0.0000E+00  0.0000E+00  0.0000E+00  0.0000E+00  0.0000E+00  0.0000E+00  0.0000E+00  0.0000E+00  0.0000E+00  0.0000E+00  0.0000E+00  0.0000E+00  0.0000E+00  0.0000E+00  0.0000E+00  0.0000E+00  0.0000E+00  0.0000E+00
    -45.663  0.0000E+00  0.0000E+00  0.0000E+00  0.0000E+00  0.0000E+00  0.0000E+00  0.0000E+00  0.0000E+00  0.0000E+00  0.0000E+00  0.0000E+00  0.0000E+00  0.0000E+00  0.0000E+00  0.0000E+00  0.0000E+00  0.0000E+00  0.0000E+00
    -45.445  0.0000E+00  0.0000E+00  0.0000E+00  0.0000E+00  0.0000E+00  0.0000E+00  0.0000E+00  0.0000E+00  0.0000E+00  0.0000E+00  0.0000E+00  0.0000E+00  0.0000E+00  0.0000E+00  0.0000E+00  0.0000E+00  0.0000E+00  0.0000E+00
    -45.227  0.0000E+00  0.0000E+00  0.0000E+00  0.0000E+00  0.0000E+00  0.0000E+00  0.0000E+00  0.0000E+00  0.0000E+00  0.0000E+00  0.0000E+00  0.0000E+00  0.0000E+00  0.0000E+00  0.0000E+00  0.0000E+00  0.0000E+00  0.0000E+00
    -45.009  0.0000E+00  0.0000E+00  0.0000E+00  0.0000E+00  0.0000E+00  0.0000E+00  0.0000E+00  0.0000E+00  0.0000E+00  0.0000E+00  0.0000E+00  0.0000E+00  0.0000E+00  0.0000E+00  0.0000E+00  0.0000E+00  0.0000E+00  0.0000E+00
    -44.791  0.0000E+00  0.0000E+00  0.0000E+00  0.0000E+00  0.0000E+00  0.0000E+00  0.0000E+00  0.0000E+00  0.0000E+00  0.0000E+00  0.0000E+00  0.0000E+00  0.0000E+00  0.0000E+00  0.0000E+00  0.0000E+00  0.0000E+00  0.0000E+00
    -44.573  0.0000E+00  0.0000E+00  0.0000E+00  0.0000E+00  0.0000E+00  0.0000E+00  0.0000E+00  0.0000E+00  0.0000E+00  0.0000E+00  0.0000E+00  0.0000E+00  0.0000E+00  0.0000E+00  0.0000E+00  0.0000E+00  0.0000E+00  0.0000E+00
    -44.355  0.0000E+00  0.0000E+00  0.0000E+00  0.0000E+00  0.0000E+00  0.0000E+00  0.0000E+00  0.0000E+00  0.0000E+00  0.0000E+00  0.0000E+00  0.0000E+00  0.0000E+00  0.0000E+00  0.0000E+00  0.0000E+00  0.0000E+00  0.0000E+00
    -44.137  0.0000E+00  0.0000E+00  0.0000E+00  0.0000E+00  0.0000E+00  0.0000E+00  0.0000E+00  0.0000E+00  0.0000E+00  0.0000E+00  0.0000E+00  0.0000E+00  0.0000E+00  0.0000E+00  0.0000E+00  0.0000E+00  0.0000E+00  0.0000E+00
    -43.920  0.0000E+00  0.0000E+00  0.0000E+00  0.0000E+00  0.0000E+00  0.0000E+00  0.0000E+00  0.0000E+00  0.0000E+00  0.0000E+00  0.0000E+00  0.0000E+00  0.0000E+00  0.0000E+00  0.0000E+00  0.0000E+00  0.0000E+00  0.0000E+00
    -43.702  0.0000E+00  0.0000E+00  0.0000E+00  0.0000E+00  0.0000E+00  0.0000E+00  0.0000E+00  0.0000E+00  0.0000E+00  0.0000E+00  0.0000E+00  0.0000E+00  0.0000E+00  0.0000E+00  0.0000E+00  0.0000E+00  0.0000E+00  0.0000E+00
    -43.484  0.0000E+00  0.0000E+00  0.0000E+00  0.0000E+00  0.0000E+00  0.0000E+00  0.0000E+00  0.0000E+00  0.0000E+00  0.0000E+00  0.0000E+00  0.0000E+00  0.0000E+00  0.0000E+00  0.0000E+00  0.0000E+00  0.0000E+00  0.0000E+00
    -43.266  0.0000E+00  0.0000E+00  0.0000E+00  0.0000E+00  0.0000E+00  0.0000E+00  0.0000E+00  0.0000E+00  0.0000E+00  0.0000E+00  0.0000E+00  0.0000E+00  0.0000E+00  0.0000E+00  0.0000E+00  0.0000E+00  0.0000E+00  0.0000E+00
    -43.048  0.0000E+00  0.0000E+00  0.0000E+00  0.0000E+00  0.0000E+00  0.0000E+00  0.0000E+00  0.0000E+00  0.0000E+00  0.0000E+00  0.0000E+00  0.0000E+00  0.0000E+00  0.0000E+00  0.0000E+00  0.0000E+00  0.0000E+00  0.0000E+00
    -42.830  0.0000E+00  0.0000E+00  0.0000E+00  0.0000E+00  0.0000E+00  0.0000E+00  0.0000E+00  0.0000E+00  0.0000E+00  0.0000E+00  0.0000E+00  0.0000E+00  0.0000E+00  0.0000E+00  0.0000E+00  0.0000E+00  0.0000E+00  0.0000E+00