  16  16   1   0
  0.1906250E+02  0.7446674E-09  0.7446674E-09  0.5576928E-09  0.5000000E-15
  1.000000000000000E-004
  CAR 
 unknown system                          
     11.64381688    -53.72283402  301      4.00588694      1.00000000
    -53.723  0.0000E+00  0.0000E+00  0.0000E+00  0.0000E+00
    -53.505  0.0000E+00  0.0000E+00  0.0000E+00  0.0000E+00
    -53.287  0.0000E+00  0.0000E+00  0.0000E+00  0.0000E+00
    -53.069  0.0000E+00  0.0000E+00  0.0000E+00  0.0000E+00
    -52.851  0.0000E+00  0.0000E+00  0.0000E+00  0.0000E+00
    -52.633  0.0000E+00  0.0000E+00  0.0000E+00  0.0000E+00
    -52.416  0.0000E+00  0.0000E+00  0.0000E+00  0.0000E+00
    -52.198  0.0000E+00  0.0000E+00  0.0000E+00  0.0000E+00
    -51.980  0.0000E+00  0.0000E+00  0.0000E+00  0.0000E+00
    -51.762  0.0000E+00  0.0000E+00  0.0000E+00  0.0000E+00
    -51.544  0.0000E+00  0.0000E+00  0.0000E+00  0.0000E+00
    -51.326  0.0000E+00  0.0000E+00  0.0000E+00  0.0000E+00
    -51.108  0.0000E+00  0.0000E+00  0.0000E+00  0.0000E+00
    -50.890  0.3290E-05  0.3290E-05  0.7169E-06  0.7169E-06
    -50.672  0.1848E+00  0.1848E+00  0.4027E-01  0.4027E-01
    -50.455  0.2824E+00  0.2824E+00  0.1018E+00  0.1018E+00
    -50.237  0.8790E-01  0.8790E-01  0.1209E+00  0.1209E+00
    -50.019  0.1225E-02  0.1225E-02  0.1212E+00  0.1212E+00
    -49.801  0.0000E+00  0.0000E+00  0.1212E+00  0.1212E+00
    -49.583  0.0000E+00  0.0000E+00  0.1212E+00  0.1212E+00
    -49.365  0.0000E+00  0.0000E+00  0.1212E+00  0.1212E+00
    -49.147  0.0000E+00  0.0000E+00  0.1212E+00  0.1212E+00
    -48.929  0.0000E+00  0.0000E+00  0.1212E+00  0.1212E+00
    -48.711  0.0000E+00  0.0000E+00  0.1212E+00  0.1212E+00
    -48.494  0.0000E+00  0.0000E+00  0.1212E+00  0.1212E+00
    -48.276  0.0000E+00  0.0000E+00  0.1212E+00  0.1212E+00
    -48.058  0.7429E-03  0.7429E-03  0.1214E+00  0.1214E+00
    -47.840  0.2486E+00  0.2486E+00  0.1755E+00  0.1755E+00
    -47.622  0.1722E+00  0.1722E+00  0.2131E+00  0.2131E+00
    -47.404  0.1347E+00  0.1347E+00  0.2424E+00  0.2424E+00
    -47.186  0.4246E-07  0.4246E-07  0.2424E+00  0.2424E+00
    -46.968  0.0000E+00  0.0000E+00  0.2424E+00  0.2424E+00
    -46.750  0.0000E+00  0.0000E+00  0.2424E+00  0.2424E+00
    -46.533  0.0000E+00  0.0000E+00  0.2424E+00  0.2424E+00
    -46.315  0.0000E+00  0.0000E+00  0.2424E+00  0.2424E+00
    -46.097  0.0000E+00  0.0000E+00  0.2424E+00  0.2424E+00
    -45.879  0.0000E+00  0.0000E+00  0.2424E+00  0.2424E+00
    -45.661  0.0000E+00  0.0000E+00  0.2424E+00  0.2424E+00
    -45.443  0.0000E+00  0.0000E+00  0.2424E+00  0.2424E+00
    -45.225  0.0000E+00  0.0000E+00  0.2424E+00  0.2424E+00
    -45.007  0.0000E+00  0.0000E+00  0.2424E+00  0.2424E+00
    -44.789  0.0000E+00  0.0000E+00  0.2424E+00  0.2424E+00
    -44.572  0.0000E+00  0.0000E+00  0.2424E+00  0.2424E+00
    -44.354  0.0000E+00  0.0000E+00  0.2424E+00  0.2424E+00
    -44.136  0.0000E+00  0.0000E+00  0.2424E+00  0.2424E+00
    -43.918  0.0000E+00  0.0000E+00  0.2424E+00  0.2424E+00
    -43.700  0.0000E+00  0.0000E+00  0.2424E+00  0.2424E+00
    -43.482  0.0000E+00  0.0000E+00  0.2424E+00  0.2424E+00
    -43.264  0.0000E+00  0.0000E+00  0.2424E+00  0.2424E+00
    -43.046  0.0000E+00  0.0000E+00  0.2424E+00  0.2424E+00
    -42.828  0.0000E+00  0.0000E+00  0.2424E+00  0.2424E+00
    -42.611  0.0000E+00  0.0000E+00  0.2424E+00  0.2424E+00
    -42.393  0.0000E+00  0.0000E+00  0.2424E+00  0.2424E+00
    -42.175  0.0000E+00  0.0000E+00  0.2424E+00  0.2424E+00
    -41.957  0.0000E+00  0.0000E+00  0.2424E+00  0.2424E+00
    -41.739  0.0000E+00  0.0000E+00  0.2424E+00  0.2424E+00
    -41.521  0.0000E+00  0.0000E+00  0.2424E+00  0.2424E+00
    -41.303  0.0000E+00  0.0000E+00  0.2424E+00  0.2424E+00
    -41.085  0.0000E+00  0.0000E+00  0.2424E+00  0.2424E+00
    -40.867  0.0000E+00  0.0000E+00  0.2424E+00  0.2424E+00
    -40.650  0.0000E+00  0.0000E+00  0.2424E+00  0.2424E+00
    -40.432  0.0000E+00  0.0000E+00  0.2424E+00  0.2424E+00
    -40.214  0.0000E+00  0.0000E+00  0.2424E+00  0.2424E+00
    -39.996  0.0000E+00  0.0000E+00  0.2424E+00  0.2424E+00
    -39.778  0.0000E+00  0.0000E+00  0.2424E+00  0.2424E+00
    -39.560  0.0000E+00  0.0000E+00  0.2424E+00  0.2424E+00
    -39.342  0.0000E+00  0.0000E+00  0.2424E+00  0.2424E+00
    -39.124  0.0000E+00  0.0000E+00  0.2424E+00  0.2424E+00
    -38.906  0.0000E+00  0.0000E+00  0.2424E+00  0.2424E+00
    -38.689  0.0000E+00  0.0000E+00  0.2424E+00  0.2424E+00
    -38.471  0.0000E+00  0.0000E+00  0.2424E+00  0.2424E+00
    -38.253  0.0000E+00  0.0000E+00  0.2424E+00  0.2424E+00
    -38.035  0.0000E+00  0.0000E+00  0.2424E+00  0.2424E+00
    -37.817  0.0000E+00  0.0000E+00  0.2424E+00  0.2424E+00
    -37.599  0.0000E+00  0.0000E+00  0.2424E+00  0.2424E+00
    -37.381  0.0000E+00  0.0000E+00  0.2424E+00  0.2424E+00
    -37.163  0.0000E+00  0.0000E+00  0.2424E+00  0.2424E+00
    -36.945  0.0000E+00  0.0000E+00  0.2424E+00  0.2424E+00
    -36.728  0.0000E+00  0.0000E+00  0.2424E+00  0.2424E+00
    -36.510  0.0000E+00  0.0000E+00  0.2424E+00  0.2424E+00
    -36.292  0.0000E+00  0.0000E+00  0.2424E+00  0.2424E+00
    -36.074  0.0000E+00  0.0000E+00  0.2424E+00  0.2424E+00
    -35.856  0.0000E+00  0.0000E+00  0.2424E+00  0.2424E+00
    -35.638  0.0000E+00  0.0000E+00  0.2424E+00  0.2424E+00
    -35.420  0.0000E+00  0.0000E+00  0.2424E+00  0.2424E+00
    -35.202  0.0000E+00  0.0000E+00  0.2424E+00  0.2424E+00
    -34.984  0.0000E+00  0.0000E+00  0.2424E+00  0.2424E+00
    -34.767  0.0000E+00  0.0000E+00  0.2424E+00  0.2424E+00
    -34.549  0.0000E+00  0.0000E+00  0.2424E+00  0.2424E+00
    -34.331  0.0000E+00  0.0000E+00  0.2424E+00  0.2424E+00
    -34.113  0.0000E+00  0.0000E+00  0.2424E+00  0.2424E+00
    -33.895  0.0000E+00  0.0000E+00  0.2424E+00  0.2424E+00
    -33.677  0.0000E+00  0.0000E+00  0.2424E+00  0.2424E+00
    -33.459  0.0000E+00  0.0000E+00  0.2424E+00  0.2424E+00
    -33.241  0.0000E+00  0.0000E+00  0.2424E+00  0.2424E+00
    -33.023  0.0000E+00  0.0000E+00  0.2424E+00  0.2424E+00
    -32.806  0.0000E+00  0.0000E+00  0.2424E+00  0.2424E+00
    -32.588  0.0000E+00  0.0000E+00  0.2424E+00  0.2424E+00
    -32.370  0.0000E+00  0.0000E+00  0.2424E+00  0.2424E+00
    -32.152  0.0000E+00  0.0000E+00  0.2424E+00  0.2424E+00
    -31.934  0.0000E+00  0.0000E+00  0.2424E+00  0.2424E+00
    -31.716  0.0000E+00  0.0000E+00  0.2424E+00  0.2424E+00
    -31.498  0.0000E+00  0.0000E+00  0.2424E+00  0.2424E+00
    -31.280  0.0000E+00  0.0000E+00  0.2424E+00  0.2424E+00
    -31.062  0.0000E+00  0.0000E+00  0.2424E+00  0.2424E+00
    -30.845  0.0000E+00  0.0000E+00  0.2424E+00  0.2424E+00
    -30.627  0.0000E+00  0.0000E+00  0.2424E+00  0.2424E+00
    -30.409  0.0000E+00  0.0000E+00  0.2424E+00  0.2424E+00
    -30.191  0.0000E+00  0.0000E+00  0.2424E+00  0.2424E+00
    -29.973  0.0000E+00  0.0000E+00  0.2424E+00  0.2424E+00
    -29.755  0.0000E+00  0.0000E+00  0.2424E+00  0.2424E+00
    -29.537  0.0000E+00  0.0000E+00  0.2424E+00  0.2424E+00
    -29.319  0.0000E+00  0.0000E+00  0.2424E+00  0.2424E+00
    -29.101  0.0000E+00  0.0000E+00  0.2424E+00  0.2424E+00
    -28.884  0.0000E+00  0.0000E+00  0.2424E+00  0.2424E+00
    -28.666  0.0000E+00  0.0000E+00  0.2424E+00  0.2424E+00
    -28.448  0.0000E+00  0.0000E+00  0.2424E+00  0.2424E+00
    -28.230  0.0000E+00  0.0000E+00  0.2424E+00  0.2424E+00
    -28.012  0.0000E+00  0.0000E+00  0.2424E+00  0.2424E+00
    -27.794  0.0000E+00  0.0000E+00  0.2424E+00  0.2424E+00
    -27.576  0.0000E+00  0.0000E+00  0.2424E+00  0.2424E+00
    -27.358  0.0000E+00  0.0000E+00  0.2424E+00  0.2424E+00
    -27.140  0.0000E+00  0.0000E+00  0.2424E+00  0.2424E+00
    -26.923  0.0000E+00  0.0000E+00  0.2424E+00  0.2424E+00
    -26.705  0.0000E+00  0.0000E+00  0.2424E+00  0.2424E+00
    -26.487  0.0000E+00  0.0000E+00  0.2424E+00  0.2424E+00
    -26.269  0.0000E+00  0.0000E+00  0.2424E+00  0.2424E+00
    -26.051  0.0000E+00  0.0000E+00  0.2424E+00  0.2424E+00
    -25.833  0.0000E+00  0.0000E+00  0.2424E+00  0.2424E+00
    -25.615  0.0000E+00  0.0000E+00  0.2424E+00  0.2424E+00
    -25.397  0.0000E+00  0.0000E+00  0.2424E+00  0.2424E+00
    -25.179  0.0000E+00  0.0000E+00  0.2424E+00  0.2424E+00
    -24.962  0.0000E+00  0.0000E+00  0.2424E+00  0.2424E+00
    -24.744  0.0000E+00  0.0000E+00  0.2424E+00  0.2424E+00
    -24.526  0.0000E+00  0.0000E+00  0.2424E+00  0.2424E+00
    -24.308  0.0000E+00  0.0000E+00  0.2424E+00  0.2424E+00
    -24.090  0.0000E+00  0.0000E+00  0.2424E+00  0.2424E+00
    -23.872  0.0000E+00  0.0000E+00  0.2424E+00  0.2424E+00
    -23.654  0.0000E+00  0.0000E+00  0.2424E+00  0.2424E+00
    -23.436  0.0000E+00  0.0000E+00  0.2424E+00  0.2424E+00
    -23.218  0.0000E+00  0.0000E+00  0.2424E+00  0.2424E+00
    -23.001  0.0000E+00  0.0000E+00  0.2424E+00  0.2424E+00
    -22.783  0.0000E+00  0.0000E+00  0.2424E+00  0.2424E+00
    -22.565  0.0000E+00  0.0000E+00  0.2424E+00  0.2424E+00
    -22.347  0.0000E+00  0.0000E+00  0.2424E+00  0.2424E+00
    -22.129  0.0000E+00  0.0000E+00  0.2424E+00  0.2424E+00
    -21.911  0.0000E+00  0.0000E+00  0.2424E+00  0.2424E+00
    -21.693  0.0000E+00  0.0000E+00  0.2424E+00  0.2424E+00
    -21.475  0.0000E+00  0.0000E+00  0.2424E+00  0.2424E+00
    -21.257  0.0000E+00  0.0000E+00  0.2424E+00  0.2424E+00
    -21.040  0.0000E+00  0.0000E+00  0.2424E+00  0.2424E+00
    -20.822  0.0000E+00  0.0000E+00  0.2424E+00  0.2424E+00
    -20.604  0.0000E+00  0.0000E+00  0.2424E+00  0.2424E+00
    -20.386  0.0000E+00  0.0000E+00  0.2424E+00  0.2424E+00
    -20.168  0.0000E+00  0.0000E+00  0.2424E+00  0.2424E+00
    -19.950  0.0000E+00  0.0000E+00  0.2424E+00  0.2424E+00
    -19.732  0.0000E+00  0.0000E+00  0.2424E+00  0.2424E+00
    -19.514  0.0000E+00  0.0000E+00  0.2424E+00  0.2424E+00
    -19.296  0.0000E+00  0.0000E+00  0.2424E+00  0.2424E+00
    -19.079  0.0000E+00  0.0000E+00  0.2424E+00  0.2424E+00
    -18.861  0.0000E+00  0.0000E+00  0.2424E+00  0.2424E+00
    -18.643  0.0000E+00  0.0000E+00  0.2424E+00  0.2424E+00
    -18.425  0.0000E+00  0.0000E+00  0.2424E+00  0.2424E+00
    -18.207  0.0000E+00  0.0000E+00  0.2424E+00  0.2424E+00
    -17.989  0.0000E+00  0.0000E+00  0.2424E+00  0.2424E+00
    -17.771  0.0000E+00  0.0000E+00  0.2424E+00  0.2424E+00
    -17.553  0.0000E+00  0.0000E+00  0.2424E+00  0.2424E+00
    -17.335  0.0000E+00  0.0000E+00  0.2424E+00  0.2424E+00
    -17.118  0.0000E+00  0.0000E+00  0.2424E+00  0.2424E+00
    -16.900  0.0000E+00  0.0000E+00  0.2424E+00  0.2424E+00
    -16.682  0.0000E+00  0.0000E+00  0.2424E+00  0.2424E+00
    -16.464  0.0000E+00  0.0000E+00  0.2424E+00  0.2424E+00
    -16.246  0.0000E+00  0.0000E+00  0.2424E+00  0.2424E+00
    -16.028  0.0000E+00  0.0000E+00  0.2424E+00  0.2424E+00
    -15.810  0.0000E+00  0.0000E+00  0.2424E+00  0.2424E+00
    -15.592  0.0000E+00  0.0000E+00  0.2424E+00  0.2424E+00
    -15.374  0.0000E+00  0.0000E+00  0.2424E+00  0.2424E+00
    -15.157  0.0000E+00  0.0000E+00  0.2424E+00  0.2424E+00
    -14.939  0.0000E+00  0.0000E+00  0.2424E+00  0.2424E+00
    -14.721  0.0000E+00  0.0000E+00  0.2424E+00  0.2424E+00
    -14.503  0.0000E+00  0.0000E+00  0.2424E+00  0.2424E+00
    -14.285  0.0000E+00  0.0000E+00  0.2424E+00  0.2424E+00
    -14.067  0.0000E+00  0.0000E+00  0.2424E+00  0.2424E+00
    -13.849  0.0000E+00  0.0000E+00  0.2424E+00  0.2424E+00
    -13.631  0.0000E+00  0.0000E+00  0.2424E+00  0.2424E+00
    -13.413  0.0000E+00  0.0000E+00  0.2424E+00  0.2424E+00
    -13.196  0.0000E+00  0.0000E+00  0.2424E+00  0.2424E+00
    -12.978  0.0000E+00  0.0000E+00  0.2424E+00  0.2424E+00
    -12.760  0.0000E+00  0.0000E+00  0.2424E+00  0.2424E+00
    -12.542  0.0000E+00  0.0000E+00  0.2424E+00  0.2424E+00
    -12.324  0.0000E+00  0.0000E+00  0.2424E+00  0.2424E+00
    -12.106  0.0000E+00  0.0000E+00  0.2424E+00  0.2424E+00
    -11.888  0.0000E+00  0.0000E+00  0.2424E+00  0.2424E+00
    -11.670  0.0000E+00  0.0000E+00  0.2424E+00  0.2424E+00
    -11.452  0.0000E+00  0.0000E+00  0.2424E+00  0.2424E+00
    -11.235  0.0000E+00  0.0000E+00  0.2424E+00  0.2424E+00
    -11.017  0.0000E+00  0.0000E+00  0.2424E+00  0.2424E+00
    -10.799  0.0000E+00  0.0000E+00  0.2424E+00  0.2424E+00
    -10.581  0.1692E-08  0.1692E-08  0.2424E+00  0.2424E+00
    -10.363  0.1508E-02  0.1508E-02  0.2428E+00  0.2428E+00
    -10.145  0.1012E-01  0.1012E-01  0.2450E+00  0.2450E+00
     -9.927  0.1907E-01  0.1907E-01  0.2491E+00  0.2491E+00
     -9.709  0.2604E-01  0.2604E-01  0.2548E+00  0.2548E+00
     -9.491  0.3028E-01  0.3028E-01  0.2614E+00  0.2614E+00
     -9.274  0.3969E-01  0.3969E-01  0.2700E+00  0.2700E+00
     -9.056  0.7518E-01  0.7518E-01  0.2864E+00  0.2864E+00
     -8.838  0.7162E-01  0.7162E-01  0.3020E+00  0.3020E+00
     -8.620  0.7374E-01  0.7374E-01  0.3181E+00  0.3181E+00
     -8.402  0.2343E-01  0.2343E-01  0.3232E+00  0.3232E+00
     -8.184  0.1956E-03  0.1956E-03  0.3232E+00  0.3232E+00
     -7.966  0.0000E+00  0.0000E+00  0.3232E+00  0.3232E+00
     -7.748  0.0000E+00  0.0000E+00  0.3232E+00  0.3232E+00
     -7.530  0.0000E+00  0.0000E+00  0.3232E+00  0.3232E+00
     -7.313  0.0000E+00  0.0000E+00  0.3232E+00  0.3232E+00
     -7.095  0.0000E+00  0.0000E+00  0.3232E+00  0.3232E+00
     -6.877  0.0000E+00  0.0000E+00  0.3232E+00  0.3232E+00
     -6.659  0.0000E+00  0.0000E+00  0.3232E+00  0.3232E+00
     -6.441  0.0000E+00  0.0000E+00  0.3232E+00  0.3232E+00
     -6.223  0.0000E+00  0.0000E+00  0.3232E+00  0.3232E+00
     -6.005  0.0000E+00  0.0000E+00  0.3232E+00  0.3232E+00
     -5.787  0.0000E+00  0.0000E+00  0.3232E+00  0.3232E+00
     -5.569  0.0000E+00  0.0000E+00  0.3232E+00  0.3232E+00
     -5.352  0.0000E+00  0.0000E+00  0.3232E+00  0.3232E+00
     -5.134  0.0000E+00  0.0000E+00  0.3232E+00  0.3232E+00
     -4.916  0.0000E+00  0.0000E+00  0.3232E+00  0.3232E+00
     -4.698  0.0000E+00  0.0000E+00  0.3232E+00  0.3232E+00
     -4.480  0.0000E+00  0.0000E+00  0.3232E+00  0.3232E+00
     -4.262  0.0000E+00  0.0000E+00  0.3232E+00  0.3232E+00
     -4.044  0.0000E+00  0.0000E+00  0.3232E+00  0.3232E+00
     -3.826  0.0000E+00  0.0000E+00  0.3232E+00  0.3232E+00
     -3.608  0.0000E+00  0.0000E+00  0.3232E+00  0.3232E+00
     -3.391  0.0000E+00  0.0000E+00  0.3232E+00  0.3232E+00
     -3.173  0.0000E+00  0.0000E+00  0.3232E+00  0.3232E+00
     -2.955  0.0000E+00  0.0000E+00  0.3232E+00  0.3232E+00
     -2.737  0.0000E+00  0.0000E+00  0.3232E+00  0.3232E+00
     -2.519  0.0000E+00  0.0000E+00  0.3232E+00  0.3232E+00
     -2.301  0.1810E-06  0.1810E-06  0.3232E+00  0.3232E+00
     -2.083  0.9868E-03  0.9868E-03  0.3234E+00  0.3234E+00
     -1.865  0.8495E-02  0.8495E-02  0.3253E+00  0.3253E+00
     -1.647  0.3679E-01  0.3679E-01  0.3333E+00  0.3333E+00
     -1.430  0.6607E-01  0.6607E-01  0.3477E+00  0.3477E+00
     -1.212  0.7049E-01  0.7049E-01  0.3631E+00  0.3631E+00
     -0.994  0.5221E-01  0.5221E-01  0.3744E+00  0.3744E+00
     -0.776  0.6077E-01  0.6077E-01  0.3877E+00  0.3877E+00
     -0.558  0.4634E-01  0.4634E-01  0.3978E+00  0.3978E+00
     -0.340  0.5764E-01  0.5764E-01  0.4103E+00  0.4103E+00
     -0.122  0.6292E-01  0.6292E-01  0.4240E+00  0.4240E+00
      0.096  0.8186E-01  0.8186E-01  0.4419E+00  0.4419E+00
      0.314  0.1044E+00  0.1044E+00  0.4646E+00  0.4646E+00
      0.531  0.1095E+00  0.1095E+00  0.4885E+00  0.4885E+00
      0.749  0.1133E+00  0.1133E+00  0.5132E+00  0.5132E+00
      0.967  0.9339E-01  0.9339E-01  0.5335E+00  0.5335E+00
      1.185  0.7745E-01  0.7745E-01  0.5504E+00  0.5504E+00
      1.403  0.7309E-01  0.7309E-01  0.5663E+00  0.5663E+00
      1.621  0.1159E+00  0.1159E+00  0.5916E+00  0.5916E+00
      1.839  0.1101E+00  0.1101E+00  0.6156E+00  0.6156E+00
      2.057  0.1547E+00  0.1547E+00  0.6493E+00  0.6493E+00
      2.275  0.1742E+00  0.1742E+00  0.6872E+00  0.6872E+00
      2.492  0.1153E+00  0.1153E+00  0.7123E+00  0.7123E+00
      2.710  0.6991E-01  0.6991E-01  0.7276E+00  0.7276E+00
      2.928  0.7077E-01  0.7077E-01  0.7430E+00  0.7430E+00
      3.146  0.6516E-01  0.6516E-01  0.7572E+00  0.7572E+00
      3.364  0.4367E-01  0.4367E-01  0.7667E+00  0.7667E+00
      3.582  0.4594E-01  0.4594E-01  0.7767E+00  0.7767E+00
      3.800  0.6721E-01  0.6721E-01  0.7914E+00  0.7914E+00
      4.018  0.8073E-01  0.8073E-01  0.8090E+00  0.8090E+00
      4.236  0.6295E-01  0.6295E-01  0.8227E+00  0.8227E+00
      4.453  0.1343E+00  0.1343E+00  0.8519E+00  0.8519E+00
      4.671  0.1131E+00  0.1131E+00  0.8766E+00  0.8766E+00
      4.889  0.9547E-01  0.9548E-01  0.8974E+00  0.8974E+00
      5.107  0.9483E-01  0.9483E-01  0.9181E+00  0.9181E+00
      5.325  0.8463E-01  0.8461E-01  0.9365E+00  0.9365E+00
      5.543  0.9497E-01  0.9502E-01  0.9572E+00  0.9572E+00
      5.761  0.1376E-01  0.1369E-01  0.9602E+00  0.9602E+00
      5.979  0.1248E-01  0.1259E-01  0.9629E+00  0.9629E+00
      6.197  0.1529E-01  0.1513E-01  0.9662E+00  0.9662E+00
      6.414  0.1175E-01  0.1183E-01  0.9688E+00  0.9688E+00
      6.632  0.8897E-02  0.8449E-02  0.9707E+00  0.9706E+00
      6.850  0.7518E-02  0.7979E-02  0.9724E+00  0.9724E+00
      7.068  0.7934E-02  0.7913E-02  0.9741E+00  0.9741E+00
      7.286  0.1392E-01  0.1388E-01  0.9771E+00  0.9771E+00
      7.504  0.1822E-01  0.1796E-01  0.9811E+00  0.9810E+00
      7.722  0.2709E-01  0.2644E-01  0.9870E+00  0.9868E+00
      7.940  0.4179E-01  0.4200E-01  0.9961E+00  0.9960E+00
      8.158  0.3577E-01  0.3503E-01  0.1004E+01  0.1004E+01
      8.375  0.2017E-01  0.2154E-01  0.1008E+01  0.1008E+01
      8.593  0.6486E-02  0.6887E-02  0.1010E+01  0.1010E+01
      8.811  0.1767E-02  0.1470E-02  0.1010E+01  0.1010E+01
      9.029  0.4041E-07  0.7977E-08  0.1010E+01  0.1010E+01
      9.247  0.0000E+00  0.0000E+00  0.1010E+01  0.1010E+01
      9.465  0.0000E+00  0.0000E+00  0.1010E+01  0.1010E+01
      9.683  0.0000E+00  0.0000E+00  0.1010E+01  0.1010E+01
      9.901  0.0000E+00  0.0000E+00  0.1010E+01  0.1010E+01
     10.119  0.0000E+00  0.0000E+00  0.1010E+01  0.1010E+01
     10.336  0.0000E+00  0.0000E+00  0.1010E+01  0.1010E+01
     10.554  0.0000E+00  0.0000E+00  0.1010E+01  0.1010E+01
     10.772  0.0000E+00  0.0000E+00  0.1010E+01  0.1010E+01
     10.990  0.0000E+00  0.0000E+00  0.1010E+01  0.1010E+01
     11.208  0.0000E+00  0.0000E+00  0.1010E+01  0.1010E+01
     11.426  0.0000E+00  0.0000E+00  0.1010E+01  0.1010E+01
     11.644  0.0000E+00  0.0000E+00  0.1010E+01  0.1010E+01
     11.64381688    -53.72283402  301      4.00588694      1.00000000
    -53.723  0.0000E+00  0.0000E+00  0.0000E+00  0.0000E+00  0.0000E+00  0.0000E+00  0.0000E+00  0.0000E+00  0.0000E+00  0.0000E+00  0.0000E+00  0.0000E+00  0.0000E+00  0.0000E+00  0.0000E+00  0.0000E+00  0.0000E+00  0.0000E+00
    -53.505  0.0000E+00  0.0000E+00  0.0000E+00  0.0000E+00  0.0000E+00  0.0000E+00  0.0000E+00  0.0000E+00  0.0000E+00  0.0000E+00  0.0000E+00  0.0000E+00  0.0000E+00  0.0000E+00  0.0000E+00  0.0000E+00  0.0000E+00  0.0000E+00
    -53.287  0.0000E+00  0.0000E+00  0.0000E+00  0.0000E+00  0.0000E+00  0.0000E+00  0.0000E+00  0.0000E+00  0.0000E+00  0.0000E+00  0.0000E+00  0.0000E+00  0.0000E+00  0.0000E+00  0.0000E+00  0.0000E+00  0.0000E+00  0.0000E+00
    -53.069  0.0000E+00  0.0000E+00  0.0000E+00  0.0000E+00  0.0000E+00  0.0000E+00  0.0000E+00  0.0000E+00  0.0000E+00  0.0000E+00  0.0000E+00  0.0000E+00  0.0000E+00  0.0000E+00  0.0000E+00  0.0000E+00  0.0000E+00  0.0000E+00
    -52.851  0.0000E+00  0.0000E+00  0.0000E+00  0.0000E+00  0.0000E+00  0.0000E+00  0.0000E+00  0.0000E+00  0.0000E+00  0.0000E+00  0.0000E+00  0.0000E+00  0.0000E+00  0.0000E+00  0.0000E+00  0.0000E+00  0.0000E+00  0.0000E+00
    -52.633  0.0000E+00  0.0000E+00  0.0000E+00  0.0000E+00  0.0000E+00  0.0000E+00  0.0000E+00  0.0000E+00  0.0000E+00  0.0000E+00  0.0000E+00  0.0000E+00  0.0000E+00  0.0000E+00  0.0000E+00  0.0000E+00  0.0000E+00  0.0000E+00
    -52.416  0.0000E+00  0.0000E+00  0.0000E+00  0.0000E+00  0.0000E+00  0.0000E+00  0.0000E+00  0.0000E+00  0.0000E+00  0.0000E+00  0.0000E+00  0.0000E+00  0.0000E+00  0.0000E+00  0.0000E+00  0.0000E+00  0.0000E+00  0.0000E+00
    -52.198  0.0000E+00  0.0000E+00  0.0000E+00  0.0000E+00  0.0000E+00  0.0000E+00  0.0000E+00  0.0000E+00  0.0000E+00  0.0000E+00  0.0000E+00  0.0000E+00  0.0000E+00  0.0000E+00  0.0000E+00  0.0000E+00  0.0000E+00  0.0000E+00
    -51.980  0.0000E+00  0.0000E+00  0.0000E+00  0.0000E+00  0.0000E+00  0.0000E+00  0.0000E+00  0.0000E+00  0.0000E+00  0.0000E+00  0.0000E+00  0.0000E+00  0.0000E+00  0.0000E+00  0.0000E+00  0.0000E+00  0.0000E+00  0.0000E+00
    -51.762  0.0000E+00  0.0000E+00  0.0000E+00  0.0000E+00  0.0000E+00  0.0000E+00  0.0000E+00  0.0000E+00  0.0000E+00  0.0000E+00  0.0000E+00  0.0000E+00  0.0000E+00  0.0000E+00  0.0000E+00  0.0000E+00  0.0000E+00  0.0000E+00
    -51.544  0.0000E+00  0.0000E+00  0.0000E+00  0.0000E+00  0.0000E+00  0.0000E+00  0.0000E+00  0.0000E+00  0.0000E+00  0.0000E+00  0.0000E+00  0.0000E+00  0.0000E+00  0.0000E+00  0.0000E+00  0.0000E+00  0.0000E+00  0.0000E+00
    -51.326  0.0000E+00  0.0000E+00  0.0000E+00  0.0000E+00  0.0000E+00  0.0000E+00  0.0000E+00  0.0000E+00  0.0000E+00  0.0000E+00  0.0000E+00  0.0000E+00  0.0000E+00  0.0000E+00  0.0000E+00  0.0000E+00  0.0000E+00  0.0000E+00
    -51.108  0.0000E+00  0.0000E+00  0.0000E+00  0.0000E+00  0.0000E+00  0.0000E+00  0.0000E+00  0.0000E+00  0.0000E+00  0.0000E+00  0.0000E+00  0.0000E+00  0.0000E+00  0.0000E+00  0.0000E+00  0.0000E+00  0.0000E+00  0.0000E+00
    -50.890  0.6060E-15  0.2114E-10  0.1608E-04  0.1119E-08  0.6500E-04  0.1073E-09  0.6126E-13  0.4917E-12  0.2771E-10  0.5048E-13  0.2846E-14  0.6026E-11  0.2908E-14  0.6254E-11  0.1003E-09  0.6600E-14  0.2022E-14  0.2468E-10
    -50.672  0.5252E-06  0.1455E-05  0.1073E+01  0.7628E-04  0.3397E+01  0.5841E-05  0.8379E-01  0.1049E-06  0.2048E-05  0.8790E-08  0.1614E-09  0.3101E-06  0.2411E-06  0.4472E-06  0.6475E-05  0.4046E-09  0.7231E-06  0.1621E-05
    -50.455  0.8193E-04  0.3723E-05  0.3497E+01  0.2203E-03  0.1174E+01  0.5615E-06  0.2288E+01  0.1748E-05  0.6825E-05  0.1282E-06  0.4096E-09  0.1576E-07  0.3766E-04  0.1428E-05  0.2236E-05  0.1946E-09  0.1130E-03  0.4538E-05
    -50.237  0.7218E-04  0.3541E-08  0.8084E-03  0.1372E-06  0.2050E-03  0.9938E-09  0.2170E+01  0.7977E-06  0.1343E-08  0.6504E-07  0.3373E-09  0.9575E-10  0.3317E-04  0.1335E-08  0.3713E-09  0.1672E-09  0.9949E-04  0.1197E-08
    -50.019  0.1643E-06  0.5748E-11  0.4625E-12  0.2160E-09  0.1418E-13  0.2225E-11  0.3027E-01  0.8829E-08  0.3270E-12  0.7657E-09  0.8084E-12  0.2312E-11  0.7556E-07  0.3563E-11  0.2583E-12  0.5744E-11  0.2266E-06  0.2888E-11
    -49.801  0.0000E+00  0.0000E+00  0.0000E+00  0.0000E+00  0.0000E+00  0.0000E+00  0.0000E+00  0.0000E+00  0.0000E+00  0.0000E+00  0.0000E+00  0.0000E+00  0.0000E+00  0.0000E+00  0.0000E+00  0.0000E+00  0.0000E+00  0.0000E+00
    -49.583  0.0000E+00  0.0000E+00  0.0000E+00  0.0000E+00  0.0000E+00  0.0000E+00  0.0000E+00  0.0000E+00  0.0000E+00  0.0000E+00  0.0000E+00  0.0000E+00  0.0000E+00  0.0000E+00  0.0000E+00  0.0000E+00  0.0000E+00  0.0000E+00
    -49.365  0.0000E+00  0.0000E+00  0.0000E+00  0.0000E+00  0.0000E+00  0.0000E+00  0.0000E+00  0.0000E+00  0.0000E+00  0.0000E+00  0.0000E+00  0.0000E+00  0.0000E+00  0.0000E+00  0.0000E+00  0.0000E+00  0.0000E+00  0.0000E+00
    -49.147  0.0000E+00  0.0000E+00  0.0000E+00  0.0000E+00  0.0000E+00  0.0000E+00  0.0000E+00  0.0000E+00  0.0000E+00  0.0000E+00  0.0000E+00  0.0000E+00  0.0000E+00  0.0000E+00  0.0000E+00  0.0000E+00  0.0000E+00  0.0000E+00
    -48.929  0.0000E+00  0.0000E+00  0.0000E+00  0.0000E+00  0.0000E+00  0.0000E+00  0.0000E+00  0.0000E+00  0.0000E+00  0.0000E+00  0.0000E+00  0.0000E+00  0.0000E+00  0.0000E+00  0.0000E+00  0.0000E+00  0.0000E+00  0.0000E+00
    -48.711  0.0000E+00  0.0000E+00  0.0000E+00  0.0000E+00  0.0000E+00  0.0000E+00  0.0000E+00  0.0000E+00  0.0000E+00  0.0000E+00  0.0000E+00  0.0000E+00  0.0000E+00  0.0000E+00  0.0000E+00  0.0000E+00  0.0000E+00  0.0000E+00
    -48.494  0.0000E+00  0.0000E+00  0.0000E+00  0.0000E+00  0.0000E+00  0.0000E+00  0.0000E+00  0.0000E+00  0.0000E+00  0.0000E+00  0.0000E+00  0.0000E+00  0.0000E+00  0.0000E+00  0.0000E+00  0.0000E+00  0.0000E+00  0.0000E+00
    -48.276  0.0000E+00  0.0000E+00  0.0000E+00  0.0000E+00  0.0000E+00  0.0000E+00  0.0000E+00  0.0000E+00  0.0000E+00  0.0000E+00  0.0000E+00  0.0000E+00  0.0000E+00  0.0000E+00  0.0000E+00  0.0000E+00  0.0000E+00  0.0000E+00
    -48.058  0.1476E-07  0.7733E-09  0.7787E-06  0.8216E-02  0.1471E-07  0.9890E-02  0.7562E-09  0.2024E-03  0.2884E-10  0.1862E-07  0.1619E-08  0.1070E-11  0.4582E-08  0.3574E-09  0.3779E-12  0.2242E-07  0.1671E-07  0.1074E-08
    -47.840  0.3749E-05  0.4168E-04  0.1993E-03  0.2084E+01  0.3675E-05  0.2467E+01  0.1698E-05  0.1574E+01  0.1293E-06  0.4822E-05  0.4023E-06  0.1015E-08  0.1165E-05  0.1922E-04  0.1562E-09  0.5760E-05  0.4214E-05  0.5782E-04
    -47.622  0.1858E-05  0.1251E-03  0.8192E-04  0.1273E+01  0.5499E-06  0.1080E+01  0.1230E-05  0.1896E+01  0.1047E-06  0.3017E-05  0.3379E-07  0.2576E-08  0.7367E-06  0.5767E-04  0.1090E-09  0.2571E-05  0.2249E-05  0.1735E-03
    -47.404  0.1748E-05  0.2039E-04  0.7756E-04  0.1207E+01  0.5184E-06  0.1015E+01  0.4719E-06  0.1103E+01  0.4283E-07  0.2818E-05  0.3160E-07  0.6755E-09  0.6932E-06  0.9397E-05  0.8092E-10  0.2391E-05  0.2126E-05  0.2831E-04
    -47.186  0.1094E-15  0.3125E-11  0.3252E-14  0.1440E-15  0.1193E-17  0.8665E-16  0.3624E-12  0.1050E-05  0.3600E-13  0.4531E-16  0.2742E-16  0.1431E-15  0.3738E-16  0.1444E-11  0.4931E-16  0.2303E-16  0.3088E-16  0.4344E-11
    -46.968  0.0000E+00  0.0000E+00  0.0000E+00  0.0000E+00  0.0000E+00  0.0000E+00  0.0000E+00  0.0000E+00  0.0000E+00  0.0000E+00  0.0000E+00  0.0000E+00  0.0000E+00  0.0000E+00  0.0000E+00  0.0000E+00  0.0000E+00  0.0000E+00
    -46.750  0.0000E+00  0.0000E+00  0.0000E+00  0.0000E+00  0.0000E+00  0.0000E+00  0.0000E+00  0.0000E+00  0.0000E+00  0.0000E+00  0.0000E+00  0.0000E+00  0.0000E+00  0.0000E+00  0.0000E+00  0.0000E+00  0.0000E+00  0.0000E+00
    -46.533  0.0000E+00  0.0000E+00  0.0000E+00  0.0000E+00  0.0000E+00  0.0000E+00  0.0000E+00  0.0000E+00  0.0000E+00  0.0000E+00  0.0000E+00  0.0000E+00  0.0000E+00  0.0000E+00  0.0000E+00  0.0000E+00  0.0000E+00  0.0000E+00
    -46.315  0.0000E+00  0.0000E+00  0.0000E+00  0.0000E+00  0.0000E+00  0.0000E+00  0.0000E+00  0.0000E+00  0.0000E+00  0.0000E+00  0.0000E+00  0.0000E+00  0.0000E+00  0.0000E+00  0.0000E+00  0.0000E+00  0.0000E+00  0.0000E+00
    -46.097  0.0000E+00  0.0000E+00  0.0000E+00  0.0000E+00  0.0000E+00  0.0000E+00  0.0000E+00  0.0000E+00  0.0000E+00  0.0000E+00  0.0000E+00  0.0000E+00  0.0000E+00  0.0000E+00  0.0000E+00  0.0000E+00  0.0000E+00  0.0000E+00
    -45.879  0.0000E+00  0.0000E+00  0.0000E+00  0.0000E+00  0.0000E+00  0.0000E+00  0.0000E+00  0.0000E+00  0.0000E+00  0.0000E+00  0.0000E+00  0.0000E+00  0.0000E+00  0.0000E+00  0.0000E+00  0.0000E+00  0.0000E+00  0.0000E+00
    -45.661  0.0000E+00  0.0000E+00  0.0000E+00  0.0000E+00  0.0000E+00  0.0000E+00  0.0000E+00  0.0000E+00  0.0000E+00  0.0000E+00  0.0000E+00  0.0000E+00  0.0000E+00  0.0000E+00  0.0000E+00  0.0000E+00  0.0000E+00  0.0000E+00
    -45.443  0.0000E+00  0.0000E+00  0.0000E+00  0.0000E+00  0.0000E+00  0.0000E+00  0.0000E+00  0.0000E+00  0.0000E+00  0.0000E+00  0.0000E+00  0.0000E+00  0.0000E+00  0.0000E+00  0.0000E+00  0.0000E+00  0.0000E+00  0.0000E+00
    -45.225  0.0000E+00  0.0000E+00  0.0000E+00  0.0000E+00  0.0000E+00  0.0000E+00  0.0000E+00  0.0000E+00  0.0000E+00  0.0000E+00  0.0000E+00  0.0000E+00  0.0000E+00  0.0000E+00  0.0000E+00  0.0000E+00  0.0000E+00  0.0000E+00
    -45.007  0.0000E+00  0.0000E+00  0.0000E+00  0.0000E+00  0.0000E+00  0.0000E+00  0.0000E+00  0.0000E+00  0.0000E+00  0.0000E+00  0.0000E+00  0.0000E+00  0.0000E+00  0.0000E+00  0.0000E+00  0.0000E+00  0.0000E+00  0.0000E+00
    -44.789  0.0000E+00  0.0000E+00  0.0000E+00  0.0000E+00  0.0000E+00  0.0000E+00  0.0000E+00  0.0000E+00  0.0000E+00  0.0000E+00  0.0000E+00  0.0000E+00  0.0000E+00  0.0000E+00  0.0000E+00  0.0000E+00  0.0000E+00  0.0000E+00
    -44.572  0.0000E+00  0.0000E+00  0.0000E+00  0.0000E+00  0.0000E+00  0.0000E+00  0.0000E+00  0.0000E+00  0.0000E+00  0.0000E+00  0.0000E+00  0.0000E+00  0.0000E+00  0.0000E+00  0.0000E+00  0.0000E+00  0.0000E+00  0.0000E+00
    -44.354  0.0000E+00  0.0000E+00  0.0000E+00  0.0000E+00  0.0000E+00  0.0000E+00  0.0000E+00  0.0000E+00  0.0000E+00  0.0000E+00  0.0000E+00  0.0000E+00  0.0000E+00  0.0000E+00  0.0000E+00  0.0000E+00  0.0000E+00  0.0000E+00
    -44.136  0.0000E+00  0.0000E+00  0.0000E+00  0.0000E+00  0.0000E+00  0.0000E+00  0.0000E+00  0.0000E+00  0.0000E+00  0.0000E+00  0.0000E+00  0.0000E+00  0.0000E+00  0.0000E+00  0.0000E+00  0.0000E+00  0.0000E+00  0.0000E+00
    -43.918  0.0000E+00  0.0000E+00  0.0000E+00  0.0000E+00  0.0000E+00  0.0000E+00  0.0000E+00  0.0000E+00  0.0000E+00  0.0000E+00  0.0000E+00  0.0000E+00  0.0000E+00  0.0000E+00  0.0000E+00  0.0000E+00  0.0000E+00  0.0000E+00
    -43.700  0.0000E+00  0.0000E+00  0.0000E+00  0.0000E+00  0.0000E+00  0.0000E+00  0.0000E+00  0.0000E+00  0.0000E+00  0.0000E+00  0.0000E+00  0.0000E+00  0.0000E+00  0.0000E+00  0.0000E+00  0.0000E+00  0.0000E+00  0.0000E+00
    -43.482  0.0000E+00  0.0000E+00  0.0000E+00  0.0000E+00  0.0000E+00  0.0000E+00  0.0000E+00  0.0000E+00  0.0000E+00  0.0000E+00  0.0000E+00  0.0000E+00  0.0000E+00  0.0000E+00  0.0000E+00  0.0000E+00  0.0000E+00  0.0000E+00
    -43.264  0.0000E+00  0.0000E+00  0.0000E+00  0.0000E+00  0.0000E+00  0.0000E+00  0.0000E+00  0.0000E+00  0.0000E+00  0.0000E+00  0.0000E+00  0.0000E+00  0.0000E+00  0.0000E+00  0.0000E+00  0.0000E+00  0.0000E+00  0.0000E+00
    -43.046  0.0000E+00  0.0000E+00  0.0000E+00  0.0000E+00  0.0000E+00  0.0000E+00  0.0000E+00  0.0000E+00  0.0000E+00  0.0000E+00  0.0000E+00  0.0000E+00  0.0000E+00  0.0000E+00  0.0000E+00  0.0000E+00  0.0000E+00  0.0000E+00
    -42.828  0.0000E+00  0.0000E+00  0.0000E+00  0.0000E+00  0.0000E+00  0.0000E+00  0.0000E+00  0.0000E+00  0.0000E+00  0.0000E+00  0.0000E+00  0.0000E+00  0.0000E+00  0.0000E+00  0.0000E+00  0.0000E+00  0.0000E+00  0.0000E+00