       N       E                     dE             d eps       ncg     rms          rms(c)
DAV:   1     0.202687964289E+04    0.20269E+04   -0.88967E+04 34840   0.197E+03
DAV:   2     0.122198110593E+03   -0.19047E+04   -0.18500E+04 32000   0.576E+02
DAV:   3    -0.844948681606E+02   -0.20669E+03   -0.18407E+03 45360   0.188E+02
DAV:   4    -0.990371886231E+02   -0.14542E+02   -0.14176E+02 46860   0.517E+01
DAV:   5    -0.993819210878E+02   -0.34473E+00   -0.34385E+00 44320   0.832E+00    0.271E+01
RMM:   6    -0.112052024874E+03   -0.12670E+02   -0.16479E+02 32053   0.834E+01    0.502E+01
RMM:   7    -0.908274979838E+02    0.21225E+02   -0.41638E+01 32014   0.498E+01    0.102E+01
RMM:   8    -0.913656193465E+02   -0.53812E+00   -0.29811E+00 41092   0.501E+00    0.459E+00
RMM:   9    -0.914345032352E+02   -0.68884E-01   -0.81765E-01 45111   0.273E+00    0.246E+00
RMM:  10    -0.914404009659E+02   -0.58977E-02   -0.24211E-01 45854   0.153E+00    0.108E+00
RMM:  11    -0.914480565327E+02   -0.76556E-02   -0.47617E-02 43144   0.844E-01    0.392E-01
RMM:  12    -0.914525651203E+02   -0.45086E-02   -0.11522E-02 42921   0.340E-01    0.216E-01
RMM:  13    -0.914524869458E+02    0.78175E-04   -0.24990E-03 32271   0.178E-01    0.110E-01
RMM:  14    -0.914525262516E+02   -0.39306E-04   -0.81442E-04 22776   0.116E-01
   1 F= -.98369718E+02 E0= -.98360923E+02  d E =-.983697E+02  mag=    -0.0000
       N       E                     dE             d eps       ncg     rms          rms(c)
DAV:   1    -0.914905795616E+02   -0.38093E-01   -0.17412E+00 38100   0.456E+00    0.133E+00
RMM:   2    -0.914786857616E+02    0.11894E-01   -0.12859E-01 37470   0.190E+00    0.105E+00
RMM:   3    -0.914721147885E+02    0.65710E-02   -0.52586E-02 33595   0.140E+00    0.655E-01
RMM:   4    -0.914679439081E+02    0.41709E-02   -0.15871E-02 33715   0.681E-01    0.184E-01
RMM:   5    -0.914684579328E+02   -0.51402E-03   -0.56745E-03 35116   0.260E-01    0.119E-01
RMM:   6    -0.914683873588E+02    0.70574E-04   -0.93802E-04 25472   0.151E-01
   2 F= -.98384997E+02 E0= -.98375510E+02  d E =-.152789E-01  mag=     0.0000
       N       E                     dE             d eps       ncg     rms          rms(c)
DAV:   1    -0.914685733344E+02   -0.11540E-03   -0.93405E-03 38220   0.344E-01    0.115E-01
RMM:   2    -0.914684770623E+02    0.96272E-04   -0.73312E-04 22635   0.150E-01
   3 F= -.98385027E+02 E0= -.98375404E+02  d E =-.153086E-01  mag=     0.0000
       N       E                     dE             d eps       ncg     rms          rms(c)
DAV:   1    -0.914783575278E+02   -0.97842E-02   -0.23495E-01 35460   0.190E+00    0.619E-01
RMM:   2    -0.914729566498E+02    0.54009E-02   -0.11464E-02 35278   0.704E-01    0.406E-01
RMM:   3    -0.914723375042E+02    0.61915E-03   -0.95770E-03 32161   0.614E-01    0.349E-01
RMM:   4    -0.914711885544E+02    0.11489E-02   -0.30453E-03 29597   0.349E-01    0.858E-02
RMM:   5    -0.914712645570E+02   -0.76003E-04   -0.92325E-04 26674   0.112E-01
   4 F= -.98388205E+02 E0= -.98378685E+02  d E =-.317812E-02  mag=     0.0000
       N       E                     dE             d eps       ncg     rms          rms(c)
DAV:   1    -0.915467098288E+02   -0.75521E-01   -0.20631E+00 32480   0.572E+00    0.196E+00
RMM:   2    -0.914951770761E+02    0.51533E-01   -0.12293E-01 35020   0.239E+00    0.140E+00
RMM:   3    -0.914845830801E+02    0.10594E-01   -0.96395E-02 32090   0.201E+00    0.103E+00
RMM:   4    -0.914744992545E+02    0.10084E-01   -0.28423E-02 33091   0.991E-01    0.288E-01
RMM:   5    -0.914751511160E+02   -0.65186E-03   -0.91779E-03 35574   0.345E-01    0.194E-01
RMM:   6    -0.914749178839E+02    0.23323E-03   -0.16070E-03 28919   0.216E-01    0.965E-02
RMM:   7    -0.914748929263E+02    0.24958E-04   -0.68531E-04 22466   0.106E-01
   5 F= -.98393001E+02 E0= -.98383670E+02  d E =-.797452E-02  mag=     0.0000
       N       E                     dE             d eps       ncg     rms          rms(c)
DAV:   1    -0.914760019539E+02   -0.10841E-02   -0.18638E-01 34700   0.125E+00    0.328E-01
RMM:   2    -0.914759248929E+02    0.77061E-04   -0.11781E-02 32525   0.620E-01    0.262E-01
RMM:   3    -0.914758093317E+02    0.11556E-03   -0.52598E-03 32974   0.405E-01    0.144E-01
RMM:   4    -0.914757393689E+02    0.69963E-04   -0.14246E-03 27560   0.167E-01
   6 F= -.98394116E+02 E0= -.98384629E+02  d E =-.111479E-02  mag=     0.0000
       N       E                     dE             d eps       ncg     rms          rms(c)
DAV:   1    -0.914757637252E+02    0.45606E-04   -0.11124E-03 36340   0.129E-01    0.386E-02
RMM:   2    -0.914757676484E+02   -0.39232E-05   -0.11760E-04 16363   0.724E-02
   7 F= -.98394160E+02 E0= -.98384676E+02  d E =-.115821E-02  mag=     0.0000
