       N       E                     dE             d eps       ncg     rms          rms(c)
DAV:   1     0.202297810351E+04    0.20230E+04   -0.88938E+04 35040   0.197E+03
DAV:   2     0.121374124050E+03   -0.19016E+04   -0.18463E+04 32000   0.576E+02
DAV:   3    -0.847472121423E+02   -0.20612E+03   -0.18292E+03 45700   0.188E+02
DAV:   4    -0.991118144477E+02   -0.14365E+02   -0.14020E+02 47080   0.510E+01
DAV:   5    -0.994401985683E+02   -0.32838E+00   -0.32753E+00 44760   0.822E+00    0.275E+01
RMM:   6    -0.113150088855E+03   -0.13710E+02   -0.16934E+02 34827   0.844E+01    0.517E+01
RMM:   7    -0.907490159737E+02    0.22401E+02   -0.43630E+01 32075   0.505E+01    0.105E+01
RMM:   8    -0.913760959680E+02   -0.62708E+00   -0.35006E+00 46003   0.521E+00    0.496E+00
RMM:   9    -0.914440703926E+02   -0.67974E-01   -0.89792E-01 51374   0.282E+00    0.261E+00
RMM:  10    -0.914556577837E+02   -0.11587E-01   -0.26724E-01 51845   0.158E+00    0.121E+00
RMM:  11    -0.914599515302E+02   -0.42937E-02   -0.54936E-02 49951   0.875E-01    0.420E-01
RMM:  12    -0.914657868968E+02   -0.58354E-02   -0.12334E-02 48667   0.369E-01    0.242E-01
RMM:  13    -0.914656513294E+02    0.13557E-03   -0.30008E-03 39948   0.190E-01    0.138E-01
RMM:  14    -0.914654841257E+02    0.16720E-03   -0.98143E-04 29451   0.124E-01
   1 F= -.98383876E+02 E0= -.98383876E+02  d E =0.000000E+00  mag=    -0.0000
