  16  16   1   0
  0.2081250E+02  0.7603706E-09  0.7603706E-09  0.5851852E-09  0.5000000E-15
  1.000000000000000E-004
  CAR 
 unknown system                          
     10.72755573    -54.66035904  301      3.21552090      1.00000000
    -54.660  0.0000E+00  0.0000E+00  0.0000E+00  0.0000E+00
    -54.442  0.0000E+00  0.0000E+00  0.0000E+00  0.0000E+00
    -54.224  0.0000E+00  0.0000E+00  0.0000E+00  0.0000E+00
    -54.006  0.0000E+00  0.0000E+00  0.0000E+00  0.0000E+00
    -53.789  0.0000E+00  0.0000E+00  0.0000E+00  0.0000E+00
    -53.571  0.0000E+00  0.0000E+00  0.0000E+00  0.0000E+00
    -53.353  0.0000E+00  0.0000E+00  0.0000E+00  0.0000E+00
    -53.135  0.0000E+00  0.0000E+00  0.0000E+00  0.0000E+00
    -52.917  0.0000E+00  0.0000E+00  0.0000E+00  0.0000E+00
    -52.699  0.0000E+00  0.0000E+00  0.0000E+00  0.0000E+00
    -52.481  0.0000E+00  0.0000E+00  0.0000E+00  0.0000E+00
    -52.263  0.0000E+00  0.0000E+00  0.0000E+00  0.0000E+00
    -52.045  0.0000E+00  0.0000E+00  0.0000E+00  0.0000E+00
    -51.827  0.0000E+00  0.0000E+00  0.0000E+00  0.0000E+00
    -51.609  0.1835E+02  0.1835E+02  0.4000E+01  0.4000E+01
    -51.391  0.3492E+02  0.3492E+02  0.9922E+01  0.9922E+01
    -51.173  0.9176E+01  0.9176E+01  0.1200E+02  0.1200E+02
    -50.955  0.0000E+00  0.0000E+00  0.1200E+02  0.1200E+02
    -50.737  0.0000E+00  0.0000E+00  0.1200E+02  0.1200E+02
    -50.519  0.0000E+00  0.0000E+00  0.1200E+02  0.1200E+02
    -50.301  0.0000E+00  0.0000E+00  0.1200E+02  0.1200E+02
    -50.083  0.0000E+00  0.0000E+00  0.1200E+02  0.1200E+02
    -49.865  0.0000E+00  0.0000E+00  0.1200E+02  0.1200E+02
    -49.647  0.0000E+00  0.0000E+00  0.1200E+02  0.1200E+02
    -49.429  0.0000E+00  0.0000E+00  0.1200E+02  0.1200E+02
    -49.211  0.0000E+00  0.0000E+00  0.1200E+02  0.1200E+02
    -48.993  0.0000E+00  0.0000E+00  0.1200E+02  0.1200E+02
    -48.775  0.0000E+00  0.0000E+00  0.1200E+02  0.1200E+02
    -48.557  0.3531E+02  0.3531E+02  0.1807E+02  0.1807E+02
    -48.340  0.2622E+02  0.2622E+02  0.2400E+02  0.2400E+02
    -48.122  0.0000E+00  0.0000E+00  0.2400E+02  0.2400E+02
    -47.904  0.0000E+00  0.0000E+00  0.2400E+02  0.2400E+02
    -47.686  0.0000E+00  0.0000E+00  0.2400E+02  0.2400E+02
    -47.468  0.0000E+00  0.0000E+00  0.2400E+02  0.2400E+02
    -47.250  0.0000E+00  0.0000E+00  0.2400E+02  0.2400E+02
    -47.032  0.0000E+00  0.0000E+00  0.2400E+02  0.2400E+02
    -46.814  0.0000E+00  0.0000E+00  0.2400E+02  0.2400E+02
    -46.596  0.0000E+00  0.0000E+00  0.2400E+02  0.2400E+02
    -46.378  0.0000E+00  0.0000E+00  0.2400E+02  0.2400E+02
    -46.160  0.0000E+00  0.0000E+00  0.2400E+02  0.2400E+02
    -45.942  0.0000E+00  0.0000E+00  0.2400E+02  0.2400E+02
    -45.724  0.0000E+00  0.0000E+00  0.2400E+02  0.2400E+02
    -45.506  0.0000E+00  0.0000E+00  0.2400E+02  0.2400E+02
    -45.288  0.0000E+00  0.0000E+00  0.2400E+02  0.2400E+02
    -45.070  0.0000E+00  0.0000E+00  0.2400E+02  0.2400E+02
    -44.852  0.0000E+00  0.0000E+00  0.2400E+02  0.2400E+02
    -44.634  0.0000E+00  0.0000E+00  0.2400E+02  0.2400E+02
    -44.416  0.0000E+00  0.0000E+00  0.2400E+02  0.2400E+02
    -44.198  0.0000E+00  0.0000E+00  0.2400E+02  0.2400E+02
    -43.980  0.0000E+00  0.0000E+00  0.2400E+02  0.2400E+02
    -43.762  0.0000E+00  0.0000E+00  0.2400E+02  0.2400E+02
    -43.544  0.0000E+00  0.0000E+00  0.2400E+02  0.2400E+02
    -43.326  0.0000E+00  0.0000E+00  0.2400E+02  0.2400E+02
    -43.108  0.0000E+00  0.0000E+00  0.2400E+02  0.2400E+02
    -42.891  0.0000E+00  0.0000E+00  0.2400E+02  0.2400E+02
    -42.673  0.0000E+00  0.0000E+00  0.2400E+02  0.2400E+02
    -42.455  0.0000E+00  0.0000E+00  0.2400E+02  0.2400E+02
    -42.237  0.0000E+00  0.0000E+00  0.2400E+02  0.2400E+02
    -42.019  0.0000E+00  0.0000E+00  0.2400E+02  0.2400E+02
    -41.801  0.0000E+00  0.0000E+00  0.2400E+02  0.2400E+02
    -41.583  0.0000E+00  0.0000E+00  0.2400E+02  0.2400E+02
    -41.365  0.0000E+00  0.0000E+00  0.2400E+02  0.2400E+02
    -41.147  0.0000E+00  0.0000E+00  0.2400E+02  0.2400E+02
    -40.929  0.0000E+00  0.0000E+00  0.2400E+02  0.2400E+02
    -40.711  0.0000E+00  0.0000E+00  0.2400E+02  0.2400E+02
    -40.493  0.0000E+00  0.0000E+00  0.2400E+02  0.2400E+02
    -40.275  0.0000E+00  0.0000E+00  0.2400E+02  0.2400E+02
    -40.057  0.0000E+00  0.0000E+00  0.2400E+02  0.2400E+02
    -39.839  0.0000E+00  0.0000E+00  0.2400E+02  0.2400E+02
    -39.621  0.0000E+00  0.0000E+00  0.2400E+02  0.2400E+02
    -39.403  0.0000E+00  0.0000E+00  0.2400E+02  0.2400E+02
    -39.185  0.0000E+00  0.0000E+00  0.2400E+02  0.2400E+02
    -38.967  0.0000E+00  0.0000E+00  0.2400E+02  0.2400E+02
    -38.749  0.0000E+00  0.0000E+00  0.2400E+02  0.2400E+02
    -38.531  0.0000E+00  0.0000E+00  0.2400E+02  0.2400E+02
    -38.313  0.0000E+00  0.0000E+00  0.2400E+02  0.2400E+02
    -38.095  0.0000E+00  0.0000E+00  0.2400E+02  0.2400E+02
    -37.877  0.0000E+00  0.0000E+00  0.2400E+02  0.2400E+02
    -37.660  0.0000E+00  0.0000E+00  0.2400E+02  0.2400E+02
    -37.442  0.0000E+00  0.0000E+00  0.2400E+02  0.2400E+02
    -37.224  0.0000E+00  0.0000E+00  0.2400E+02  0.2400E+02
    -37.006  0.0000E+00  0.0000E+00  0.2400E+02  0.2400E+02
    -36.788  0.0000E+00  0.0000E+00  0.2400E+02  0.2400E+02
    -36.570  0.0000E+00  0.0000E+00  0.2400E+02  0.2400E+02
    -36.352  0.0000E+00  0.0000E+00  0.2400E+02  0.2400E+02
    -36.134  0.0000E+00  0.0000E+00  0.2400E+02  0.2400E+02
    -35.916  0.0000E+00  0.0000E+00  0.2400E+02  0.2400E+02
    -35.698  0.0000E+00  0.0000E+00  0.2400E+02  0.2400E+02
    -35.480  0.0000E+00  0.0000E+00  0.2400E+02  0.2400E+02
    -35.262  0.0000E+00  0.0000E+00  0.2400E+02  0.2400E+02
    -35.044  0.0000E+00  0.0000E+00  0.2400E+02  0.2400E+02
    -34.826  0.0000E+00  0.0000E+00  0.2400E+02  0.2400E+02
    -34.608  0.0000E+00  0.0000E+00  0.2400E+02  0.2400E+02
    -34.390  0.0000E+00  0.0000E+00  0.2400E+02  0.2400E+02
    -34.172  0.0000E+00  0.0000E+00  0.2400E+02  0.2400E+02
    -33.954  0.0000E+00  0.0000E+00  0.2400E+02  0.2400E+02
    -33.736  0.0000E+00  0.0000E+00  0.2400E+02  0.2400E+02
    -33.518  0.0000E+00  0.0000E+00  0.2400E+02  0.2400E+02
    -33.300  0.0000E+00  0.0000E+00  0.2400E+02  0.2400E+02
    -33.082  0.0000E+00  0.0000E+00  0.2400E+02  0.2400E+02
    -32.864  0.0000E+00  0.0000E+00  0.2400E+02  0.2400E+02
    -32.646  0.0000E+00  0.0000E+00  0.2400E+02  0.2400E+02
    -32.428  0.0000E+00  0.0000E+00  0.2400E+02  0.2400E+02
    -32.211  0.0000E+00  0.0000E+00  0.2400E+02  0.2400E+02
    -31.993  0.0000E+00  0.0000E+00  0.2400E+02  0.2400E+02
    -31.775  0.0000E+00  0.0000E+00  0.2400E+02  0.2400E+02
    -31.557  0.0000E+00  0.0000E+00  0.2400E+02  0.2400E+02
    -31.339  0.0000E+00  0.0000E+00  0.2400E+02  0.2400E+02
    -31.121  0.0000E+00  0.0000E+00  0.2400E+02  0.2400E+02
    -30.903  0.0000E+00  0.0000E+00  0.2400E+02  0.2400E+02
    -30.685  0.0000E+00  0.0000E+00  0.2400E+02  0.2400E+02
    -30.467  0.0000E+00  0.0000E+00  0.2400E+02  0.2400E+02
    -30.249  0.0000E+00  0.0000E+00  0.2400E+02  0.2400E+02
    -30.031  0.0000E+00  0.0000E+00  0.2400E+02  0.2400E+02
    -29.813  0.0000E+00  0.0000E+00  0.2400E+02  0.2400E+02
    -29.595  0.0000E+00  0.0000E+00  0.2400E+02  0.2400E+02
    -29.377  0.0000E+00  0.0000E+00  0.2400E+02  0.2400E+02
    -29.159  0.0000E+00  0.0000E+00  0.2400E+02  0.2400E+02
    -28.941  0.0000E+00  0.0000E+00  0.2400E+02  0.2400E+02
    -28.723  0.0000E+00  0.0000E+00  0.2400E+02  0.2400E+02
    -28.505  0.0000E+00  0.0000E+00  0.2400E+02  0.2400E+02
    -28.287  0.0000E+00  0.0000E+00  0.2400E+02  0.2400E+02
    -28.069  0.0000E+00  0.0000E+00  0.2400E+02  0.2400E+02
    -27.851  0.0000E+00  0.0000E+00  0.2400E+02  0.2400E+02
    -27.633  0.0000E+00  0.0000E+00  0.2400E+02  0.2400E+02
    -27.415  0.0000E+00  0.0000E+00  0.2400E+02  0.2400E+02
    -27.197  0.0000E+00  0.0000E+00  0.2400E+02  0.2400E+02
    -26.979  0.0000E+00  0.0000E+00  0.2400E+02  0.2400E+02
    -26.762  0.0000E+00  0.0000E+00  0.2400E+02  0.2400E+02
    -26.544  0.0000E+00  0.0000E+00  0.2400E+02  0.2400E+02
    -26.326  0.0000E+00  0.0000E+00  0.2400E+02  0.2400E+02
    -26.108  0.0000E+00  0.0000E+00  0.2400E+02  0.2400E+02
    -25.890  0.0000E+00  0.0000E+00  0.2400E+02  0.2400E+02
    -25.672  0.0000E+00  0.0000E+00  0.2400E+02  0.2400E+02
    -25.454  0.0000E+00  0.0000E+00  0.2400E+02  0.2400E+02
    -25.236  0.0000E+00  0.0000E+00  0.2400E+02  0.2400E+02
    -25.018  0.0000E+00  0.0000E+00  0.2400E+02  0.2400E+02
    -24.800  0.0000E+00  0.0000E+00  0.2400E+02  0.2400E+02
    -24.582  0.0000E+00  0.0000E+00  0.2400E+02  0.2400E+02
    -24.364  0.0000E+00  0.0000E+00  0.2400E+02  0.2400E+02
    -24.146  0.0000E+00  0.0000E+00  0.2400E+02  0.2400E+02
    -23.928  0.0000E+00  0.0000E+00  0.2400E+02  0.2400E+02
    -23.710  0.0000E+00  0.0000E+00  0.2400E+02  0.2400E+02
    -23.492  0.0000E+00  0.0000E+00  0.2400E+02  0.2400E+02
    -23.274  0.0000E+00  0.0000E+00  0.2400E+02  0.2400E+02
    -23.056  0.0000E+00  0.0000E+00  0.2400E+02  0.2400E+02
    -22.838  0.0000E+00  0.0000E+00  0.2400E+02  0.2400E+02
    -22.620  0.0000E+00  0.0000E+00  0.2400E+02  0.2400E+02
    -22.402  0.0000E+00  0.0000E+00  0.2400E+02  0.2400E+02
    -22.184  0.0000E+00  0.0000E+00  0.2400E+02  0.2400E+02
    -21.966  0.0000E+00  0.0000E+00  0.2400E+02  0.2400E+02
    -21.748  0.0000E+00  0.0000E+00  0.2400E+02  0.2400E+02
    -21.530  0.0000E+00  0.0000E+00  0.2400E+02  0.2400E+02
    -21.313  0.0000E+00  0.0000E+00  0.2400E+02  0.2400E+02
    -21.095  0.0000E+00  0.0000E+00  0.2400E+02  0.2400E+02
    -20.877  0.0000E+00  0.0000E+00  0.2400E+02  0.2400E+02
    -20.659  0.0000E+00  0.0000E+00  0.2400E+02  0.2400E+02
    -20.441  0.0000E+00  0.0000E+00  0.2400E+02  0.2400E+02
    -20.223  0.0000E+00  0.0000E+00  0.2400E+02  0.2400E+02
    -20.005  0.0000E+00  0.0000E+00  0.2400E+02  0.2400E+02
    -19.787  0.0000E+00  0.0000E+00  0.2400E+02  0.2400E+02
    -19.569  0.0000E+00  0.0000E+00  0.2400E+02  0.2400E+02
    -19.351  0.0000E+00  0.0000E+00  0.2400E+02  0.2400E+02
    -19.133  0.0000E+00  0.0000E+00  0.2400E+02  0.2400E+02
    -18.915  0.0000E+00  0.0000E+00  0.2400E+02  0.2400E+02
    -18.697  0.0000E+00  0.0000E+00  0.2400E+02  0.2400E+02
    -18.479  0.0000E+00  0.0000E+00  0.2400E+02  0.2400E+02
    -18.261  0.0000E+00  0.0000E+00  0.2400E+02  0.2400E+02
    -18.043  0.0000E+00  0.0000E+00  0.2400E+02  0.2400E+02
    -17.825  0.0000E+00  0.0000E+00  0.2400E+02  0.2400E+02
    -17.607  0.0000E+00  0.0000E+00  0.2400E+02  0.2400E+02
    -17.389  0.0000E+00  0.0000E+00  0.2400E+02  0.2400E+02
    -17.171  0.0000E+00  0.0000E+00  0.2400E+02  0.2400E+02
    -16.953  0.0000E+00  0.0000E+00  0.2400E+02  0.2400E+02
    -16.735  0.0000E+00  0.0000E+00  0.2400E+02  0.2400E+02
    -16.517  0.0000E+00  0.0000E+00  0.2400E+02  0.2400E+02
    -16.299  0.0000E+00  0.0000E+00  0.2400E+02  0.2400E+02
    -16.081  0.0000E+00  0.0000E+00  0.2400E+02  0.2400E+02
    -15.864  0.0000E+00  0.0000E+00  0.2400E+02  0.2400E+02
    -15.646  0.0000E+00  0.0000E+00  0.2400E+02  0.2400E+02
    -15.428  0.0000E+00  0.0000E+00  0.2400E+02  0.2400E+02
    -15.210  0.0000E+00  0.0000E+00  0.2400E+02  0.2400E+02
    -14.992  0.0000E+00  0.0000E+00  0.2400E+02  0.2400E+02
    -14.774  0.0000E+00  0.0000E+00  0.2400E+02  0.2400E+02
    -14.556  0.0000E+00  0.0000E+00  0.2400E+02  0.2400E+02
    -14.338  0.0000E+00  0.0000E+00  0.2400E+02  0.2400E+02
    -14.120  0.0000E+00  0.0000E+00  0.2400E+02  0.2400E+02
    -13.902  0.0000E+00  0.0000E+00  0.2400E+02  0.2400E+02
    -13.684  0.0000E+00  0.0000E+00  0.2400E+02  0.2400E+02
    -13.466  0.0000E+00  0.0000E+00  0.2400E+02  0.2400E+02
    -13.248  0.0000E+00  0.0000E+00  0.2400E+02  0.2400E+02
    -13.030  0.0000E+00  0.0000E+00  0.2400E+02  0.2400E+02
    -12.812  0.0000E+00  0.0000E+00  0.2400E+02  0.2400E+02
    -12.594  0.0000E+00  0.0000E+00  0.2400E+02  0.2400E+02
    -12.376  0.0000E+00  0.0000E+00  0.2400E+02  0.2400E+02
    -12.158  0.0000E+00  0.0000E+00  0.2400E+02  0.2400E+02
    -11.940  0.0000E+00  0.0000E+00  0.2400E+02  0.2400E+02
    -11.722  0.0000E+00  0.0000E+00  0.2400E+02  0.2400E+02
    -11.504  0.0000E+00  0.0000E+00  0.2400E+02  0.2400E+02
    -11.286  0.0000E+00  0.0000E+00  0.2400E+02  0.2400E+02
    -11.068  0.0000E+00  0.0000E+00  0.2400E+02  0.2400E+02
    -10.850  0.0000E+00  0.0000E+00  0.2400E+02  0.2400E+02
    -10.632  0.1065E+01  0.1065E+01  0.2406E+02  0.2406E+02
    -10.415  0.2461E+01  0.2461E+01  0.2440E+02  0.2440E+02
    -10.197  0.4057E+01  0.4057E+01  0.2497E+02  0.2497E+02
     -9.979  0.6331E+01  0.6331E+01  0.2583E+02  0.2583E+02
     -9.761  0.1564E+02  0.1564E+02  0.2760E+02  0.2760E+02
     -9.543  0.1632E+02  0.1632E+02  0.2983E+02  0.2983E+02
     -9.325  0.8248E+01  0.8248E+01  0.3184E+02  0.3184E+02
     -9.107  0.3711E+00  0.3711E+00  0.3200E+02  0.3200E+02
     -8.889  0.0000E+00  0.0000E+00  0.3200E+02  0.3200E+02
     -8.671  0.0000E+00  0.0000E+00  0.3200E+02  0.3200E+02
     -8.453  0.0000E+00  0.0000E+00  0.3200E+02  0.3200E+02
     -8.235  0.0000E+00  0.0000E+00  0.3200E+02  0.3200E+02
     -8.017  0.0000E+00  0.0000E+00  0.3200E+02  0.3200E+02
     -7.799  0.0000E+00  0.0000E+00  0.3200E+02  0.3200E+02
     -7.581  0.0000E+00  0.0000E+00  0.3200E+02  0.3200E+02
     -7.363  0.0000E+00  0.0000E+00  0.3200E+02  0.3200E+02
     -7.145  0.0000E+00  0.0000E+00  0.3200E+02  0.3200E+02
     -6.927  0.0000E+00  0.0000E+00  0.3200E+02  0.3200E+02
     -6.709  0.0000E+00  0.0000E+00  0.3200E+02  0.3200E+02
     -6.491  0.0000E+00  0.0000E+00  0.3200E+02  0.3200E+02
     -6.273  0.0000E+00  0.0000E+00  0.3200E+02  0.3200E+02
     -6.055  0.0000E+00  0.0000E+00  0.3200E+02  0.3200E+02
     -5.837  0.0000E+00  0.0000E+00  0.3200E+02  0.3200E+02
     -5.619  0.0000E+00  0.0000E+00  0.3200E+02  0.3200E+02
     -5.401  0.0000E+00  0.0000E+00  0.3200E+02  0.3200E+02
     -5.184  0.0000E+00  0.0000E+00  0.3200E+02  0.3200E+02
     -4.966  0.0000E+00  0.0000E+00  0.3200E+02  0.3200E+02
     -4.748  0.0000E+00  0.0000E+00  0.3200E+02  0.3200E+02
     -4.530  0.0000E+00  0.0000E+00  0.3200E+02  0.3200E+02
     -4.312  0.0000E+00  0.0000E+00  0.3200E+02  0.3200E+02
     -4.094  0.0000E+00  0.0000E+00  0.3200E+02  0.3200E+02
     -3.876  0.0000E+00  0.0000E+00  0.3200E+02  0.3200E+02
     -3.658  0.0000E+00  0.0000E+00  0.3200E+02  0.3200E+02
     -3.440  0.0000E+00  0.0000E+00  0.3200E+02  0.3200E+02
     -3.222  0.0000E+00  0.0000E+00  0.3200E+02  0.3200E+02
     -3.004  0.0000E+00  0.0000E+00  0.3200E+02  0.3200E+02
     -2.786  0.0000E+00  0.0000E+00  0.3200E+02  0.3200E+02
     -2.568  0.3163E+00  0.3163E+00  0.3201E+02  0.3201E+02
     -2.350  0.7658E+00  0.7658E+00  0.3212E+02  0.3212E+02
     -2.132  0.4964E+01  0.4964E+01  0.3260E+02  0.3260E+02
     -1.914  0.1157E+02  0.1157E+02  0.3407E+02  0.3407E+02
     -1.696  0.8892E+01  0.8892E+01  0.3589E+02  0.3589E+02
     -1.478  0.6306E+01  0.6306E+01  0.3710E+02  0.3710E+02
     -1.260  0.1030E+02  0.1030E+02  0.3853E+02  0.3853E+02
     -1.042  0.1301E+02  0.1301E+02  0.4049E+02  0.4049E+02
     -0.824  0.1021E+02  0.1021E+02  0.4199E+02  0.4199E+02
     -0.606  0.1675E+02  0.1675E+02  0.4421E+02  0.4421E+02
     -0.388  0.1560E+02  0.1560E+02  0.4689E+02  0.4689E+02
     -0.170  0.1187E+02  0.1187E+02  0.4888E+02  0.4888E+02
      0.048  0.1622E+02  0.1622E+02  0.5153E+02  0.5153E+02
      0.265  0.1304E+02  0.1304E+02  0.5353E+02  0.5353E+02
      0.483  0.1043E+02  0.1043E+02  0.5502E+02  0.5502E+02
      0.701  0.1451E+02  0.1451E+02  0.5697E+02  0.5697E+02
      0.919  0.1581E+02  0.1581E+02  0.5937E+02  0.5937E+02
      1.137  0.2733E+02  0.2733E+02  0.6239E+02  0.6239E+02
      1.355  0.3245E+02  0.3245E+02  0.6724E+02  0.6724E+02
      1.573  0.1477E+02  0.1477E+02  0.6974E+02  0.6974E+02
      1.791  0.1290E+02  0.1290E+02  0.7168E+02  0.7168E+02
      2.009  0.8904E+01  0.8904E+01  0.7322E+02  0.7322E+02
      2.227  0.6235E+01  0.6235E+01  0.7444E+02  0.7444E+02
      2.445  0.6318E+01  0.6318E+01  0.7572E+02  0.7572E+02
      2.663  0.5286E+01  0.5286E+01  0.7660E+02  0.7660E+02
      2.881  0.4640E+01  0.4640E+01  0.7749E+02  0.7749E+02
      3.099  0.1313E+02  0.1313E+02  0.7905E+02  0.7905E+02
      3.317  0.9580E+01  0.9580E+01  0.8066E+02  0.8066E+02
      3.535  0.2185E+02  0.2185E+02  0.8257E+02  0.8257E+02
      3.753  0.1920E+02  0.1920E+02  0.8582E+02  0.8582E+02
      3.971  0.1796E+02  0.1796E+02  0.8808E+02  0.8808E+02
      4.189  0.1484E+02  0.1484E+02  0.9034E+02  0.9034E+02
      4.407  0.1580E+02  0.1580E+02  0.9228E+02  0.9228E+02
      4.625  0.1949E+02  0.1949E+02  0.9465E+02  0.9465E+02
      4.843  0.9704E+00  0.9704E+00  0.9511E+02  0.9511E+02
      5.061  0.1603E+01  0.1603E+01  0.9534E+02  0.9534E+02
      5.279  0.1464E+01  0.1465E+01  0.9562E+02  0.9562E+02
      5.497  0.1096E+01  0.1056E+01  0.9590E+02  0.9590E+02
      5.714  0.3620E+00  0.3822E+00  0.9602E+02  0.9602E+02
      5.932  0.4640E+00  0.4713E+00  0.9610E+02  0.9610E+02
      6.150  0.6755E+00  0.6692E+00  0.9622E+02  0.9622E+02
      6.368  0.1274E+01  0.1291E+01  0.9643E+02  0.9643E+02
      6.586  0.2275E+01  0.2201E+01  0.9676E+02  0.9676E+02
      6.804  0.2942E+01  0.3015E+01  0.9729E+02  0.9729E+02
      7.022  0.4707E+01  0.4893E+01  0.9809E+02  0.9808E+02
      7.240  0.4657E+01  0.4422E+01  0.9906E+02  0.9904E+02
      7.458  0.2364E+01  0.2226E+01  0.9973E+02  0.9972E+02
      7.676  0.7130E+00  0.9525E+00  0.9998E+02  0.9998E+02
      7.894  0.0000E+00  0.0000E+00  0.1000E+03  0.1000E+03
      8.112  0.0000E+00  0.0000E+00  0.1000E+03  0.1000E+03
      8.330  0.0000E+00  0.0000E+00  0.1000E+03  0.1000E+03
      8.548  0.0000E+00  0.0000E+00  0.1000E+03  0.1000E+03
      8.766  0.0000E+00  0.0000E+00  0.1000E+03  0.1000E+03
      8.984  0.0000E+00  0.0000E+00  0.1000E+03  0.1000E+03
      9.202  0.0000E+00  0.0000E+00  0.1000E+03  0.1000E+03
      9.420  0.0000E+00  0.0000E+00  0.1000E+03  0.1000E+03
      9.638  0.0000E+00  0.0000E+00  0.1000E+03  0.1000E+03
      9.856  0.0000E+00  0.0000E+00  0.1000E+03  0.1000E+03
     10.074  0.0000E+00  0.0000E+00  0.1000E+03  0.1000E+03
     10.292  0.0000E+00  0.0000E+00  0.1000E+03  0.1000E+03
     10.510  0.0000E+00  0.0000E+00  0.1000E+03  0.1000E+03
     10.728  0.0000E+00  0.0000E+00  0.1000E+03  0.1000E+03
     10.72755573    -54.66035904  301      3.21552090      1.00000000
    -54.660  0.0000E+00  0.0000E+00  0.0000E+00  0.0000E+00  0.0000E+00  0.0000E+00  0.0000E+00  0.0000E+00  0.0000E+00  0.0000E+00  0.0000E+00  0.0000E+00  0.0000E+00  0.0000E+00  0.0000E+00  0.0000E+00  0.0000E+00  0.0000E+00
    -54.442  0.0000E+00  0.0000E+00  0.0000E+00  0.0000E+00  0.0000E+00  0.0000E+00  0.0000E+00  0.0000E+00  0.0000E+00  0.0000E+00  0.0000E+00  0.0000E+00  0.0000E+00  0.0000E+00  0.0000E+00  0.0000E+00  0.0000E+00  0.0000E+00
    -54.224  0.0000E+00  0.0000E+00  0.0000E+00  0.0000E+00  0.0000E+00  0.0000E+00  0.0000E+00  0.0000E+00  0.0000E+00  0.0000E+00  0.0000E+00  0.0000E+00  0.0000E+00  0.0000E+00  0.0000E+00  0.0000E+00  0.0000E+00  0.0000E+00
    -54.006  0.0000E+00  0.0000E+00  0.0000E+00  0.0000E+00  0.0000E+00  0.0000E+00  0.0000E+00  0.0000E+00  0.0000E+00  0.0000E+00  0.0000E+00  0.0000E+00  0.0000E+00  0.0000E+00  0.0000E+00  0.0000E+00  0.0000E+00  0.0000E+00
    -53.789  0.0000E+00  0.0000E+00  0.0000E+00  0.0000E+00  0.0000E+00  0.0000E+00  0.0000E+00  0.0000E+00  0.0000E+00  0.0000E+00  0.0000E+00  0.0000E+00  0.0000E+00  0.0000E+00  0.0000E+00  0.0000E+00  0.0000E+00  0.0000E+00
    -53.571  0.0000E+00  0.0000E+00  0.0000E+00  0.0000E+00  0.0000E+00  0.0000E+00  0.0000E+00  0.0000E+00  0.0000E+00  0.0000E+00  0.0000E+00  0.0000E+00  0.0000E+00  0.0000E+00  0.0000E+00  0.0000E+00  0.0000E+00  0.0000E+00
    -53.353  0.0000E+00  0.0000E+00  0.0000E+00  0.0000E+00  0.0000E+00  0.0000E+00  0.0000E+00  0.0000E+00  0.0000E+00  0.0000E+00  0.0000E+00  0.0000E+00  0.0000E+00  0.0000E+00  0.0000E+00  0.0000E+00  0.0000E+00  0.0000E+00
    -53.135  0.0000E+00  0.0000E+00  0.0000E+00  0.0000E+00  0.0000E+00  0.0000E+00  0.0000E+00  0.0000E+00  0.0000E+00  0.0000E+00  0.0000E+00  0.0000E+00  0.0000E+00  0.0000E+00  0.0000E+00  0.0000E+00  0.0000E+00  0.0000E+00
    -52.917  0.0000E+00  0.0000E+00  0.0000E+00  0.0000E+00  0.0000E+00  0.0000E+00  0.0000E+00  0.0000E+00  0.0000E+00  0.0000E+00  0.0000E+00  0.0000E+00  0.0000E+00  0.0000E+00  0.0000E+00  0.0000E+00  0.0000E+00  0.0000E+00
    -52.699  0.0000E+00  0.0000E+00  0.0000E+00  0.0000E+00  0.0000E+00  0.0000E+00  0.0000E+00  0.0000E+00  0.0000E+00  0.0000E+00  0.0000E+00  0.0000E+00  0.0000E+00  0.0000E+00  0.0000E+00  0.0000E+00  0.0000E+00  0.0000E+00
    -52.481  0.0000E+00  0.0000E+00  0.0000E+00  0.0000E+00  0.0000E+00  0.0000E+00  0.0000E+00  0.0000E+00  0.0000E+00  0.0000E+00  0.0000E+00  0.0000E+00  0.0000E+00  0.0000E+00  0.0000E+00  0.0000E+00  0.0000E+00  0.0000E+00
    -52.263  0.0000E+00  0.0000E+00  0.0000E+00  0.0000E+00  0.0000E+00  0.0000E+00  0.0000E+00  0.0000E+00  0.0000E+00  0.0000E+00  0.0000E+00  0.0000E+00  0.0000E+00  0.0000E+00  0.0000E+00  0.0000E+00  0.0000E+00  0.0000E+00
    -52.045  0.0000E+00  0.0000E+00  0.0000E+00  0.0000E+00  0.0000E+00  0.0000E+00  0.0000E+00  0.0000E+00  0.0000E+00  0.0000E+00  0.0000E+00  0.0000E+00  0.0000E+00  0.0000E+00  0.0000E+00  0.0000E+00  0.0000E+00  0.0000E+00
    -51.827  0.0000E+00  0.0000E+00  0.0000E+00  0.0000E+00  0.0000E+00  0.0000E+00  0.0000E+00  0.0000E+00  0.0000E+00  0.0000E+00  0.0000E+00  0.0000E+00  0.0000E+00  0.0000E+00  0.0000E+00  0.0000E+00  0.0000E+00  0.0000E+00
    -51.609  0.1813E-10  0.1120E-05  0.1525E+01  0.5356E-04  0.3043E+01  0.3305E-05  0.5724E-10  0.2412E-07  0.2135E-05  0.2055E-08  0.5943E-10  0.1761E-06  0.4771E-10  0.3297E-06  0.4257E-05  0.1295E-09  0.6463E-10  0.1234E-05
    -51.391  0.1505E-03  0.1760E-05  0.3045E+01  0.9805E-04  0.1527E+01  0.9643E-07  0.4122E+01  0.1338E-05  0.4328E-05  0.1034E-06  0.7684E-09  0.7924E-08  0.6873E-04  0.6739E-06  0.2150E-05  0.1316E-09  0.2062E-03  0.2128E-05
    -51.173  0.5908E-04  0.1418E-08  0.1897E-09  0.4570E-07  0.2408E-10  0.4817E-09  0.2289E+01  0.4078E-06  0.5085E-11  0.3673E-07  0.3470E-09  0.9846E-10  0.2694E-04  0.4988E-09  0.3047E-11  0.1282E-09  0.8082E-04  0.1061E-09
    -50.955  0.0000E+00  0.0000E+00  0.0000E+00  0.0000E+00  0.0000E+00  0.0000E+00  0.0000E+00  0.0000E+00  0.0000E+00  0.0000E+00  0.0000E+00  0.0000E+00  0.0000E+00  0.0000E+00  0.0000E+00  0.0000E+00  0.0000E+00  0.0000E+00
    -50.737  0.0000E+00  0.0000E+00  0.0000E+00  0.0000E+00  0.0000E+00  0.0000E+00  0.0000E+00  0.0000E+00  0.0000E+00  0.0000E+00  0.0000E+00  0.0000E+00  0.0000E+00  0.0000E+00  0.0000E+00  0.0000E+00  0.0000E+00  0.0000E+00
    -50.519  0.0000E+00  0.0000E+00  0.0000E+00  0.0000E+00  0.0000E+00  0.0000E+00  0.0000E+00  0.0000E+00  0.0000E+00  0.0000E+00  0.0000E+00  0.0000E+00  0.0000E+00  0.0000E+00  0.0000E+00  0.0000E+00  0.0000E+00  0.0000E+00
    -50.301  0.0000E+00  0.0000E+00  0.0000E+00  0.0000E+00  0.0000E+00  0.0000E+00  0.0000E+00  0.0000E+00  0.0000E+00  0.0000E+00  0.0000E+00  0.0000E+00  0.0000E+00  0.0000E+00  0.0000E+00  0.0000E+00  0.0000E+00  0.0000E+00
    -50.083  0.0000E+00  0.0000E+00  0.0000E+00  0.0000E+00  0.0000E+00  0.0000E+00  0.0000E+00  0.0000E+00  0.0000E+00  0.0000E+00  0.0000E+00  0.0000E+00  0.0000E+00  0.0000E+00  0.0000E+00  0.0000E+00  0.0000E+00  0.0000E+00
    -49.865  0.0000E+00  0.0000E+00  0.0000E+00  0.0000E+00  0.0000E+00  0.0000E+00  0.0000E+00  0.0000E+00  0.0000E+00  0.0000E+00  0.0000E+00  0.0000E+00  0.0000E+00  0.0000E+00  0.0000E+00  0.0000E+00  0.0000E+00  0.0000E+00
    -49.647  0.0000E+00  0.0000E+00  0.0000E+00  0.0000E+00  0.0000E+00  0.0000E+00  0.0000E+00  0.0000E+00  0.0000E+00  0.0000E+00  0.0000E+00  0.0000E+00  0.0000E+00  0.0000E+00  0.0000E+00  0.0000E+00  0.0000E+00  0.0000E+00
    -49.429  0.0000E+00  0.0000E+00  0.0000E+00  0.0000E+00  0.0000E+00  0.0000E+00  0.0000E+00  0.0000E+00  0.0000E+00  0.0000E+00  0.0000E+00  0.0000E+00  0.0000E+00  0.0000E+00  0.0000E+00  0.0000E+00  0.0000E+00  0.0000E+00
    -49.211  0.0000E+00  0.0000E+00  0.0000E+00  0.0000E+00  0.0000E+00  0.0000E+00  0.0000E+00  0.0000E+00  0.0000E+00  0.0000E+00  0.0000E+00  0.0000E+00  0.0000E+00  0.0000E+00  0.0000E+00  0.0000E+00  0.0000E+00  0.0000E+00
    -48.993  0.0000E+00  0.0000E+00  0.0000E+00  0.0000E+00  0.0000E+00  0.0000E+00  0.0000E+00  0.0000E+00  0.0000E+00  0.0000E+00  0.0000E+00  0.0000E+00  0.0000E+00  0.0000E+00  0.0000E+00  0.0000E+00  0.0000E+00  0.0000E+00
    -48.775  0.0000E+00  0.0000E+00  0.0000E+00  0.0000E+00  0.0000E+00  0.0000E+00  0.0000E+00  0.0000E+00  0.0000E+00  0.0000E+00  0.0000E+00  0.0000E+00  0.0000E+00  0.0000E+00  0.0000E+00  0.0000E+00  0.0000E+00  0.0000E+00
    -48.557  0.2267E-05  0.1903E-03  0.1090E-03  0.2169E+01  0.1817E-05  0.2400E+01  0.1716E-05  0.4220E+01  0.1480E-06  0.3707E-05  0.2485E-06  0.3751E-08  0.6724E-06  0.8736E-04  0.1602E-09  0.4116E-05  0.2490E-05  0.2624E-03
    -48.340  0.1966E-05  0.5234E-04  0.7957E-04  0.2401E+01  0.6459E-06  0.2171E+01  0.4662E-06  0.1963E+01  0.4481E-07  0.4184E-05  0.3316E-07  0.1137E-08  0.7685E-06  0.2401E-04  0.7800E-10  0.3794E-05  0.2359E-05  0.7212E-04
    -48.122  0.0000E+00  0.0000E+00  0.0000E+00  0.0000E+00  0.0000E+00  0.0000E+00  0.0000E+00  0.0000E+00  0.0000E+00  0.0000E+00  0.0000E+00  0.0000E+00  0.0000E+00  0.0000E+00  0.0000E+00  0.0000E+00  0.0000E+00  0.0000E+00
    -47.904  0.0000E+00  0.0000E+00  0.0000E+00  0.0000E+00  0.0000E+00  0.0000E+00  0.0000E+00  0.0000E+00  0.0000E+00  0.0000E+00  0.0000E+00  0.0000E+00  0.0000E+00  0.0000E+00  0.0000E+00  0.0000E+00  0.0000E+00  0.0000E+00
    -47.686  0.0000E+00  0.0000E+00  0.0000E+00  0.0000E+00  0.0000E+00  0.0000E+00  0.0000E+00  0.0000E+00  0.0000E+00  0.0000E+00  0.0000E+00  0.0000E+00  0.0000E+00  0.0000E+00  0.0000E+00  0.0000E+00  0.0000E+00  0.0000E+00
    -47.468  0.0000E+00  0.0000E+00  0.0000E+00  0.0000E+00  0.0000E+00  0.0000E+00  0.0000E+00  0.0000E+00  0.0000E+00  0.0000E+00  0.0000E+00  0.0000E+00  0.0000E+00  0.0000E+00  0.0000E+00  0.0000E+00  0.0000E+00  0.0000E+00
    -47.250  0.0000E+00  0.0000E+00  0.0000E+00  0.0000E+00  0.0000E+00  0.0000E+00  0.0000E+00  0.0000E+00  0.0000E+00  0.0000E+00  0.0000E+00  0.0000E+00  0.0000E+00  0.0000E+00  0.0000E+00  0.0000E+00  0.0000E+00  0.0000E+00
    -47.032  0.0000E+00  0.0000E+00  0.0000E+00  0.0000E+00  0.0000E+00  0.0000E+00  0.0000E+00  0.0000E+00  0.0000E+00  0.0000E+00  0.0000E+00  0.0000E+00  0.0000E+00  0.0000E+00  0.0000E+00  0.0000E+00  0.0000E+00  0.0000E+00
    -46.814  0.0000E+00  0.0000E+00  0.0000E+00  0.0000E+00  0.0000E+00  0.0000E+00  0.0000E+00  0.0000E+00  0.0000E+00  0.0000E+00  0.0000E+00  0.0000E+00  0.0000E+00  0.0000E+00  0.0000E+00  0.0000E+00  0.0000E+00  0.0000E+00
    -46.596  0.0000E+00  0.0000E+00  0.0000E+00  0.0000E+00  0.0000E+00  0.0000E+00  0.0000E+00  0.0000E+00  0.0000E+00  0.0000E+00  0.0000E+00  0.0000E+00  0.0000E+00  0.0000E+00  0.0000E+00  0.0000E+00  0.0000E+00  0.0000E+00
    -46.378  0.0000E+00  0.0000E+00  0.0000E+00  0.0000E+00  0.0000E+00  0.0000E+00  0.0000E+00  0.0000E+00  0.0000E+00  0.0000E+00  0.0000E+00  0.0000E+00  0.0000E+00  0.0000E+00  0.0000E+00  0.0000E+00  0.0000E+00  0.0000E+00
    -46.160  0.0000E+00  0.0000E+00  0.0000E+00  0.0000E+00  0.0000E+00  0.0000E+00  0.0000E+00  0.0000E+00  0.0000E+00  0.0000E+00  0.0000E+00  0.0000E+00  0.0000E+00  0.0000E+00  0.0000E+00  0.0000E+00  0.0000E+00  0.0000E+00
    -45.942  0.0000E+00  0.0000E+00  0.0000E+00  0.0000E+00  0.0000E+00  0.0000E+00  0.0000E+00  0.0000E+00  0.0000E+00  0.0000E+00  0.0000E+00  0.0000E+00  0.0000E+00  0.0000E+00  0.0000E+00  0.0000E+00  0.0000E+00  0.0000E+00
    -45.724  0.0000E+00  0.0000E+00  0.0000E+00  0.0000E+00  0.0000E+00  0.0000E+00  0.0000E+00  0.0000E+00  0.0000E+00  0.0000E+00  0.0000E+00  0.0000E+00  0.0000E+00  0.0000E+00  0.0000E+00  0.0000E+00  0.0000E+00  0.0000E+00
    -45.506  0.0000E+00  0.0000E+00  0.0000E+00  0.0000E+00  0.0000E+00  0.0000E+00  0.0000E+00  0.0000E+00  0.0000E+00  0.0000E+00  0.0000E+00  0.0000E+00  0.0000E+00  0.0000E+00  0.0000E+00  0.0000E+00  0.0000E+00  0.0000E+00
    -45.288  0.0000E+00  0.0000E+00  0.0000E+00  0.0000E+00  0.0000E+00  0.0000E+00  0.0000E+00  0.0000E+00  0.0000E+00  0.0000E+00  0.0000E+00  0.0000E+00  0.0000E+00  0.0000E+00  0.0000E+00  0.0000E+00  0.0000E+00  0.0000E+00
    -45.070  0.0000E+00  0.0000E+00  0.0000E+00  0.0000E+00  0.0000E+00  0.0000E+00  0.0000E+00  0.0000E+00  0.0000E+00  0.0000E+00  0.0000E+00  0.0000E+00  0.0000E+00  0.0000E+00  0.0000E+00  0.0000E+00  0.0000E+00  0.0000E+00
    -44.852  0.0000E+00  0.0000E+00  0.0000E+00  0.0000E+00  0.0000E+00  0.0000E+00  0.0000E+00  0.0000E+00  0.0000E+00  0.0000E+00  0.0000E+00  0.0000E+00  0.0000E+00  0.0000E+00  0.0000E+00  0.0000E+00  0.0000E+00  0.0000E+00
    -44.634  0.0000E+00  0.0000E+00  0.0000E+00  0.0000E+00  0.0000E+00  0.0000E+00  0.0000E+00  0.0000E+00  0.0000E+00  0.0000E+00  0.0000E+00  0.0000E+00  0.0000E+00  0.0000E+00  0.0000E+00  0.0000E+00  0.0000E+00  0.0000E+00
    -44.416  0.0000E+00  0.0000E+00  0.0000E+00  0.0000E+00  0.0000E+00  0.0000E+00  0.0000E+00  0.0000E+00  0.0000E+00  0.0000E+00  0.0000E+00  0.0000E+00  0.0000E+00  0.0000E+00  0.0000E+00  0.0000E+00  0.0000E+00  0.0000E+00
    -44.198  0.0000E+00  0.0000E+00  0.0000E+00  0.0000E+00  0.0000E+00  0.0000E+00  0.0000E+00  0.0000E+00  0.0000E+00  0.0000E+00  0.0000E+00  0.0000E+00  0.0000E+00  0.0000E+00  0.0000E+00  0.0000E+00  0.0000E+00  0.0000E+00
    -43.980  0.0000E+00  0.0000E+00  0.0000E+00  0.0000E+00  0.0000E+00  0.0000E+00  0.0000E+00  0.0000E+00  0.0000E+00  0.0000E+00  0.0000E+00  0.0000E+00  0.0000E+00  0.0000E+00  0.0000E+00  0.0000E+00  0.0000E+00  0.0000E+00
    -43.762  0.0000E+00  0.0000E+00  0.0000E+00  0.0000E+00  0.0000E+00  0.0000E+00  0.0000E+00  0.0000E+00  0.0000E+00  0.0000E+00  0.0000E+00  0.0000E+00  0.0000E+00  0.0000E+00  0.0000E+00  0.0000E+00  0.0000E+00  0.0000E+00