 vasp.6.4.1 05Apr23 (build Jun 01 2023 13:46:15) complex                        
  
 executed on             LinuxIFC date 2023.12.16  19:49:46
 running   20 mpi-ranks, on    5 nodes
 distrk:  each k-point on   20 cores,    1 groups
 distr:  one band on NCORE=   1 cores,   20 groups


--------------------------------------------------------------------------------------------------------


 INCAR:
   ALGO = Fast
   EDIFF = 0.0002
   ENCUT = 550
   IBRION = 2
   ISIF = 4
   ISMEAR = 0
   ISPIN = 2
   IVDW = 13
   LASPH = True
   LMAXMIX = 4
   LORBIT = 11
   LREAL = Auto
   LWAVE = False
   MAGMOM = 1*2.664 2*-2.664 2*2.664 2*-2.664 1*2.664 8*0.0
   NELM = 100
   NSW = 99
   PREC = Accurate
   SIGMA = 0.05

 POTCAR:   PAW_PBE Fe_pv 06Sep2000                
 POTCAR:   PAW_PBE Se 06Sep2000                   
 -----------------------------------------------------------------------------
|                                                                             |
|           W    W    AA    RRRRR   N    N  II  N    N   GGGG   !!!           |
|           W    W   A  A   R    R  NN   N  II  NN   N  G    G  !!!           |
|           W    W  A    A  R    R  N N  N  II  N N  N  G       !!!           |
|           W WW W  AAAAAA  RRRRR   N  N N  II  N  N N  G  GGG   !            |
|           WW  WW  A    A  R   R   N   NN  II  N   NN  G    G                |
|           W    W  A    A  R    R  N    N  II  N    N   GGGG   !!!           |
|                                                                             |
|     For optimal performance we recommend to set                             |
|       NCORE = 2 up to number-of-cores-per-socket                            |
|     NCORE specifies how many cores store one orbital (NPAR=cpu/NCORE).      |
|     This setting can greatly improve the performance of VASP for DFT.       |
|     The default, NCORE=1 might be grossly inefficient on modern             |
|     multi-core architectures or massively parallel machines. Do your        |
|     own testing! More info at https://www.vasp.at/wiki/index.php/NCORE      |
|     Unfortunately you need to use the default for GW and RPA                |
|     calculations (for HF NCORE is supported but not extensively tested      |
|     yet).                                                                   |
|                                                                             |
 -----------------------------------------------------------------------------

 POTCAR:   PAW_PBE Fe_pv 06Sep2000                
   VRHFIN =Fe:  3pd7s1                                                                              
   LEXCH  = PE                                                                                      
   EATOM  =  2456.8974 eV,  180.5769 Ry                                                             
                                                                                                    
   TITEL  = PAW_PBE Fe_pv 06Sep2000                                                                 
   LULTRA =        F    use ultrasoft PP ?                                                          
   IUNSCR =        1    unscreen: 0-lin 1-nonlin 2-no                                               
   RPACOR =    1.750    partial core radius                                                         
   POMASS =   55.847; ZVAL   =   14.000    mass and valenz                                          
   RCORE  =    2.200    outmost cutoff radius                                                       
   RWIGS  =    2.200; RWIGS  =    1.164    wigner-seitz radius (au A)                               
   ENMAX  =  293.238; ENMIN  =  219.929 eV                                                          
   RCLOC  =    1.701    cutoff for local pot                                                        
   LCOR   =        T    correct aug charges                                                         
   LPAW   =        T    paw PP                                                                      
   EAUG   =  578.342                                                                                
   DEXC   =    -.002                                                                                
   RMAX   =    2.693    core radius for proj-oper                                                   
   RAUG   =    1.300    factor for augmentation sphere                                              
   RDEP   =    2.296    radius for radial grids                                                     
   QCUT   =   -4.642; QGAM   =    9.285    optimization parameters                                  
                                                                                                    
   Description                                                                                      
     l     E      TYP  RCUT    TYP  RCUT                                                            
     1   .000     23  2.000                                                                         
     1  -.400     23  2.000                                                                         
     2   .000     23  2.200                                                                         
     2   .000     23  2.200                                                                         
     0   .000     23  2.000                                                                         
     0  2.000     23  2.000                                                                         
     3   .000      7   .000                                                                         
  local pseudopotential read in
  partial core-charges read in
  atomic valenz-charges read in
  non local Contribution for L=           1  read in
    real space projection operators read in
  non local Contribution for L=           1  read in
    real space projection operators read in
  non local Contribution for L=           2  read in
    real space projection operators read in
  non local Contribution for L=           2  read in
    real space projection operators read in
  non local Contribution for L=           0  read in
    real space projection operators read in
  non local Contribution for L=           0  read in
    real space projection operators read in
    PAW grid and wavefunctions read in
 
   number of l-projection  operators is LMAX  =           6
   number of lm-projection operators is LMMAX =          18
 
 POTCAR:   PAW_PBE Se 06Sep2000                   
   VRHFIN =Se: s2p4                                                                                 
   LEXCH  = PE                                                                                      
   EATOM  =   256.9644 eV,   18.8864 Ry                                                             
                                                                                                    
   TITEL  = PAW_PBE Se 06Sep2000                                                                    
   LULTRA =        F    use ultrasoft PP ?                                                          
   IUNSCR =        1    unscreen: 0-lin 1-nonlin 2-no                                               
   RPACOR =    1.900    partial core radius                                                         
   POMASS =   78.960; ZVAL   =    6.000    mass and valenz                                          
   RCORE  =    2.100    outmost cutoff radius                                                       
   RWIGS  =    2.200; RWIGS  =    1.164    wigner-seitz radius (au A)                               
   ENMAX  =  211.534; ENMIN  =  158.651 eV                                                          
   ICORE  =        3    local potential                                                             
   LCOR   =        T    correct aug charges                                                         
   LPAW   =        T    paw PP                                                                      
   EAUG   =  446.842                                                                                
   DEXC   =    -.031                                                                                
   RMAX   =    3.170    core radius for proj-oper                                                   
   RAUG   =    1.300    factor for augmentation sphere                                              
   RDEP   =    2.177    radius for radial grids                                                     
   QCUT   =   -3.943; QGAM   =    7.886    optimization parameters                                  
                                                                                                    
   Description                                                                                      
     l     E      TYP  RCUT    TYP  RCUT                                                            
     0   .000     23  2.100                                                                         
     0   .000     23  2.100                                                                         
     1   .000     23  2.100                                                                         
     1   .000     23  2.100                                                                         
     2   .000     23  2.100                                                                         
     3  -.100      7  2.100                                                                         
  local pseudopotential read in
  partial core-charges read in
  atomic valenz-charges read in
  non local Contribution for L=           0  read in
    real space projection operators read in
  non local Contribution for L=           0  read in
    real space projection operators read in
  non local Contribution for L=           1  read in
    real space projection operators read in
  non local Contribution for L=           1  read in
    real space projection operators read in
  non local Contribution for L=           2  read in
    real space projection operators read in
    PAW grid and wavefunctions read in
 
   number of l-projection  operators is LMAX  =           5
   number of lm-projection operators is LMMAX =          13
 
 Optimization of the real space projectors (new method)

 maximal supplied QI-value         = 17.01
 optimisation between [QCUT,QGAM] = [ 11.91, 23.98] = [ 39.69,161.04] Ry 
 Optimized for a Real-space Cutoff    1.45 Angstroem

   l    n(q)    QCUT    max X(q) W(low)/X(q) W(high)/X(q)  e(spline) 
   1     10    11.905     4.550    0.27E-05    0.11E-05    0.28E-07
   1     10    11.905     5.234    0.10E-04    0.61E-04    0.17E-06
   2      9    11.905     3.960    0.19E-04    0.73E-05    0.50E-07
   2      9    11.905    29.565    0.24E-03    0.51E-04    0.27E-06
   0     10    11.905    23.582    0.17E-04    0.10E-05    0.14E-07
   0     10    11.905    39.747    0.23E-04    0.68E-05    0.74E-07
 Optimization of the real space projectors (new method)

 maximal supplied QI-value         = 17.95
 optimisation between [QCUT,QGAM] = [ 11.85, 23.88] = [ 39.31,159.64] Ry 
 Optimized for a Real-space Cutoff    1.18 Angstroem

   l    n(q)    QCUT    max X(q) W(low)/X(q) W(high)/X(q)  e(spline) 
   0      8    11.849     6.499    0.17E-04    0.94E-05    0.89E-08
   0      8    11.849    52.623    0.21E-03    0.78E-04    0.81E-07
   1      8    11.849     4.229    0.79E-04    0.83E-04    0.23E-07
   1      8    11.849    29.991    0.12E-03    0.43E-03    0.14E-06
   2      7    11.849     3.719    0.22E-03    0.64E-04    0.38E-07
 PAW_PBE Fe_pv 06Sep2000                :
 energy of atom  1       EATOM=-2456.8974
 kinetic energy error for atom=    0.0060 (will be added to EATOM!!)
 PAW_PBE Se 06Sep2000                   :
 energy of atom  2       EATOM= -256.9644
 kinetic energy error for atom=    0.0007 (will be added to EATOM!!)
 
 
 POSCAR: Fe8 Se8
  positions in direct lattice
  No initial velocities read in
 exchange correlation table for  LEXCH =        8
   RHO(1)=    0.500       N(1)  =     2000
   RHO(2)=  100.500       N(2)  =     4000
 


--------------------------------------------------------------------------------------------------------


 ion  position               nearest neighbor table
   1  0.000  0.000  0.000-  11 2.28  14 2.28   5 2.43   8 2.43
   2  0.000  0.500  0.000-  12 2.28  13 2.28   6 2.43   7 2.43
   3  0.500  0.000  0.000-   9 2.28  16 2.28   6 2.43   7 2.43
   4  0.500  0.500  0.000-  10 2.28  15 2.28   5 2.43   8 2.43
   5  0.250  0.250  0.000-   9 2.28  13 2.28   1 2.43   4 2.43
   6  0.250  0.750  0.000-  10 2.28  14 2.28   2 2.43   3 2.43
   7  0.750  0.250  0.000-  11 2.28  15 2.28   2 2.43   3 2.43
   8  0.750  0.750  0.000-  12 2.28  16 2.28   1 2.43   4 2.43
   9  0.375  0.125  0.702-   3 2.28   5 2.28
  10  0.375  0.625  0.702-   4 2.28   6 2.28
  11  0.875  0.125  0.702-   1 2.28   7 2.28
  12  0.875  0.625  0.702-   2 2.28   8 2.28
  13  0.125  0.375  0.298-   2 2.28   5 2.28
  14  0.125  0.875  0.298-   1 2.28   6 2.28
  15  0.625  0.375  0.298-   4 2.28   7 2.28
  16  0.625  0.875  0.298-   3 2.28   8 2.28
 
  LATTYP: Found a base centered orthorhombic cell.
 ALAT       =     9.7239472357
 B/A-ratio  =     1.2007694473
 C/A-ratio  =     0.6032353996
  
  Lattice vectors:
  
 A1 = (   4.8619736178,  -5.8381093740,   0.0000000000)
 A2 = (   4.8619736178,   5.8381093740,   0.0000000000)
 A3 = (   0.0000000000,   0.0000000000,   5.8658291968)


Analysis of symmetry for initial positions (statically):
=====================================================================
 Subroutine PRICEL returns following result:
 
  LATTYP: Found a base centered orthorhombic cell.
 ALAT       =     4.8619736178
 B/A-ratio  =     1.2007694473
 C/A-ratio  =     1.2064707993
  
  Lattice vectors:
  
 A1 = (   2.4309868089,  -2.9190546870,   0.0000000000)
 A2 = (   2.4309868089,   2.9190546870,   0.0000000000)
 A3 = (   0.0000000000,   0.0000000000,   5.8658291968)
 
   4 primitive cells build up your supercell.
 

 Routine SETGRP: Setting up the symmetry group for a 
 base centered orthorhombic supercell.


 Subroutine GETGRP returns: Found  8 space group operations
 (whereof  4 operations were pure point group operations)
 out of a pool of  8 trial point group operations.


The static configuration has the point symmetry C_2h.
 The point group associated with its full space group is D_2h.


Analysis of symmetry for dynamics (positions and initial velocities):
=====================================================================
 Subroutine PRICEL returns following result:
 
  LATTYP: Found a base centered orthorhombic cell.
 ALAT       =     4.8619736178
 B/A-ratio  =     1.2007694473
 C/A-ratio  =     1.2064707993
  
  Lattice vectors:
  
 A1 = (   2.4309868089,  -2.9190546870,   0.0000000000)
 A2 = (   2.4309868089,   2.9190546870,   0.0000000000)
 A3 = (   0.0000000000,   0.0000000000,   5.8658291968)
 
   4 primitive cells build up your supercell.
 

 Routine SETGRP: Setting up the symmetry group for a 
 base centered orthorhombic supercell.


 Subroutine GETGRP returns: Found  8 space group operations
 (whereof  4 operations were pure point group operations)
 out of a pool of  8 trial point group operations.


The dynamic configuration has the point symmetry C_2h.
 The point group associated with its full space group is D_2h.


Analysis of structural, dynamic, and magnetic symmetry:
=====================================================================
 Subroutine PRICEL returns following result:
 
  LATTYP: Found a base centered orthorhombic cell.
 ALAT       =     4.8619736178
 B/A-ratio  =     1.2007694473
 C/A-ratio  =     1.2064707993
  
  Lattice vectors:
  
 A1 = (   2.4309868089,  -2.9190546870,   0.0000000000)
 A2 = (   2.4309868089,   2.9190546870,   0.0000000000)
 A3 = (   0.0000000000,   0.0000000000,   5.8658291968)
 
   4 primitive cells build up your supercell.
 

 Routine SETGRP: Setting up the symmetry group for a 
 base centered orthorhombic supercell.


 Subroutine GETGRP returns: Found  8 space group operations
 (whereof  4 operations were pure point group operations)
 out of a pool of  8 trial point group operations.


The overall configuration has the point symmetry C_2h.
 The point group associated with its full space group is D_2h.


 Subroutine INISYM returns: Found  8 space group operations
 (whereof  4 operations are pure point group operations),
 and found     4 'primitive' translations


----------------------------------------------------------------------------------------

                                     Primitive cell                                     

  volume of cell :      83.2500

  direct lattice vectors                    reciprocal lattice vectors
     2.430986809 -2.919054687  0.000000000     0.205677792 -0.171288329  0.000000000
     2.430986809  2.919054687  0.000000000     0.205677792  0.171288329  0.000000000
     0.000000000  0.000000000  5.865829197     0.000000000  0.000000000  0.170478881

  length of vectors
     3.798759946  3.798759946  5.865829197     0.267662186  0.267662186  0.170478881

  position of ions in fractional coordinates (direct lattice)
     0.000000000  0.000000000  0.000000000
     0.500000000  0.500000000  0.000000000
     0.750000000  0.250000000  0.702224053
     0.250000000  0.750000000  0.297775947

  ion indices of the primitive-cell ions
   primitive index   ion index
                 1           1
                 2           5
                 3          11
                 4          14

----------------------------------------------------------------------------------------

 
 
 KPOINTS: KPOINTS                                 

Automatic generation of k-mesh.
 Grid dimensions read from file:
 generate k-points for:    7    7    9

 Generating k-lattice:

  Cartesian coordinates                     Fractional coordinates (reciprocal lattice)
     0.014691271 -0.012234881  0.000000000     0.142857143 -0.000000000  0.000000000
     0.014691271  0.012234881  0.000000000    -0.000000000  0.142857143  0.000000000
     0.000000000  0.000000000  0.018942098     0.000000000  0.000000000  0.111111111

  Length of vectors
     0.019118728  0.019118728  0.018942098

  Shift w.r.t. Gamma in fractional coordinates (k-lattice)
     0.000000000  0.000000000  0.000000000

 
 Subroutine IBZKPT returns following result:
 ===========================================
 
 Found     80 irreducible k-points:
 
 Following reciprocal coordinates:
            Coordinates               Weight
  0.000000  0.000000  0.000000      1.000000
  0.142857  0.000000  0.000000      4.000000
  0.285714 -0.000000  0.000000      4.000000
  0.428571 -0.000000  0.000000      4.000000
  0.142857  0.142857  0.000000      2.000000
  0.285714  0.142857  0.000000      4.000000
  0.428571  0.142857  0.000000      4.000000
 -0.428571  0.142857  0.000000      4.000000
 -0.285714  0.142857  0.000000      4.000000
 -0.142857  0.142857  0.000000      2.000000
  0.285714  0.285714  0.000000      2.000000
  0.428571  0.285714  0.000000      4.000000
 -0.428571  0.285714  0.000000      4.000000
 -0.285714  0.285714  0.000000      2.000000
  0.428571  0.428571  0.000000      2.000000
 -0.428571  0.428571  0.000000      2.000000
  0.000000  0.000000  0.111111      2.000000
  0.142857  0.000000  0.111111      8.000000
  0.285714 -0.000000  0.111111      8.000000
  0.428571 -0.000000  0.111111      8.000000
  0.142857  0.142857  0.111111      4.000000
  0.285714  0.142857  0.111111      8.000000
  0.428571  0.142857  0.111111      8.000000
 -0.428571  0.142857  0.111111      8.000000
 -0.285714  0.142857  0.111111      8.000000
 -0.142857  0.142857  0.111111      4.000000
  0.285714  0.285714  0.111111      4.000000
  0.428571  0.285714  0.111111      8.000000
 -0.428571  0.285714  0.111111      8.000000
 -0.285714  0.285714  0.111111      4.000000
  0.428571  0.428571  0.111111      4.000000
 -0.428571  0.428571  0.111111      4.000000
  0.000000  0.000000  0.222222      2.000000
  0.142857  0.000000  0.222222      8.000000
  0.285714 -0.000000  0.222222      8.000000
  0.428571 -0.000000  0.222222      8.000000
  0.142857  0.142857  0.222222      4.000000
  0.285714  0.142857  0.222222      8.000000
  0.428571  0.142857  0.222222      8.000000
 -0.428571  0.142857  0.222222      8.000000
 -0.285714  0.142857  0.222222      8.000000
 -0.142857  0.142857  0.222222      4.000000
  0.285714  0.285714  0.222222      4.000000
  0.428571  0.285714  0.222222      8.000000
 -0.428571  0.285714  0.222222      8.000000
 -0.285714  0.285714  0.222222      4.000000
  0.428571  0.428571  0.222222      4.000000
 -0.428571  0.428571  0.222222      4.000000
  0.000000  0.000000  0.333333      2.000000
  0.142857  0.000000  0.333333      8.000000
  0.285714 -0.000000  0.333333      8.000000
  0.428571 -0.000000  0.333333      8.000000
  0.142857  0.142857  0.333333      4.000000
  0.285714  0.142857  0.333333      8.000000
  0.428571  0.142857  0.333333      8.000000
 -0.428571  0.142857  0.333333      8.000000
 -0.285714  0.142857  0.333333      8.000000
 -0.142857  0.142857  0.333333      4.000000
  0.285714  0.285714  0.333333      4.000000
  0.428571  0.285714  0.333333      8.000000
 -0.428571  0.285714  0.333333      8.000000
 -0.285714  0.285714  0.333333      4.000000
  0.428571  0.428571  0.333333      4.000000
 -0.428571  0.428571  0.333333      4.000000
  0.000000  0.000000  0.444444      2.000000
  0.142857  0.000000  0.444444      8.000000
  0.285714 -0.000000  0.444444      8.000000
  0.428571 -0.000000  0.444444      8.000000
  0.142857  0.142857  0.444444      4.000000
  0.285714  0.142857  0.444444      8.000000
  0.428571  0.142857  0.444444      8.000000
 -0.428571  0.142857  0.444444      8.000000
 -0.285714  0.142857  0.444444      8.000000
 -0.142857  0.142857  0.444444      4.000000
  0.285714  0.285714  0.444444      4.000000
  0.428571  0.285714  0.444444      8.000000
 -0.428571  0.285714  0.444444      8.000000
 -0.285714  0.285714  0.444444      4.000000
  0.428571  0.428571  0.444444      4.000000
 -0.428571  0.428571  0.444444      4.000000
 
 Following cartesian coordinates:
            Coordinates               Weight
  0.000000  0.000000  0.000000      1.000000
  0.014691 -0.012235  0.000000      4.000000
  0.029383 -0.024470  0.000000      4.000000
  0.044074 -0.036705  0.000000      4.000000
  0.029383  0.000000  0.000000      2.000000
  0.044074 -0.012235  0.000000      4.000000
  0.058765 -0.024470  0.000000      4.000000
 -0.029383  0.048940  0.000000      4.000000
 -0.014691  0.036705  0.000000      4.000000
  0.000000  0.024470  0.000000      2.000000
  0.058765 -0.000000  0.000000      2.000000
  0.073456 -0.012235  0.000000      4.000000
 -0.014691  0.061174  0.000000      4.000000
  0.000000  0.048940  0.000000      2.000000
  0.088148 -0.000000  0.000000      2.000000
 -0.000000  0.073409  0.000000      2.000000
  0.000000  0.000000  0.018942      2.000000
  0.014691 -0.012235  0.018942      8.000000
  0.029383 -0.024470  0.018942      8.000000
  0.044074 -0.036705  0.018942      8.000000
  0.029383  0.000000  0.018942      4.000000
  0.044074 -0.012235  0.018942      8.000000
  0.058765 -0.024470  0.018942      8.000000
 -0.029383  0.048940  0.018942      8.000000
 -0.014691  0.036705  0.018942      8.000000
  0.000000  0.024470  0.018942      4.000000
  0.058765 -0.000000  0.018942      4.000000
  0.073456 -0.012235  0.018942      8.000000
 -0.014691  0.061174  0.018942      8.000000
  0.000000  0.048940  0.018942      4.000000
  0.088148 -0.000000  0.018942      4.000000
 -0.000000  0.073409  0.018942      4.000000
  0.000000  0.000000  0.037884      2.000000
  0.014691 -0.012235  0.037884      8.000000
  0.029383 -0.024470  0.037884      8.000000
  0.044074 -0.036705  0.037884      8.000000
  0.029383  0.000000  0.037884      4.000000
  0.044074 -0.012235  0.037884      8.000000
  0.058765 -0.024470  0.037884      8.000000
 -0.029383  0.048940  0.037884      8.000000
 -0.014691  0.036705  0.037884      8.000000
  0.000000  0.024470  0.037884      4.000000
  0.058765 -0.000000  0.037884      4.000000
  0.073456 -0.012235  0.037884      8.000000
 -0.014691  0.061174  0.037884      8.000000
  0.000000  0.048940  0.037884      4.000000
  0.088148 -0.000000  0.037884      4.000000
 -0.000000  0.073409  0.037884      4.000000
  0.000000  0.000000  0.056826      2.000000
  0.014691 -0.012235  0.056826      8.000000
  0.029383 -0.024470  0.056826      8.000000
  0.044074 -0.036705  0.056826      8.000000
  0.029383  0.000000  0.056826      4.000000
  0.044074 -0.012235  0.056826      8.000000
  0.058765 -0.024470  0.056826      8.000000
 -0.029383  0.048940  0.056826      8.000000
 -0.014691  0.036705  0.056826      8.000000
  0.000000  0.024470  0.056826      4.000000
  0.058765 -0.000000  0.056826      4.000000
  0.073456 -0.012235  0.056826      8.000000
 -0.014691  0.061174  0.056826      8.000000
  0.000000  0.048940  0.056826      4.000000
  0.088148 -0.000000  0.056826      4.000000
 -0.000000  0.073409  0.056826      4.000000
  0.000000  0.000000  0.075768      2.000000
  0.014691 -0.012235  0.075768      8.000000
  0.029383 -0.024470  0.075768      8.000000
  0.044074 -0.036705  0.075768      8.000000
  0.029383  0.000000  0.075768      4.000000
  0.044074 -0.012235  0.075768      8.000000
  0.058765 -0.024470  0.075768      8.000000
 -0.029383  0.048940  0.075768      8.000000
 -0.014691  0.036705  0.075768      8.000000
  0.000000  0.024470  0.075768      4.000000
  0.058765 -0.000000  0.075768      4.000000
  0.073456 -0.012235  0.075768      8.000000
 -0.014691  0.061174  0.075768      8.000000
  0.000000  0.048940  0.075768      4.000000
  0.088148 -0.000000  0.075768      4.000000
 -0.000000  0.073409  0.075768      4.000000
 


--------------------------------------------------------------------------------------------------------




 Dimension of arrays:
   k-points           NKPTS =     80   k-points in BZ     NKDIM =     80   number of bands    NBANDS=    100
   number of dos      NEDOS =    301   number of ions     NIONS =     16
   non local maximal  LDIM  =      6   non local SUM 2l+1 LMDIM =     18
   total plane-waves  NPLWV = 172800
   max r-space proj   IRMAX =   6648   max aug-charges    IRDMAX=  22827
   dimension x,y,z NGX =    60 NGY =   60 NGZ =   48
   dimension x,y,z NGXF=   120 NGYF=  120 NGZF=   96
   support grid    NGXF=   120 NGYF=  120 NGZF=   96
   ions per type =               8   8
   NGX,Y,Z   is equivalent  to a cutoff of  13.13, 13.13, 13.60 a.u.
   NGXF,Y,Z  is equivalent  to a cutoff of  26.26, 26.26, 27.21 a.u.

 SYSTEM =  unknown system                          
 POSCAR =  Fe8 Se8                                 

 Startparameter for this run:
   NWRITE =      2    write-flag & timer
   PREC   = accura    normal or accurate (medium, high low for compatibility)
   ISTART =      0    job   : 0-new  1-cont  2-samecut
   ICHARG =      2    charge: 1-file 2-atom 10-const
   ISPIN  =      2    spin polarized calculation?
   LNONCOLLINEAR =      F non collinear calculations
   LSORBIT =      F    spin-orbit coupling
   INIWAV =      1    electr: 0-lowe 1-rand  2-diag
   LASPH  =      T    aspherical Exc in radial PAW
 Electronic Relaxation 1
   ENCUT  =  550.0 eV  40.42 Ry    6.36 a.u.  14.53 14.53 11.22*2*pi/ulx,y,z
   ENINI  =  550.0     initial cutoff
   ENAUG  =  578.3 eV  augmentation charge cutoff
   NELM   =    100;   NELMIN=  2; NELMDL=  0     # of ELM steps 
   EDIFF  = 0.2E-03   stopping-criterion for ELM
   LREAL  =      T    real-space projection
   NLSPLINE    = F    spline interpolate recip. space projectors
   LCOMPAT=      F    compatible to vasp.4.4
   GGA_COMPAT  = T    GGA compatible to vasp.4.4-vasp.4.6
   LMAXPAW     = -100 max onsite density
   LMAXMIX     =    4 max onsite mixed and CHGCAR
   VOSKOWN=      0    Vosko Wilk Nusair interpolation
   ROPT   =   -0.00025  -0.00025
 Ionic relaxation
   EDIFFG = 0.2E-02   stopping-criterion for IOM
   NSW    =     99    number of steps for IOM
   NBLOCK =      1;   KBLOCK =     99    inner block; outer block 
   IBRION =      2    ionic relax: 0-MD 1-quasi-New 2-CG
   NFREE  =      1    steps in history (QN), initial steepest desc. (CG)
   ISIF   =      4    stress and relaxation
   IWAVPR =     11    prediction:  0-non 1-charg 2-wave 3-comb
   ISYM   =      2    0-nonsym 1-usesym 2-fastsym
   LCORR  =      T    Harris-Foulkes like correction to forces

   POTIM  = 0.5000    time-step for ionic-motion
   TEIN   =    0.0    initial temperature
   TEBEG  =    0.0;   TEEND  =   0.0 temperature during run
   SMASS  =  -3.00    Nose mass-parameter (am)
   estimated Nose-frequenzy (Omega)   =  0.10E-29 period in steps = 0.13E+47 mass=  -0.132E-26a.u.
   SCALEE = 1.0000    scale energy and forces
   NPACO  =    256;   APACO  = 10.0  distance and # of slots for P.C.
   PSTRESS=    0.0 pullay stress

  Mass of Ions in am
   POMASS =  55.85 78.96
  Ionic Valenz
   ZVAL   =  14.00  6.00
  Atomic Wigner-Seitz radii
   RWIGS  =  -1.00 -1.00
  virtual crystal weights 
   VCA    =   1.00  1.00
   NELECT =     160.0000    total number of electrons
   NUPDOWN=      -1.0000    fix difference up-down

 DOS related values:
   EMIN   =  10.00;   EMAX   =-10.00  energy-range for DOS
   EFERMI =   0.00;   METHOD = LEGACY      
   ISMEAR =     0;   SIGMA  =   0.05  broadening in eV -4-tet -1-fermi 0-gaus

 Electronic relaxation 2 (details)
   IALGO  =     68    algorithm
   LDIAG  =      T    sub-space diagonalisation (order eigenvalues)
   LSUBROT=      F    optimize rotation matrix (better conditioning)
   TURBO    =      0    0=normal 1=particle mesh
   IRESTART =      0    0=no restart 2=restart with 2 vectors
   NREBOOT  =      0    no. of reboots
   NMIN     =      0    reboot dimension
   EREF     =   0.00    reference energy to select bands
   IMIX   =      4    mixing-type and parameters
     AMIX     =   0.40;   BMIX     =  1.00
     AMIX_MAG =   1.60;   BMIX_MAG =  1.00
     AMIN     =   0.10
     WC   =   100.;   INIMIX=   1;  MIXPRE=   1;  MAXMIX= -45

 Intra band minimization:
   WEIMIN = 0.0010     energy-eigenvalue tresh-hold
   EBREAK =  0.50E-06  absolut break condition
   DEPER  =   0.30     relativ break condition  

   TIME   =   0.40     timestep for ELM

  volume/ion in A,a.u.               =      20.81       140.45
  Fermi-wavevector in a.u.,A,eV,Ry     =   1.282232  2.423068 22.369610  1.644120
  Thomas-Fermi vector in A             =   2.414556
 
 Write flags
   LWAVE        =      F    write WAVECAR
   LDOWNSAMPLE  =      F    k-point downsampling of WAVECAR
   LCHARG       =      T    write CHGCAR
   LVTOT        =      F    write LOCPOT, total local potential
   LVHAR        =      F    write LOCPOT, Hartree potential only
   LELF         =      F    write electronic localiz. function (ELF)
   LORBIT       =     11    0 simple, 1 ext, 2 COOP (PROOUT), +10 PAW based schemes


 Dipole corrections
   LMONO  =      F    monopole corrections only (constant potential shift)
   LDIPOL =      F    correct potential (dipole corrections)
   IDIPOL =      0    1-x, 2-y, 3-z, 4-all directions 
   EPSILON=  1.0000000 bulk dielectric constant

 Exchange correlation treatment:
   GGA     =    --    GGA type
   LEXCH   =     8    internal setting for exchange type
   LIBXC   =     F    Libxc                    
   VOSKOWN =     0    Vosko Wilk Nusair interpolation
   LHFCALC =     F    Hartree Fock is set to
   LHFONE  =     F    Hartree Fock one center treatment
   AEXX    =    0.0000 exact exchange contribution

 Linear response parameters
   LEPSILON=     F    determine dielectric tensor
   LRPA    =     F    only Hartree local field effects (RPA)
   LNABLA  =     F    use nabla operator in PAW spheres
   LVEL    =     F    velocity operator in full k-point grid
   CSHIFT  =0.1000    complex shift for real part using Kramers Kronig
   OMEGAMAX=  -1.0    maximum frequency
   DEG_THRESHOLD= 0.2000000E-02 threshold for treating states as degnerate
   RTIME   =   -0.100 relaxation time in fs
  (WPLASMAI=    0.000 imaginary part of plasma frequency in eV, 0.658/RTIME)
   DFIELD  = 0.0000000 0.0000000 0.0000000 field for delta impulse in time
 
  Optional k-point grid parameters
   LKPOINTS_OPT  =     F    use optional k-point grid
   KPOINTS_OPT_MODE=     1    mode for optional k-point grid
 
 Orbital magnetization related:
   ORBITALMAG=     F  switch on orbital magnetization
   LCHIMAG   =     F  perturbation theory with respect to B field
   DQ        =  0.001000  dq finite difference perturbation B field
   LLRAUG    =     F  two centre corrections for induced B field
   LBONE     =     F  B-component reconstruction in AE one-centre
   LVGVCALC  =     T  calculate vGv susceptibility
   LVGVAPPL  =     F  apply vGv susceptibility instead of pGv for G=0

 Random number generation:
   RANDOM_GENERATOR = DEFAULT
   PCG_SEED         = not used


--------------------------------------------------------------------------------------------------------


 conjugate gradient relaxation of ions
 charge density and potential will be updated during run
 spin polarized calculation
 RMM-DIIS sequential band-by-band and
  variant of blocked Davidson during initial phase
 perform sub-space diagonalisation
    before iterative eigenvector-optimisation
 modified Broyden-mixing scheme, WC =      100.0
 initial mixing is a Kerker type mixing with AMIX =  0.4000 and BMIX =      1.0000
 Hartree-type preconditioning will be used
 using additional bands           20
 real space projection scheme for non local part
 use partial core corrections
 calculate Harris-corrections to forces 
   (improved forces if not selfconsistent)
 use gradient corrections 
 use of overlap-Matrix (Vanderbilt PP)
 Gauss-broadening in eV      SIGMA  =   0.05


--------------------------------------------------------------------------------------------------------


  energy-cutoff  :      550.00
  volume of cell :      333.00
      direct lattice vectors                 reciprocal lattice vectors
     4.861973618 -5.838109374  0.000000000     0.102838896 -0.085644165  0.000000000
     4.861973618  5.838109374  0.000000000     0.102838896  0.085644165  0.000000000
     0.000000000  0.000000000  5.865829197     0.000000000  0.000000000  0.170478881

  length of vectors
     7.597519893  7.597519893  5.865829197     0.133831093  0.133831093  0.170478881


 
 k-points in units of 2pi/SCALE and weight: KPOINTS                                 
   0.00000000  0.00000000  0.00000000       0.002
   0.01469127 -0.01223488  0.00000000       0.009
   0.02938254 -0.02446976  0.00000000       0.009
   0.04407381 -0.03670464  0.00000000       0.009
   0.02938254 -0.00000000  0.00000000       0.005
   0.04407381 -0.01223488  0.00000000       0.009
   0.05876508 -0.02446976  0.00000000       0.009
  -0.02938254  0.04893952  0.00000000       0.009
  -0.01469127  0.03670464  0.00000000       0.009
  -0.00000000  0.02446976  0.00000000       0.005
   0.05876508 -0.00000000  0.00000000       0.005
   0.07345635 -0.01223488  0.00000000       0.009
  -0.01469127  0.06117440  0.00000000       0.009
  -0.00000000  0.04893952  0.00000000       0.005
   0.08814763 -0.00000000  0.00000000       0.005
   0.00000000  0.07340928  0.00000000       0.005
   0.00000000  0.00000000  0.01894210       0.005
   0.01469127 -0.01223488  0.01894210       0.018
   0.02938254 -0.02446976  0.01894210       0.018
   0.04407381 -0.03670464  0.01894210       0.018
   0.02938254 -0.00000000  0.01894210       0.009
   0.04407381 -0.01223488  0.01894210       0.018
   0.05876508 -0.02446976  0.01894210       0.018
  -0.02938254  0.04893952  0.01894210       0.018
  -0.01469127  0.03670464  0.01894210       0.018
  -0.00000000  0.02446976  0.01894210       0.009
   0.05876508 -0.00000000  0.01894210       0.009
   0.07345635 -0.01223488  0.01894210       0.018
  -0.01469127  0.06117440  0.01894210       0.018
  -0.00000000  0.04893952  0.01894210       0.009
   0.08814763 -0.00000000  0.01894210       0.009
   0.00000000  0.07340928  0.01894210       0.009
   0.00000000  0.00000000  0.03788420       0.005
   0.01469127 -0.01223488  0.03788420       0.018
   0.02938254 -0.02446976  0.03788420       0.018
   0.04407381 -0.03670464  0.03788420       0.018
   0.02938254 -0.00000000  0.03788420       0.009
   0.04407381 -0.01223488  0.03788420       0.018
   0.05876508 -0.02446976  0.03788420       0.018
  -0.02938254  0.04893952  0.03788420       0.018
  -0.01469127  0.03670464  0.03788420       0.018
  -0.00000000  0.02446976  0.03788420       0.009
   0.05876508 -0.00000000  0.03788420       0.009
   0.07345635 -0.01223488  0.03788420       0.018
  -0.01469127  0.06117440  0.03788420       0.018
  -0.00000000  0.04893952  0.03788420       0.009
   0.08814763 -0.00000000  0.03788420       0.009
   0.00000000  0.07340928  0.03788420       0.009
   0.00000000  0.00000000  0.05682629       0.005
   0.01469127 -0.01223488  0.05682629       0.018
   0.02938254 -0.02446976  0.05682629       0.018
   0.04407381 -0.03670464  0.05682629       0.018
   0.02938254 -0.00000000  0.05682629       0.009
   0.04407381 -0.01223488  0.05682629       0.018
   0.05876508 -0.02446976  0.05682629       0.018
  -0.02938254  0.04893952  0.05682629       0.018
  -0.01469127  0.03670464  0.05682629       0.018
  -0.00000000  0.02446976  0.05682629       0.009
   0.05876508 -0.00000000  0.05682629       0.009
   0.07345635 -0.01223488  0.05682629       0.018
  -0.01469127  0.06117440  0.05682629       0.018
  -0.00000000  0.04893952  0.05682629       0.009
   0.08814763 -0.00000000  0.05682629       0.009
   0.00000000  0.07340928  0.05682629       0.009
   0.00000000  0.00000000  0.07576839       0.005
   0.01469127 -0.01223488  0.07576839       0.018
   0.02938254 -0.02446976  0.07576839       0.018
   0.04407381 -0.03670464  0.07576839       0.018
   0.02938254 -0.00000000  0.07576839       0.009
   0.04407381 -0.01223488  0.07576839       0.018
   0.05876508 -0.02446976  0.07576839       0.018
  -0.02938254  0.04893952  0.07576839       0.018
  -0.01469127  0.03670464  0.07576839       0.018
  -0.00000000  0.02446976  0.07576839       0.009
   0.05876508 -0.00000000  0.07576839       0.009
   0.07345635 -0.01223488  0.07576839       0.018
  -0.01469127  0.06117440  0.07576839       0.018
  -0.00000000  0.04893952  0.07576839       0.009
   0.08814763 -0.00000000  0.07576839       0.009
   0.00000000  0.07340928  0.07576839       0.009
 
 k-points in reciprocal lattice and weights: KPOINTS                                 
   0.00000000  0.00000000  0.00000000       0.002
   0.14285714  0.00000000  0.00000000       0.009
   0.28571429 -0.00000000  0.00000000       0.009
   0.42857143 -0.00000000  0.00000000       0.009
   0.14285714  0.14285714  0.00000000       0.005
   0.28571429  0.14285714  0.00000000       0.009
   0.42857143  0.14285714  0.00000000       0.009
  -0.42857143  0.14285714  0.00000000       0.009
  -0.28571429  0.14285714  0.00000000       0.009
  -0.14285714  0.14285714  0.00000000       0.005
   0.28571429  0.28571429  0.00000000       0.005
   0.42857143  0.28571429  0.00000000       0.009
  -0.42857143  0.28571429  0.00000000       0.009
  -0.28571429  0.28571429  0.00000000       0.005
   0.42857143  0.42857143  0.00000000       0.005
  -0.42857143  0.42857143  0.00000000       0.005
   0.00000000  0.00000000  0.11111111       0.005
   0.14285714  0.00000000  0.11111111       0.018
   0.28571429 -0.00000000  0.11111111       0.018
   0.42857143 -0.00000000  0.11111111       0.018
   0.14285714  0.14285714  0.11111111       0.009
   0.28571429  0.14285714  0.11111111       0.018
   0.42857143  0.14285714  0.11111111       0.018
  -0.42857143  0.14285714  0.11111111       0.018
  -0.28571429  0.14285714  0.11111111       0.018
  -0.14285714  0.14285714  0.11111111       0.009
   0.28571429  0.28571429  0.11111111       0.009
   0.42857143  0.28571429  0.11111111       0.018
  -0.42857143  0.28571429  0.11111111       0.018
  -0.28571429  0.28571429  0.11111111       0.009
   0.42857143  0.42857143  0.11111111       0.009
  -0.42857143  0.42857143  0.11111111       0.009
   0.00000000  0.00000000  0.22222222       0.005
   0.14285714  0.00000000  0.22222222       0.018
   0.28571429 -0.00000000  0.22222222       0.018
   0.42857143 -0.00000000  0.22222222       0.018
   0.14285714  0.14285714  0.22222222       0.009
   0.28571429  0.14285714  0.22222222       0.018
   0.42857143  0.14285714  0.22222222       0.018
  -0.42857143  0.14285714  0.22222222       0.018
  -0.28571429  0.14285714  0.22222222       0.018
  -0.14285714  0.14285714  0.22222222       0.009
   0.28571429  0.28571429  0.22222222       0.009
   0.42857143  0.28571429  0.22222222       0.018
  -0.42857143  0.28571429  0.22222222       0.018
  -0.28571429  0.28571429  0.22222222       0.009
   0.42857143  0.42857143  0.22222222       0.009
  -0.42857143  0.42857143  0.22222222       0.009
   0.00000000  0.00000000  0.33333333       0.005
   0.14285714  0.00000000  0.33333333       0.018
   0.28571429 -0.00000000  0.33333333       0.018
   0.42857143 -0.00000000  0.33333333       0.018
   0.14285714  0.14285714  0.33333333       0.009
   0.28571429  0.14285714  0.33333333       0.018
   0.42857143  0.14285714  0.33333333       0.018
  -0.42857143  0.14285714  0.33333333       0.018
  -0.28571429  0.14285714  0.33333333       0.018
  -0.14285714  0.14285714  0.33333333       0.009
   0.28571429  0.28571429  0.33333333       0.009
   0.42857143  0.28571429  0.33333333       0.018
  -0.42857143  0.28571429  0.33333333       0.018
  -0.28571429  0.28571429  0.33333333       0.009
   0.42857143  0.42857143  0.33333333       0.009
  -0.42857143  0.42857143  0.33333333       0.009
   0.00000000  0.00000000  0.44444444       0.005
   0.14285714  0.00000000  0.44444444       0.018
   0.28571429 -0.00000000  0.44444444       0.018
   0.42857143 -0.00000000  0.44444444       0.018
   0.14285714  0.14285714  0.44444444       0.009
   0.28571429  0.14285714  0.44444444       0.018
   0.42857143  0.14285714  0.44444444       0.018
  -0.42857143  0.14285714  0.44444444       0.018
  -0.28571429  0.14285714  0.44444444       0.018
  -0.14285714  0.14285714  0.44444444       0.009
   0.28571429  0.28571429  0.44444444       0.009
   0.42857143  0.28571429  0.44444444       0.018
  -0.42857143  0.28571429  0.44444444       0.018
  -0.28571429  0.28571429  0.44444444       0.009
   0.42857143  0.42857143  0.44444444       0.009
  -0.42857143  0.42857143  0.44444444       0.009
 
 position of ions in fractional coordinates (direct lattice) 
   0.00000000  0.00000000  0.00000000
   0.00000000  0.50000000  0.00000000
   0.50000000  0.00000000  0.00000000
   0.50000000  0.50000000  0.00000000
   0.25000000  0.25000000  0.00000000
   0.25000000  0.75000000  0.00000000
   0.75000000  0.25000000  0.00000000
   0.75000000  0.75000000  0.00000000
   0.37500000  0.12500000  0.70222405
   0.37500000  0.62500000  0.70222405
   0.87500000  0.12500000  0.70222405
   0.87500000  0.62500000  0.70222405
   0.12500000  0.37500000  0.29777595
   0.12500000  0.87500000  0.29777595
   0.62500000  0.37500000  0.29777595
   0.62500000  0.87500000  0.29777595
 
 position of ions in cartesian coordinates  (Angst):
   0.00000000  0.00000000  0.00000000
   2.43098681  2.91905469  0.00000000
   2.43098681 -2.91905469  0.00000000
   4.86197362  0.00000000  0.00000000
   2.43098681  0.00000000  0.00000000
   4.86197362  2.91905469  0.00000000
   4.86197362 -2.91905469  0.00000000
   7.29296043  0.00000000  0.00000000
   2.43098681 -1.45952734  4.11912636
   4.86197362  1.45952734  4.11912636
   4.86197362 -4.37858203  4.11912636
   7.29296043 -1.45952734  4.11912636
   2.43098681  1.45952734  1.74670284
   4.86197362  4.37858203  1.74670284
   4.86197362 -1.45952734  1.74670284
   7.29296043  1.45952734  1.74670284
 


--------------------------------------------------------------------------------------------------------


 k-point   1 :   0.0000 0.0000 0.0000  plane waves:    9763
 k-point   2 :   0.1429 0.0000 0.0000  plane waves:    9761
 k-point   3 :   0.2857-0.0000 0.0000  plane waves:    9763
 k-point   4 :   0.4286-0.0000 0.0000  plane waves:    9744
 k-point   5 :   0.1429 0.1429 0.0000  plane waves:    9777
 k-point   6 :   0.2857 0.1429 0.0000  plane waves:    9763
 k-point   7 :   0.4286 0.1429 0.0000  plane waves:    9746
 k-point   8 :  -0.4286 0.1429 0.0000  plane waves:    9758
 k-point   9 :  -0.2857 0.1429 0.0000  plane waves:    9758
 k-point  10 :  -0.1429 0.1429 0.0000  plane waves:    9765
 k-point  11 :   0.2857 0.2857 0.0000  plane waves:    9735
 k-point  12 :   0.4286 0.2857 0.0000  plane waves:    9743
 k-point  13 :  -0.4286 0.2857 0.0000  plane waves:    9743
 k-point  14 :  -0.2857 0.2857 0.0000  plane waves:    9764
 k-point  15 :   0.4286 0.4286 0.0000  plane waves:    9740
 k-point  16 :  -0.4286 0.4286 0.0000  plane waves:    9738
 k-point  17 :   0.0000 0.0000 0.1111  plane waves:    9765
 k-point  18 :   0.1429 0.0000 0.1111  plane waves:    9778
 k-point  19 :   0.2857-0.0000 0.1111  plane waves:    9767
 k-point  20 :   0.4286-0.0000 0.1111  plane waves:    9740
 k-point  21 :   0.1429 0.1429 0.1111  plane waves:    9768
 k-point  22 :   0.2857 0.1429 0.1111  plane waves:    9758
 k-point  23 :   0.4286 0.1429 0.1111  plane waves:    9752
 k-point  24 :  -0.4286 0.1429 0.1111  plane waves:    9757
 k-point  25 :  -0.2857 0.1429 0.1111  plane waves:    9764
 k-point  26 :  -0.1429 0.1429 0.1111  plane waves:    9752
 k-point  27 :   0.2857 0.2857 0.1111  plane waves:    9743
 k-point  28 :   0.4286 0.2857 0.1111  plane waves:    9740
 k-point  29 :  -0.4286 0.2857 0.1111  plane waves:    9743
 k-point  30 :  -0.2857 0.2857 0.1111  plane waves:    9757
 k-point  31 :   0.4286 0.4286 0.1111  plane waves:    9726
 k-point  32 :  -0.4286 0.4286 0.1111  plane waves:    9744
 k-point  33 :   0.0000 0.0000 0.2222  plane waves:    9772
 k-point  34 :   0.1429 0.0000 0.2222  plane waves:    9750
 k-point  35 :   0.2857-0.0000 0.2222  plane waves:    9756
 k-point  36 :   0.4286-0.0000 0.2222  plane waves:    9748
 k-point  37 :   0.1429 0.1429 0.2222  plane waves:    9759
 k-point  38 :   0.2857 0.1429 0.2222  plane waves:    9753
 k-point  39 :   0.4286 0.1429 0.2222  plane waves:    9734
 k-point  40 :  -0.4286 0.1429 0.2222  plane waves:    9745
 k-point  41 :  -0.2857 0.1429 0.2222  plane waves:    9753
 k-point  42 :  -0.1429 0.1429 0.2222  plane waves:    9752
 k-point  43 :   0.2857 0.2857 0.2222  plane waves:    9735
 k-point  44 :   0.4286 0.2857 0.2222  plane waves:    9742
 k-point  45 :  -0.4286 0.2857 0.2222  plane waves:    9754
 k-point  46 :  -0.2857 0.2857 0.2222  plane waves:    9752
 k-point  47 :   0.4286 0.4286 0.2222  plane waves:    9745
 k-point  48 :  -0.4286 0.4286 0.2222  plane waves:    9748
 k-point  49 :   0.0000 0.0000 0.3333  plane waves:    9752
 k-point  50 :   0.1429 0.0000 0.3333  plane waves:    9765
 k-point  51 :   0.2857-0.0000 0.3333  plane waves:    9759
 k-point  52 :   0.4286-0.0000 0.3333  plane waves:    9745
 k-point  53 :   0.1429 0.1429 0.3333  plane waves:    9765
 k-point  54 :   0.2857 0.1429 0.3333  plane waves:    9760
 k-point  55 :   0.4286 0.1429 0.3333  plane waves:    9741
 k-point  56 :  -0.4286 0.1429 0.3333  plane waves:    9752
 k-point  57 :  -0.2857 0.1429 0.3333  plane waves:    9762
 k-point  58 :  -0.1429 0.1429 0.3333  plane waves:    9765
 k-point  59 :   0.2857 0.2857 0.3333  plane waves:    9750
 k-point  60 :   0.4286 0.2857 0.3333  plane waves:    9746
 k-point  61 :  -0.4286 0.2857 0.3333  plane waves:    9743
 k-point  62 :  -0.2857 0.2857 0.3333  plane waves:    9753
 k-point  63 :   0.4286 0.4286 0.3333  plane waves:    9756
 k-point  64 :  -0.4286 0.4286 0.3333  plane waves:    9754
 k-point  65 :   0.0000 0.0000 0.4444  plane waves:    9780
 k-point  66 :   0.1429 0.0000 0.4444  plane waves:    9763
 k-point  67 :   0.2857-0.0000 0.4444  plane waves:    9755
 k-point  68 :   0.4286-0.0000 0.4444  plane waves:    9754
 k-point  69 :   0.1429 0.1429 0.4444  plane waves:    9750
 k-point  70 :   0.2857 0.1429 0.4444  plane waves:    9766
 k-point  71 :   0.4286 0.1429 0.4444  plane waves:    9753
 k-point  72 :  -0.4286 0.1429 0.4444  plane waves:    9750
 k-point  73 :  -0.2857 0.1429 0.4444  plane waves:    9757
 k-point  74 :  -0.1429 0.1429 0.4444  plane waves:    9760
 k-point  75 :   0.2857 0.2857 0.4444  plane waves:    9779
 k-point  76 :   0.4286 0.2857 0.4444  plane waves:    9756
 k-point  77 :  -0.4286 0.2857 0.4444  plane waves:    9750
 k-point  78 :  -0.2857 0.2857 0.4444  plane waves:    9761
 k-point  79 :   0.4286 0.4286 0.4444  plane waves:    9763
 k-point  80 :  -0.4286 0.4286 0.4444  plane waves:    9750

 maximum and minimum number of plane-waves per node :      9780     9726

 maximum number of plane-waves:      9780
 maximum index in each direction: 
   IXMAX=   14   IYMAX=   14   IZMAX=   11
   IXMIN=  -14   IYMIN=  -14   IZMIN=  -11


 serial   3D FFT for wavefunctions
 parallel 3D FFT for charge:
    minimum data exchange during FFTs selected (reduces bandwidth)


 total amount of memory used by VASP MPI-rank0   194759. kBytes
=======================================================================

   base      :      30000. kBytes
   nonlr-proj:      13106. kBytes
   fftplans  :       3084. kBytes
   grid      :      19560. kBytes
   one-center:        497. kBytes
   wavefun   :     128512. kBytes
 
     INWAV:  cpu time      0.0000: real time      0.0002
 Broyden mixing: mesh for mixing (old mesh)
   NGX = 29   NGY = 29   NGZ = 23
  (NGX  =120   NGY  =120   NGZ  = 96)
  gives a total of  19343 points

 initial charge density was supplied:
 charge density of overlapping atoms calculated
 number of electron     160.0000000 magnetization      -0.0000000
 keeping initial charge density in first step


--------------------------------------------------------------------------------------------------------


 Maximum index for non-local projection operator         6441
 Maximum index for augmentation-charges         1115 (set IRDMAX)


--------------------------------------------------------------------------------------------------------


 First call to EWALD:  gamma=   0.256
 Maximum number of real-space cells 3x 3x 3
 Maximum number of reciprocal cells 3x 3x 2

    FEWALD:  cpu time      0.0017: real time      0.0018


--------------------------------------- Ionic step        1  -------------------------------------------




--------------------------------------- Iteration      1(   1)  ---------------------------------------


    POTLOK:  cpu time      0.0675: real time      0.0748
    SETDIJ:  cpu time      0.2730: real time      0.2740
     EDDAV:  cpu time     29.5587: real time     29.7146
       DOS:  cpu time      0.0026: real time      0.0027
    --------------------------------------------
      LOOP:  cpu time     29.9018: real time     30.0660

 eigenvalue-minimisations  : 35700
 total energy-change (2. order) : 0.1995592E+04  (-0.8900285E+04)
 number of electron     160.0000000 magnetization      -0.0000000
 augmentation part      160.0000000 magnetization      -0.0000000

 Free energy of the ion-electron system (eV)
  ---------------------------------------------------
  alpha Z        PSCENC =       762.61737321
  Ewald energy   TEWEN  =    -10628.58080284
  -Hartree energ DENC   =     -9576.84567440
  -exchange      EXHF   =         0.00000000
  -V(xc)+E(xc)   XCENC  =       564.58985696
  PAW double counting   =     15527.83286935   -16123.58730366
  entropy T*S    EENTRO =        -0.01190388
  eigenvalues    EBANDS =      -241.26345609
  atomic energy  EATOM  =     21710.84102437
  Solvation  Ediel_sol  =         0.00000000
  ---------------------------------------------------
  free energy    TOTEN  =      1995.59198303 eV

  energy without entropy =     1995.60388691  energy(sigma->0) =     1995.59793497


--------------------------------------------------------------------------------------------------------




--------------------------------------- Iteration      1(   2)  ---------------------------------------


     EDDAV:  cpu time     26.8975: real time     27.0576
       DOS:  cpu time      0.0022: real time      0.0022
    --------------------------------------------
      LOOP:  cpu time     26.8997: real time     27.0598

 eigenvalue-minimisations  : 32000
 total energy-change (2. order) :-0.1873307E+04  (-0.1820371E+04)
 number of electron     160.0000000 magnetization      -0.0000000
 augmentation part      160.0000000 magnetization      -0.0000000

 Free energy of the ion-electron system (eV)
  ---------------------------------------------------
  alpha Z        PSCENC =       762.61737321
  Ewald energy   TEWEN  =    -10628.58080284
  -Hartree energ DENC   =     -9576.84567440
  -exchange      EXHF   =         0.00000000
  -V(xc)+E(xc)   XCENC  =       564.58985696
  PAW double counting   =     15527.83286935   -16123.58730366
  entropy T*S    EENTRO =        -0.01505763
  eigenvalues    EBANDS =     -2114.56713814
  atomic energy  EATOM  =     21710.84102437
  Solvation  Ediel_sol  =         0.00000000
  ---------------------------------------------------
  free energy    TOTEN  =       122.28514723 eV

  energy without entropy =      122.30020486  energy(sigma->0) =      122.29267604


--------------------------------------------------------------------------------------------------------




--------------------------------------- Iteration      1(   3)  ---------------------------------------


     EDDAV:  cpu time     37.9714: real time     38.1944
       DOS:  cpu time      0.0024: real time      0.0024
    --------------------------------------------
      LOOP:  cpu time     37.9739: real time     38.1969

 eigenvalue-minimisations  : 46180
 total energy-change (2. order) :-0.2077270E+03  (-0.1853620E+03)
 number of electron     160.0000000 magnetization      -0.0000000
 augmentation part      160.0000000 magnetization      -0.0000000

 Free energy of the ion-electron system (eV)
  ---------------------------------------------------
  alpha Z        PSCENC =       762.61737321
  Ewald energy   TEWEN  =    -10628.58080284
  -Hartree energ DENC   =     -9576.84567440
  -exchange      EXHF   =         0.00000000
  -V(xc)+E(xc)   XCENC  =       564.58985696
  PAW double counting   =     15527.83286935   -16123.58730366
  entropy T*S    EENTRO =        -0.02734156
  eigenvalues    EBANDS =     -2322.28183129
  atomic energy  EATOM  =     21710.84102437
  Solvation  Ediel_sol  =         0.00000000
  ---------------------------------------------------
  free energy    TOTEN  =       -85.44182986 eV

  energy without entropy =      -85.41448830  energy(sigma->0) =      -85.42815908


--------------------------------------------------------------------------------------------------------




--------------------------------------- Iteration      1(   4)  ---------------------------------------


     EDDAV:  cpu time     37.1707: real time     37.3863
       DOS:  cpu time      0.0022: real time      0.0022
    --------------------------------------------
      LOOP:  cpu time     37.1729: real time     37.3885

 eigenvalue-minimisations  : 47380
 total energy-change (2. order) :-0.1477193E+02  (-0.1445200E+02)
 number of electron     160.0000000 magnetization      -0.0000000
 augmentation part      160.0000000 magnetization      -0.0000000

 Free energy of the ion-electron system (eV)
  ---------------------------------------------------
  alpha Z        PSCENC =       762.61737321
  Ewald energy   TEWEN  =    -10628.58080284
  -Hartree energ DENC   =     -9576.84567440
  -exchange      EXHF   =         0.00000000
  -V(xc)+E(xc)   XCENC  =       564.58985696
  PAW double counting   =     15527.83286935   -16123.58730366
  entropy T*S    EENTRO =        -0.03060268
  eigenvalues    EBANDS =     -2337.05050196
  atomic energy  EATOM  =     21710.84102437
  Solvation  Ediel_sol  =         0.00000000
  ---------------------------------------------------
  free energy    TOTEN  =      -100.21376164 eV

  energy without entropy =     -100.18315896  energy(sigma->0) =     -100.19846030


--------------------------------------------------------------------------------------------------------




--------------------------------------- Iteration      1(   5)  ---------------------------------------


     EDDAV:  cpu time     35.8462: real time     36.0750
       DOS:  cpu time      0.0023: real time      0.0023
    CHARGE:  cpu time      1.0668: real time      1.0730
    MIXING:  cpu time      0.0017: real time      0.0017
    --------------------------------------------
      LOOP:  cpu time     36.9169: real time     37.1520

 eigenvalue-minimisations  : 44240
 total energy-change (2. order) :-0.3345754E+00  (-0.3338425E+00)
 number of electron     160.0000066 magnetization       0.0000000
 augmentation part       53.0662651 magnetization       0.0000000

 Broyden mixing:
  rms(total) = 0.27752E+01    rms(broyden)= 0.27748E+01
  rms(prec ) = 0.43460E+01
  weight for this iteration     100.00

 Free energy of the ion-electron system (eV)
  ---------------------------------------------------
  alpha Z        PSCENC =       762.61737321
  Ewald energy   TEWEN  =    -10628.58080284
  -Hartree energ DENC   =     -9576.84567440
  -exchange      EXHF   =         0.00000000
  -V(xc)+E(xc)   XCENC  =       564.58985696
  PAW double counting   =     15527.83286935   -16123.58730366
  entropy T*S    EENTRO =        -0.03073605
  eigenvalues    EBANDS =     -2337.38494399
  atomic energy  EATOM  =     21710.84102437
  Solvation  Ediel_sol  =         0.00000000
  ---------------------------------------------------
  free energy    TOTEN  =      -100.54833704 eV

  energy without entropy =     -100.51760099  energy(sigma->0) =     -100.53296901


--------------------------------------------------------------------------------------------------------




--------------------------------------- Iteration      1(   6)  ---------------------------------------


    POTLOK:  cpu time      0.0660: real time      0.0842
    SETDIJ:  cpu time      0.2707: real time      0.2716
    EDDIAG:  cpu time      4.4847: real time      4.5064
  RMM-DIIS:  cpu time     16.6344: real time     16.7182
    ORTHCH:  cpu time      0.6200: real time      0.6247
       DOS:  cpu time      0.0021: real time      0.0021
    CHARGE:  cpu time      1.0449: real time      1.0510
    MIXING:  cpu time      0.0017: real time      0.0017
    --------------------------------------------
      LOOP:  cpu time     23.1244: real time     23.2598

 eigenvalue-minimisations  : 32096
 total energy-change (2. order) :-0.1200740E+02  (-0.1760155E+02)
 number of electron     160.0000087 magnetization       0.0000000
 augmentation part       70.1389606 magnetization       0.0000000

 Broyden mixing:
  rms(total) = 0.53236E+01    rms(broyden)= 0.53235E+01
  rms(prec ) = 0.83529E+01
  weight for this iteration     100.00

 eigenvalues of (default mixing * dielectric matrix)
  average eigenvalue GAMMA=   0.2927
  0.2927

 Free energy of the ion-electron system (eV)
  ---------------------------------------------------
  alpha Z        PSCENC =       762.61737321
  Ewald energy   TEWEN  =    -10628.58080284
  -Hartree energ DENC   =     -9109.37607013
  -exchange      EXHF   =         0.00000000
  -V(xc)+E(xc)   XCENC  =       552.63085521
  PAW double counting   =     14971.60707133   -15535.51177138
  entropy T*S    EENTRO =        -0.03663967
  eigenvalues    EBANDS =     -2836.74677338
  atomic energy  EATOM  =     21710.84102437
  Solvation  Ediel_sol  =         0.00000000
  ---------------------------------------------------
  free energy    TOTEN  =      -112.55573329 eV

  energy without entropy =     -112.51909362  energy(sigma->0) =     -112.53741345


--------------------------------------------------------------------------------------------------------




--------------------------------------- Iteration      1(   7)  ---------------------------------------


    POTLOK:  cpu time      0.0568: real time      0.0915
    SETDIJ:  cpu time      0.2702: real time      0.2712
    EDDIAG:  cpu time      4.6033: real time      4.6261
  RMM-DIIS:  cpu time     17.4065: real time     17.4946
    ORTHCH:  cpu time      0.6202: real time      0.6228
       DOS:  cpu time      0.0019: real time      0.0019
    CHARGE:  cpu time      1.1354: real time      1.1409
    MIXING:  cpu time      0.0017: real time      0.0017
    --------------------------------------------
      LOOP:  cpu time     24.0959: real time     24.2507

 eigenvalue-minimisations  : 32030
 total energy-change (2. order) : 0.2153227E+02  (-0.4482170E+01)
 number of electron     160.0000068 magnetization       0.0000000
 augmentation part       57.7524433 magnetization       0.0000000

 Broyden mixing:
  rms(total) = 0.11691E+01    rms(broyden)= 0.11685E+01
  rms(prec ) = 0.14090E+01
  weight for this iteration     100.00

 eigenvalues of (default mixing * dielectric matrix)
  average eigenvalue GAMMA=   0.4467
  0.6263  0.2671

 Free energy of the ion-electron system (eV)
  ---------------------------------------------------
  alpha Z        PSCENC =       762.61737321
  Ewald energy   TEWEN  =    -10628.58080284
  -Hartree energ DENC   =     -9396.98779927
  -exchange      EXHF   =         0.00000000
  -V(xc)+E(xc)   XCENC  =       557.61582812
  PAW double counting   =     15470.10185931   -16067.65493393
  entropy T*S    EENTRO =        -0.03465015
  eigenvalues    EBANDS =     -2498.94136493
  atomic energy  EATOM  =     21710.84102437
  Solvation  Ediel_sol  =         0.00000000
  ---------------------------------------------------
  free energy    TOTEN  =       -91.02346611 eV

  energy without entropy =      -90.98881596  energy(sigma->0) =      -91.00614103


--------------------------------------------------------------------------------------------------------




--------------------------------------- Iteration      1(   8)  ---------------------------------------


    POTLOK:  cpu time      0.0638: real time      0.0643
    SETDIJ:  cpu time      0.2692: real time      0.2702
    EDDIAG:  cpu time      4.6836: real time      4.7096
  RMM-DIIS:  cpu time     22.0004: real time     22.1141
    ORTHCH:  cpu time      0.6127: real time      0.6158
       DOS:  cpu time      0.0022: real time      0.0022
    CHARGE:  cpu time      1.0893: real time      1.0950
    MIXING:  cpu time      0.0019: real time      0.0019
    --------------------------------------------
      LOOP:  cpu time     28.7231: real time     28.8732

 eigenvalue-minimisations  : 41122
 total energy-change (2. order) :-0.5848536E+00  (-0.3208788E+00)
 number of electron     160.0000066 magnetization       0.0000000
 augmentation part       58.3401054 magnetization       0.0000000

 Broyden mixing:
  rms(total) = 0.54780E+00    rms(broyden)= 0.54747E+00
  rms(prec ) = 0.71487E+00
  weight for this iteration     100.00

 eigenvalues of (default mixing * dielectric matrix)
  average eigenvalue GAMMA=   0.6173
  0.3071  0.7724  0.7724

 Free energy of the ion-electron system (eV)
  ---------------------------------------------------
  alpha Z        PSCENC =       762.61737321
  Ewald energy   TEWEN  =    -10628.58080284
  -Hartree energ DENC   =     -9384.87615903
  -exchange      EXHF   =         0.00000000
  -V(xc)+E(xc)   XCENC  =       558.09029796
  PAW double counting   =     15520.58607713   -16125.11533034
  entropy T*S    EENTRO =        -0.02503702
  eigenvalues    EBANDS =     -2505.14576317
  atomic energy  EATOM  =     21710.84102437
  Solvation  Ediel_sol  =         0.00000000
  ---------------------------------------------------
  free energy    TOTEN  =       -91.60831972 eV

  energy without entropy =      -91.58328271  energy(sigma->0) =      -91.59580121


--------------------------------------------------------------------------------------------------------




--------------------------------------- Iteration      1(   9)  ---------------------------------------


    POTLOK:  cpu time      0.0540: real time      0.0787
    SETDIJ:  cpu time      0.2676: real time      0.2686
    EDDIAG:  cpu time      4.5337: real time      4.5553
  RMM-DIIS:  cpu time     22.3611: real time     22.4800
    ORTHCH:  cpu time      0.6226: real time      0.6253
       DOS:  cpu time      0.0022: real time      0.0022
    CHARGE:  cpu time      1.1031: real time      1.1087
    MIXING:  cpu time      0.0020: real time      0.0020
    --------------------------------------------
      LOOP:  cpu time     28.9463: real time     29.1210

 eigenvalue-minimisations  : 44283
 total energy-change (2. order) :-0.1120269E+00  (-0.9537498E-01)
 number of electron     160.0000064 magnetization      -0.0000000
 augmentation part       58.7683383 magnetization      -0.0000000

 Broyden mixing:
  rms(total) = 0.30338E+00    rms(broyden)= 0.30280E+00
  rms(prec ) = 0.36703E+00
  weight for this iteration     100.00

 eigenvalues of (default mixing * dielectric matrix)
  average eigenvalue GAMMA=   0.8297
  1.1597  1.1597  0.3009  0.6987

 Free energy of the ion-electron system (eV)
  ---------------------------------------------------
  alpha Z        PSCENC =       762.61737321
  Ewald energy   TEWEN  =    -10628.58080284
  -Hartree energ DENC   =     -9369.45374808
  -exchange      EXHF   =         0.00000000
  -V(xc)+E(xc)   XCENC  =       558.34400651
  PAW double counting   =     15602.77144461   -16213.79277379
  entropy T*S    EENTRO =        -0.01752384
  eigenvalues    EBANDS =     -2514.44934681
  atomic energy  EATOM  =     21710.84102437
  Solvation  Ediel_sol  =         0.00000000
  ---------------------------------------------------
  free energy    TOTEN  =       -91.72034666 eV

  energy without entropy =      -91.70282282  energy(sigma->0) =      -91.71158474


--------------------------------------------------------------------------------------------------------




--------------------------------------- Iteration      1(  10)  ---------------------------------------


    POTLOK:  cpu time      0.0562: real time      0.0921
    SETDIJ:  cpu time      0.2676: real time      0.2686
    EDDIAG:  cpu time      4.6741: real time      4.6962
  RMM-DIIS:  cpu time     25.1665: real time     25.2994
    ORTHCH:  cpu time      0.6042: real time      0.6068
       DOS:  cpu time      0.0021: real time      0.0021
    CHARGE:  cpu time      0.9917: real time      0.9968
    MIXING:  cpu time      0.0019: real time      0.0019
    --------------------------------------------
      LOOP:  cpu time     31.7644: real time     31.9640

 eigenvalue-minimisations  : 46196
 total energy-change (2. order) :-0.2374455E-01  (-0.2977239E-01)
 number of electron     160.0000064 magnetization       0.0000000
 augmentation part       58.9551278 magnetization       0.0000000

 Broyden mixing:
  rms(total) = 0.18158E+00    rms(broyden)= 0.18135E+00
  rms(prec ) = 0.20841E+00
  weight for this iteration     100.00

 eigenvalues of (default mixing * dielectric matrix)
  average eigenvalue GAMMA=   1.0258
  1.6343  1.6343  0.3013  0.7386  0.8205

 Free energy of the ion-electron system (eV)
  ---------------------------------------------------
  alpha Z        PSCENC =       762.61737321
  Ewald energy   TEWEN  =    -10628.58080284
  -Hartree energ DENC   =     -9363.39736366
  -exchange      EXHF   =         0.00000000
  -V(xc)+E(xc)   XCENC  =       558.35250041
  PAW double counting   =     15654.15676677   -16268.71446266
  entropy T*S    EENTRO =        -0.01550177
  eigenvalues    EBANDS =     -2517.00362504
  atomic energy  EATOM  =     21710.84102437
  Solvation  Ediel_sol  =         0.00000000
  ---------------------------------------------------
  free energy    TOTEN  =       -91.74409121 eV

  energy without entropy =      -91.72858944  energy(sigma->0) =      -91.73634032


--------------------------------------------------------------------------------------------------------




--------------------------------------- Iteration      1(  11)  ---------------------------------------


    POTLOK:  cpu time      0.0694: real time      0.1057
    SETDIJ:  cpu time      0.2690: real time      0.2700
    EDDIAG:  cpu time      4.5556: real time      4.5795
  RMM-DIIS:  cpu time     21.2832: real time     21.3933
    ORTHCH:  cpu time      0.6187: real time      0.6214
       DOS:  cpu time      0.0020: real time      0.0020
    CHARGE:  cpu time      1.1057: real time      1.1110
    MIXING:  cpu time      0.0023: real time      0.0023
    --------------------------------------------
      LOOP:  cpu time     27.9059: real time     28.0851

 eigenvalue-minimisations  : 40410
 total energy-change (2. order) : 0.1592181E-02  (-0.7509080E-02)
 number of electron     160.0000064 magnetization       0.0000000
 augmentation part       58.9089550 magnetization       0.0000000

 Broyden mixing:
  rms(total) = 0.75056E-01    rms(broyden)= 0.74992E-01
  rms(prec ) = 0.88643E-01
  weight for this iteration     100.00

 eigenvalues of (default mixing * dielectric matrix)
  average eigenvalue GAMMA=   1.0938
  1.8747  1.8747  0.3012  0.9185  0.9185  0.6752

 Free energy of the ion-electron system (eV)
  ---------------------------------------------------
  alpha Z        PSCENC =       762.61737321
  Ewald energy   TEWEN  =    -10628.58080284
  -Hartree energ DENC   =     -9361.49023746
  -exchange      EXHF   =         0.00000000
  -V(xc)+E(xc)   XCENC  =       558.54240908
  PAW double counting   =     15716.45392482   -16334.39676485
  entropy T*S    EENTRO =        -0.01527272
  eigenvalues    EBANDS =     -2515.71415263
  atomic energy  EATOM  =     21710.84102437
  Solvation  Ediel_sol  =         0.00000000
  ---------------------------------------------------
  free energy    TOTEN  =       -91.74249903 eV

  energy without entropy =      -91.72722631  energy(sigma->0) =      -91.73486267


--------------------------------------------------------------------------------------------------------




--------------------------------------- Iteration      1(  12)  ---------------------------------------


    POTLOK:  cpu time      0.0564: real time      0.0953
    SETDIJ:  cpu time      0.2692: real time      0.2702
    EDDIAG:  cpu time      4.7193: real time      4.7415
  RMM-DIIS:  cpu time     22.9920: real time     23.1107
    ORTHCH:  cpu time      0.6176: real time      0.6201
       DOS:  cpu time      0.0022: real time      0.0022
    CHARGE:  cpu time      1.0826: real time      1.0884
    MIXING:  cpu time      0.0019: real time      0.0020
    --------------------------------------------
      LOOP:  cpu time     29.7413: real time     29.9305

 eigenvalue-minimisations  : 42415
 total energy-change (2. order) :-0.1128717E-01  (-0.2660323E-02)
 number of electron     160.0000064 magnetization      -0.0000000
 augmentation part       58.9576011 magnetization      -0.0000000

 Broyden mixing:
  rms(total) = 0.42438E-01    rms(broyden)= 0.42426E-01
  rms(prec ) = 0.50690E-01
  weight for this iteration     100.00

 eigenvalues of (default mixing * dielectric matrix)
  average eigenvalue GAMMA=   1.0818
  2.1759  1.3758  1.3758  0.3012  0.9150  0.7562  0.6730

 Free energy of the ion-electron system (eV)
  ---------------------------------------------------
  alpha Z        PSCENC =       762.61737321
  Ewald energy   TEWEN  =    -10628.58080284
  -Hartree energ DENC   =     -9360.18885345
  -exchange      EXHF   =         0.00000000
  -V(xc)+E(xc)   XCENC  =       558.54057702
  PAW double counting   =     15720.86227232   -16339.07032401
  entropy T*S    EENTRO =        -0.01602944
  eigenvalues    EBANDS =     -2516.75902337
  atomic energy  EATOM  =     21710.84102437
  Solvation  Ediel_sol  =         0.00000000
  ---------------------------------------------------
  free energy    TOTEN  =       -91.75378620 eV

  energy without entropy =      -91.73775676  energy(sigma->0) =      -91.74577148


--------------------------------------------------------------------------------------------------------




--------------------------------------- Iteration      1(  13)  ---------------------------------------


    POTLOK:  cpu time      0.0718: real time      0.0825
    SETDIJ:  cpu time      0.2683: real time      0.2694
    EDDIAG:  cpu time      4.7189: real time      4.7408
  RMM-DIIS:  cpu time     21.0591: real time     21.1701
    ORTHCH:  cpu time      0.6025: real time      0.6051
       DOS:  cpu time      0.0022: real time      0.0022
    CHARGE:  cpu time      1.0453: real time      1.0506
    MIXING:  cpu time      0.0019: real time      0.0019
    --------------------------------------------
      LOOP:  cpu time     27.7699: real time     27.9225

 eigenvalue-minimisations  : 39635
 total energy-change (2. order) : 0.4085763E-03  (-0.7168703E-03)
 number of electron     160.0000064 magnetization      -0.0000000
 augmentation part       58.9823630 magnetization      -0.0000000

 Broyden mixing:
  rms(total) = 0.15143E-01    rms(broyden)= 0.15133E-01
  rms(prec ) = 0.18201E-01
  weight for this iteration     100.00

 eigenvalues of (default mixing * dielectric matrix)
  average eigenvalue GAMMA=   1.1324
  2.6440  1.4028  1.4028  0.3012  1.0910  0.8642  0.7005  0.6523

 Free energy of the ion-electron system (eV)
  ---------------------------------------------------
  alpha Z        PSCENC =       762.61737321
  Ewald energy   TEWEN  =    -10628.58080284
  -Hartree energ DENC   =     -9359.67401832
  -exchange      EXHF   =         0.00000000
  -V(xc)+E(xc)   XCENC  =       558.57643770
  PAW double counting   =     15722.91058997   -16341.26712592
  entropy T*S    EENTRO =        -0.01578054
  eigenvalues    EBANDS =     -2517.16107526
  atomic energy  EATOM  =     21710.84102437
  Solvation  Ediel_sol  =         0.00000000
  ---------------------------------------------------
  free energy    TOTEN  =       -91.75337762 eV

  energy without entropy =      -91.73759708  energy(sigma->0) =      -91.74548735


--------------------------------------------------------------------------------------------------------




--------------------------------------- Iteration      1(  14)  ---------------------------------------


    POTLOK:  cpu time      0.0694: real time      0.0793
    SETDIJ:  cpu time      0.2684: real time      0.2695
    EDDIAG:  cpu time      4.5542: real time      4.5757
  RMM-DIIS:  cpu time     16.2734: real time     16.3609
    ORTHCH:  cpu time      0.6237: real time      0.6263
       DOS:  cpu time      0.0021: real time      0.0021
    --------------------------------------------
      LOOP:  cpu time     21.7912: real time     21.9138

 eigenvalue-minimisations  : 30157
 total energy-change (2. order) :-0.3260882E-04  (-0.1987841E-03)
 number of electron     160.0000064 magnetization      -0.0000000
 augmentation part       58.9823630 magnetization      -0.0000000

 Free energy of the ion-electron system (eV)
  ---------------------------------------------------
  alpha Z        PSCENC =       762.61737321
  Ewald energy   TEWEN  =    -10628.58080284
  -Hartree energ DENC   =     -9359.51407129
  -exchange      EXHF   =         0.00000000
  -V(xc)+E(xc)   XCENC  =       558.59266124
  PAW double counting   =     15724.23471647   -16342.64144531
  entropy T*S    EENTRO =        -0.01562076
  eigenvalues    EBANDS =     -2517.28724533
  atomic energy  EATOM  =     21710.84102437
  Solvation  Ediel_sol  =         0.00000000
  ---------------------------------------------------
  free energy    TOTEN  =       -91.75341023 eV

  energy without entropy =      -91.73778947  energy(sigma->0) =      -91.74559985


--------------------------------------------------------------------------------------------------------




 average (electrostatic) potential at core
  the test charge radii are     0.9500  1.0808
  (the norm of the test charge is              1.0000)
       1 -48.0121       2 -48.0121       3 -48.0121       4 -48.0121       5 -48.0121
       6 -48.0121       7 -48.0121       8 -48.0121       9 -55.4207      10 -55.4207
      11 -55.4207      12 -55.4207      13 -55.4207      14 -55.4207      15 -55.4207
      16 -55.4207
 
 
 
 E-fermi :   3.2167     XC(G=0): -10.0391     alpha+bet : -8.7379

 Fermi energy:         3.2167190681

 spin component 1

 k-point     1 :       0.0000    0.0000    0.0000
  band No.  band energies     occupation 
      1     -51.6834      1.00000
      2     -51.6783      1.00000
      3     -51.6783      1.00000
      4     -51.6754      1.00000
      5     -51.5239      1.00000
      6     -51.4597      1.00000
      7     -51.4566      1.00000
      8     -51.4566      1.00000
      9     -51.4516      1.00000
     10     -51.3722      1.00000
     11     -51.3722      1.00000
     12     -51.2182      1.00000
     13     -48.7919      1.00000
     14     -48.7909      1.00000
     15     -48.7907      1.00000
     16     -48.7907      1.00000
     17     -48.7508      1.00000
     18     -48.5820      1.00000
     19     -48.5820      1.00000
     20     -48.4180      1.00000
     21     -48.4180      1.00000
     22     -48.4174      1.00000
     23     -48.4166      1.00000
     24     -48.4104      1.00000
     25     -10.7766      1.00000
     26      -9.8226      1.00000
     27      -9.8226      1.00000
     28      -9.8058      1.00000
     29      -9.8058      1.00000
     30      -9.5207      1.00000
     31      -9.4979      1.00000
     32      -9.4278      1.00000
     33      -2.6837      1.00000
     34      -2.3935      1.00000
     35      -1.4483      1.00000
     36      -1.4483      1.00000
     37      -1.3576      1.00000
     38      -1.3576      1.00000
     39      -1.2193      1.00000
     40      -1.1091      1.00000
     41      -1.0445      1.00000
     42      -1.0445      1.00000
     43      -0.7985      1.00000
     44      -0.7825      1.00000
     45      -0.7803      1.00000
     46      -0.7192      1.00000
     47      -0.7192      1.00000
     48      -0.5665      1.00000
     49      -0.2993      1.00000
     50      -0.2993      1.00000
     51      -0.1205      1.00000
     52       0.1119      1.00000
     53       0.1119      1.00000
     54       0.2659      1.00000
     55       0.4907      1.00000
     56       0.5526      1.00000
     57       0.7264      1.00000
     58       0.7264      1.00000
     59       0.8350      1.00000
     60       0.8350      1.00000
     61       0.9619      1.00000
     62       0.9666      1.00000
     63       1.1002      1.00000
     64       1.1898      1.00000
     65       1.3220      1.00000
     66       1.4003      1.00000
     67       1.4003      1.00000
     68       1.4255      1.00000
     69       1.5454      1.00000
     70       1.6432      1.00000
     71       1.6432      1.00000
     72       1.9700      1.00000
     73       2.2668      1.00000
     74       2.4488      1.00000
     75       2.4488      1.00000
     76       2.4899      1.00000
     77       2.4899      1.00000
     78       2.8211      1.00000
     79       2.9361      1.00000
     80       3.0210      1.00000
     81       3.2772      0.04367
     82       3.6543      0.00000
     83       3.6544      0.00000
     84       3.6807      0.00000
     85       3.7627      0.00000
     86       3.7691      0.00000
     87       3.7692      0.00000
     88       4.0173      0.00000
     89       4.0291      0.00000
     90       4.0292      0.00000
     91       4.0452      0.00000
     92       4.0453      0.00000
     93       4.6210      0.00000
[...]
         0         1         2         3         4         5         6         7         8         9
 total charge-density along one line
 
 soft charge-density along one line, spin component           2
         0         1         2         3         4         5         6         7         8         9
 total charge-density along one line
 
 pseudopotential strength for first ion, spin component:           1
-55.690   0.067  -0.000  28.743  -0.053   0.000  -0.000   0.000
  0.067 -55.744  -0.000  -0.053  28.783   0.000  -0.000   0.000
 -0.000  -0.000 -55.579   0.000   0.000  28.654   0.000  -0.000
 28.743  -0.053   0.000 -10.383   0.038  -0.000   0.000  -0.000
 -0.053  28.783   0.000   0.038 -10.412  -0.000   0.000  -0.000
  0.000   0.000  28.654  -0.000  -0.000 -10.324  -0.000   0.000
 -0.000  -0.000   0.000   0.000   0.000  -0.000  -9.320  -0.000
  0.000   0.000  -0.000  -0.000  -0.000   0.000  -0.000  -9.095
 -0.000   0.000   0.000   0.000  -0.000  -0.000   0.000  -0.001
 -0.000  -0.000   0.000   0.000   0.000  -0.000  -0.024  -0.000
 -0.000  -0.000  -0.000   0.000   0.000   0.000  -0.000  -0.105
  0.000   0.000  -0.000  -0.000  -0.000   0.000   0.031   0.000
 -0.000  -0.000   0.000   0.000   0.000  -0.000   0.000  -0.023
  0.000  -0.000  -0.000  -0.000   0.000   0.000  -0.000   0.000
  0.000   0.000  -0.000  -0.000  -0.000   0.000   0.005   0.000
  0.000   0.000   0.000  -0.000  -0.000  -0.000   0.000   0.025
 -0.000  -0.000   0.000   0.000   0.000  -0.000   0.000  -0.015
  0.000   0.000  -0.000  -0.000  -0.000   0.000  -0.000   0.003
 pseudopotential strength for first ion, spin component:           2
-53.455   0.107  -0.000  27.034  -0.077   0.000  -0.000   0.000
  0.107 -53.465  -0.000  -0.077  27.039   0.000  -0.000   0.000
 -0.000  -0.000 -53.444   0.000   0.000  27.019   0.000  -0.000
 27.034  -0.077   0.000  -9.175   0.057  -0.000   0.000  -0.000
 -0.077  27.039   0.000   0.057  -9.180  -0.000   0.000  -0.000
  0.000   0.000  27.019  -0.000  -0.000  -9.167  -0.000   0.000
 -0.000  -0.000   0.000   0.000   0.000  -0.000  -7.119  -0.000
  0.000   0.000  -0.000  -0.000  -0.000   0.000  -0.000  -7.509
 -0.000   0.000   0.000   0.000  -0.000  -0.000   0.000   0.077
 -0.000  -0.000   0.000   0.000   0.000  -0.000   0.120  -0.000
 -0.000  -0.000  -0.000   0.000   0.000   0.000  -0.000   0.006
  0.000   0.000  -0.000  -0.000  -0.000   0.000  -0.482   0.000
 -0.000  -0.000   0.000   0.000   0.000  -0.000   0.000  -0.392
  0.000  -0.000  -0.000  -0.000   0.000   0.000  -0.000  -0.016
  0.000   0.000  -0.000  -0.000  -0.000   0.000  -0.026   0.000
  0.000   0.000   0.000  -0.000  -0.000  -0.000   0.000  -0.003
 -0.000  -0.000   0.000   0.000   0.000  -0.000   0.000  -0.012
  0.000   0.000  -0.000  -0.000  -0.000   0.000  -0.000   0.003
 total augmentation occupancy for first ion, spin component:           1
  2.009  -0.020   0.000   0.056  -0.048   0.000   0.000   0.000   0.000   0.000  -0.000  -0.000  -0.000   0.000   0.000   0.000
 -0.020   2.012   0.000  -0.048   0.063  -0.000   0.000   0.000   0.000   0.000   0.000   0.000   0.000  -0.000  -0.000   0.000
  0.000   0.000   2.007   0.000  -0.000   0.049  -0.000   0.000   0.000   0.000   0.000   0.000  -0.000   0.000   0.000   0.000
  0.056  -0.048   0.000   0.194  -0.117  -0.000   0.000   0.000   0.000  -0.000  -0.000  -0.000   0.000  -0.000   0.000  -0.000
 -0.048   0.063  -0.000  -0.117   0.213   0.000  -0.000  -0.000   0.000  -0.000   0.000   0.000   0.000   0.000  -0.000   0.000
  0.000   0.000   0.049   0.000  -0.000   0.171  -0.000   0.000   0.000  -0.000   0.000   0.000  -0.000  -0.000   0.000   0.000
  0.000   0.000   0.000   0.000  -0.000   0.000   1.226   0.000   0.000  -0.095   0.000  -0.090   0.000  -0.000  -0.055   0.000
 -0.000   0.000   0.000  -0.000   0.000   0.000  -0.000   1.483   0.012  -0.000  -0.095   0.000   0.081  -0.134   0.000   0.106
 -0.000  -0.000   0.000  -0.000   0.000   0.000   0.000   0.012   1.304   0.000  -0.180  -0.000  -0.136   0.027   0.000  -0.087
  0.000   0.000   0.000  -0.000  -0.000   0.000  -0.095   0.000   0.000   1.190  -0.000  -0.056   0.000   0.000  -0.071  -0.000
 -0.000  -0.000   0.000  -0.000   0.000   0.000   0.000  -0.095  -0.180   0.000   1.505   0.000   0.109  -0.085   0.000   0.122
 -0.000   0.000   0.000  -0.000   0.000  -0.000  -0.090   0.000   0.000  -0.056   0.000   0.158  -0.000  -0.000  -0.030   0.000
 -0.000  -0.000  -0.000  -0.000  -0.000  -0.000   0.000   0.081  -0.136  -0.000   0.109   0.000   0.248  -0.068  -0.000   0.091
  0.000   0.000   0.000   0.000  -0.000  -0.000   0.000  -0.134   0.027  -0.000  -0.085  -0.000  -0.068   0.163   0.000  -0.005
  0.000  -0.000   0.000   0.000  -0.000   0.000  -0.055  -0.000   0.000  -0.071   0.000  -0.030  -0.000   0.000   0.157   0.000
 -0.000  -0.000   0.000  -0.000   0.000   0.000   0.000   0.106  -0.087   0.000   0.122  -0.000   0.091  -0.005  -0.000   0.137
  0.000   0.000  -0.000   0.000   0.000   0.000  -0.000  -0.018  -0.024  -0.000   0.086   0.000  -0.340   0.032   0.000  -0.017
 -0.000   0.000   0.000  -0.000  -0.000   0.000   0.000  -0.002   0.016  -0.000  -0.017   0.000   0.021  -0.004  -0.000   0.004
 total augmentation occupancy for first ion, spin component:           2
 -0.006   0.000   0.000  -0.002  -0.000   0.000   0.000   0.000   0.000  -0.000  -0.000   0.000   0.000   0.000   0.000  -0.000
  0.000  -0.008   0.000  -0.000  -0.008   0.000   0.000   0.000  -0.000   0.000  -0.000   0.000   0.000  -0.000   0.000  -0.000
 -0.000  -0.000  -0.008  -0.000  -0.000  -0.006  -0.000  -0.000   0.000   0.000   0.000  -0.000   0.000   0.000   0.000   0.000
 -0.002  -0.000   0.000   0.015  -0.002   0.000  -0.000  -0.000   0.000  -0.000  -0.000  -0.000  -0.000  -0.000   0.000  -0.000
 -0.000  -0.008   0.000  -0.002   0.001   0.000   0.000   0.000   0.000   0.000   0.000   0.000  -0.000   0.000   0.000  -0.000
  0.000   0.000  -0.006  -0.000   0.000   0.008   0.000  -0.000   0.000   0.000   0.000   0.000  -0.000   0.000   0.000  -0.000
  0.000   0.000  -0.000  -0.000   0.000   0.000   0.731   0.000  -0.000   0.110   0.000  -0.273   0.000  -0.000   0.011  -0.000
  0.000   0.000  -0.000  -0.000   0.000  -0.000   0.000   0.371   0.071  -0.000   0.040  -0.000  -0.207   0.001   0.000  -0.035
  0.000   0.000   0.000   0.000  -0.000   0.000   0.000   0.071   0.560   0.000   0.232  -0.000  -0.001  -0.227   0.000  -0.035
 -0.000   0.000  -0.000  -0.000   0.000  -0.000   0.110   0.000   0.000   0.741  -0.000   0.013   0.000   0.000  -0.272   0.000
  0.000  -0.000   0.000  -0.000   0.000   0.000   0.000   0.040   0.232   0.000   0.263  -0.000  -0.019  -0.030  -0.000  -0.160
  0.000   0.000   0.000  -0.000   0.000   0.000  -0.273   0.000   0.000   0.013  -0.000   0.057   0.000  -0.000   0.005   0.000
  0.000  -0.000   0.000  -0.000   0.000  -0.000  -0.000  -0.207  -0.001   0.000  -0.019   0.000   0.010   0.022   0.000  -0.002
  0.000   0.000   0.000   0.000  -0.000   0.000   0.000   0.001  -0.227  -0.000  -0.030   0.000   0.022   0.020   0.000   0.014
  0.000   0.000   0.000   0.000   0.000   0.000   0.011   0.000  -0.000  -0.272  -0.000   0.005   0.000   0.000   0.044   0.000
  0.000   0.000   0.000  -0.000   0.000  -0.000  -0.000  -0.035  -0.035   0.000  -0.160  -0.000  -0.002   0.014   0.000  -0.007
 -0.000   0.000  -0.000   0.000  -0.000   0.000   0.000   0.131   0.013  -0.000  -0.046  -0.000  -0.039   0.004  -0.000  -0.028
 -0.000   0.000  -0.000   0.000  -0.000   0.000   0.000   0.011   0.017  -0.000  -0.021  -0.000  -0.003  -0.001   0.000   0.001


------------------------ aborting loop because EDIFF is reached ----------------------------------------





 total charge

# of ion       s       p       d       tot
------------------------------------------
    1        0.340   6.291   6.045  12.675
    2        0.340   6.291   6.045  12.675
    3        0.340   6.291   6.045  12.675
    4        0.340   6.291   6.045  12.675
    5        0.340   6.291   6.045  12.675
    6        0.340   6.291   6.045  12.675
    7        0.340   6.291   6.045  12.675
    8        0.340   6.291   6.045  12.675
    9        1.484   2.277   0.048   3.809
   10        1.484   2.277   0.048   3.809
   11        1.484   2.277   0.048   3.809
   12        1.484   2.277   0.048   3.809
   13        1.484   2.277   0.048   3.809
   14        1.484   2.277   0.048   3.809
   15        1.484   2.277   0.048   3.809
   16        1.484   2.277   0.048   3.809
--------------------------------------------------
tot         14.592  68.543  48.739 131.874



 magnetization (x)

# of ion       s       p       d       tot
------------------------------------------
    1        0.030   0.011   2.600   2.641
    2       -0.030  -0.011  -2.600  -2.641
    3       -0.030  -0.011  -2.600  -2.641
    4        0.030   0.011   2.600   2.641
    5        0.030   0.011   2.600   2.641
    6       -0.030  -0.011  -2.600  -2.641
    7       -0.030  -0.011  -2.600  -2.641
    8        0.030   0.011   2.600   2.641
    9        0.000   0.000   0.000   0.000
   10        0.000   0.000   0.000   0.000
   11        0.000   0.000   0.000   0.000
   12        0.000   0.000   0.000   0.000
   13        0.000   0.000   0.000   0.000
   14        0.000   0.000   0.000   0.000
   15        0.000   0.000   0.000   0.000
   16        0.000   0.000   0.000   0.000
--------------------------------------------------
tot         -0.000   0.000  -0.000  -0.000
 
    CHARGE:  cpu time      1.0660: real time      1.0727
    FORLOC:  cpu time      0.0030: real time      0.0030
    FORNL :  cpu time      7.1241: real time      7.1552
    STRESS:  cpu time     20.4213: real time     20.5131
    FORCOR:  cpu time      0.0507: real time      0.0509
    FORHAR:  cpu time      0.0071: real time      0.0072
    MIXING:  cpu time      0.0014: real time      0.0014
    OFIELD:  cpu time      0.0000: real time      0.0000
    FORVDW:  cpu time      0.7053: real time      0.7078

  FORCE on cell =-STRESS in cart. coord.  units (eV):
  Direction    XX          YY          ZZ          XY          YZ          ZX
  --------------------------------------------------------------------------------------
  Alpha Z   762.61737   762.61737   762.61737
  Ewald    -648.51999 -1399.72963 -8675.14766    -0.00000     0.00000     0.00000
  Hartree  5765.61321  5018.84312 -1518.05991    -0.00000    -0.00000    -0.00000
  E(xc)    -896.37842  -898.10714  -897.54411    -0.00000     0.00000    -0.00000
  Local   -6938.31319 -5438.92682  8390.23817     0.00000     0.00000    -0.00000
  n-local  -272.92346  -245.81751  -237.78073    -1.09868    -0.23217    -0.61511
  augment   530.83066   516.74752   515.47951     0.00000    -0.00000     0.00000
  Kinetic  1698.64767  1686.36433  1662.28814     3.63404    -0.13971     0.11872
  Fock        0.00000     0.00000     0.00000     0.00000     0.00000     0.00000
  vdW        -5.99080    -6.08814    -6.19988     0.00000     0.00000    -0.00000
  -------------------------------------------------------------------------------------
  Total      -4.41694    -4.09689    -4.10910     0.00000     0.00000     0.00000
  in kB     -21.25141   -19.71154   -19.77030     0.00000     0.00000     0.00000
  external pressure =      -20.24 kB  Pullay stress =        0.00 kB


 VOLUME and BASIS-vectors are now :
 -----------------------------------------------------------------------------
  energy-cutoff  :      550.00
  volume of cell :      333.00
      direct lattice vectors                 reciprocal lattice vectors
     4.882232254 -5.826652787  0.000000000     0.102412170 -0.085812561 -0.000000000
     4.882232254  5.826652787 -0.000000000     0.102412170  0.085812561  0.000000000
     0.000000000 -0.000000000  5.852974922    -0.000000000  0.000000000  0.170853286

  length of vectors
     7.601715233  7.601715233  5.852974922     0.133611557  0.133611557  0.170853286


 FORCES acting on ions
    electron-ion (+dipol)            ewald-force                    non-local-force                 convergence-correction
 -----------------------------------------------------------------------------------------------
   -.706E-14 -.190E-12 0.786E-14   -.639E-13 -.711E-14 -.711E-14   -.151E-22 0.333E-23 -.143E-24   -.374E-12 0.119E-11 -.110E-11
   0.806E-12 0.723E-12 0.223E-13   -.768E-13 -.142E-13 0.195E-13   -.104E-23 0.293E-22 -.176E-22   -.587E-12 0.874E-12 -.801E-12
   0.587E-12 -.161E-11 -.120E-10   -.679E-13 -.284E-13 0.000E+00   -.193E-22 -.642E-22 -.111E-22   0.723E-12 -.442E-12 -.290E-13
   -.488E-11 -.959E-11 -.895E-11   -.711E-13 -.497E-13 0.355E-14   0.334E-22 0.110E-21 0.566E-22   0.643E-12 -.381E-12 0.528E-12
   -.265E-11 -.390E-11 -.373E-11   0.429E-13 -.142E-13 0.302E-13   -.284E-22 -.775E-22 0.530E-22   0.962E-13 -.275E-12 -.890E-12
   0.430E-11 0.576E-11 -.438E-11   0.497E-13 -.213E-13 0.320E-13   -.258E-23 0.749E-22 0.353E-23   0.185E-12 -.543E-12 -.818E-12
   -.144E-10 -.295E-10 0.377E-10   0.355E-13 -.711E-14 0.320E-13   0.386E-23 -.401E-22 -.578E-23   0.229E-12 -.126E-13 -.169E-12
   0.101E-11 -.659E-11 0.358E-10   0.407E-13 0.000E+00 0.568E-13   -.574E-23 0.323E-22 -.635E-23   -.684E-13 0.829E-13 -.235E-12
   0.565E-07 0.111E-11 0.352E+03   0.695E-14 -.107E-13 -.353E+03   -.100E-17 0.888E-18 0.107E+01   -.137E-12 0.116E-12 0.119E-01
   0.565E-07 0.591E-12 0.352E+03   0.711E-14 -.264E-14 -.353E+03   0.157E-17 -.765E-18 0.107E+01   -.131E-12 0.798E-13 0.119E-01
   0.565E-07 -.225E-12 0.352E+03   0.711E-14 0.124E-13 -.353E+03   -.118E-17 0.137E-17 0.107E+01   0.177E-12 -.254E-13 0.119E-01
   0.565E-07 -.142E-12 0.352E+03   0.144E-13 0.284E-13 -.353E+03   0.118E-17 -.737E-18 0.107E+01   0.143E-12 -.670E-13 0.119E-01
   -.565E-07 -.737E-12 -.352E+03   0.197E-13 0.275E-13 0.353E+03   0.477E-20 -.280E-17 -.107E+01   0.837E-13 0.143E-13 -.119E-01
   -.565E-07 -.239E-12 -.352E+03   0.155E-13 0.277E-13 0.353E+03   0.105E-17 0.136E-17 -.107E+01   0.255E-13 -.720E-13 -.119E-01
   -.565E-07 -.218E-12 -.352E+03   0.198E-13 0.336E-13 0.353E+03   -.557E-18 0.478E-17 -.107E+01   -.452E-13 -.106E-13 -.119E-01
   -.565E-07 0.665E-12 -.352E+03   0.226E-13 0.330E-13 0.353E+03   -.448E-19 -.536E-18 -.107E+01   -.398E-13 0.294E-13 -.119E-01
 -----------------------------------------------------------------------------------------------
   -.178E-10 -.441E-10 0.456E-10   0.232E-14 0.719E-14 -.568E-13   0.101E-17 0.356E-17 -.666E-15   0.922E-12 0.563E-12 -.265E-11
 
 
 POSITION                                       TOTAL-FORCE (eV/Angst)
 -----------------------------------------------------------------------------------
      0.00000      0.00000     -0.00000         0.000000     -0.000000     -0.000000
      2.44112      2.91333     -0.00000         0.000000     -0.000000     -0.000000
      2.44112     -2.91333      0.00000         0.000000     -0.000000     -0.000000
      4.88223      0.00000     -0.00000         0.000000     -0.000000     -0.000000
      2.44112      0.00000     -0.00000         0.000000     -0.000000     -0.000000
      4.88223      2.91333     -0.00000         0.000000     -0.000000     -0.000000
      4.88223     -2.91333      0.00000         0.000000     -0.000000     -0.000000
      7.32335      0.00000     -0.00000         0.000000     -0.000000     -0.000000
      2.44112     -1.45666      4.08384        -0.000000      0.000000     -0.023004
      4.88223      1.45666      4.08384        -0.000000      0.000000     -0.023004
      4.88223     -4.36999      4.08384         0.000000      0.000000     -0.023004
      7.32335     -1.45666      4.08384         0.000000      0.000000     -0.023004
      2.44112      1.45666      1.76914         0.000000     -0.000000      0.023004
      4.88223      4.36999      1.76914        -0.000000     -0.000000      0.023004
      4.88223     -1.45666      1.76914        -0.000000     -0.000000      0.023004
      7.32335      1.45666      1.76914         0.000000     -0.000000      0.023004
 -----------------------------------------------------------------------------------
    total drift:                               -0.000000     -0.000000      0.000000


--------------------------------------------------------------------------------------------------------



  FREE ENERGIE OF THE ION-ELECTRON SYSTEM (eV)
  ---------------------------------------------------
  free  energy   TOTEN  =       -98.13171381 eV

  energy  without entropy=      -98.11418898  energy(sigma->0) =      -98.12295140
 
 d Force = 0.2229025E-04[ 0.181E-04, 0.265E-04]  d Energy = 0.9178347E-05 0.131E-04
 d Force = 0.2776211E+00[ 0.278E+00, 0.278E+00]  d Ewald  =-0.7315052E+00 0.101E+01


--------------------------------------------------------------------------------------------------------


    POTLOK:  cpu time      0.3239: real time      0.3251


--------------------------------------------------------------------------------------------------------




--------------------------------------------------------------------------------------------------------


  
 reached required accuracy - stopping structural energy minimisation
     LOOP+:  cpu time     78.5156: real time     78.9948
    4ORBIT:  cpu time      0.0000: real time      0.0000



 total charge

# of ion       s       p       d       tot
------------------------------------------
    1        0.340   6.291   6.045  12.675
    2        0.340   6.291   6.045  12.675
    3        0.340   6.291   6.045  12.675
    4        0.340   6.291   6.045  12.675
    5        0.340   6.291   6.045  12.675
    6        0.340   6.291   6.045  12.675
    7        0.340   6.291   6.045  12.675
    8        0.340   6.291   6.045  12.675
    9        1.484   2.277   0.048   3.809
   10        1.484   2.277   0.048   3.809
   11        1.484   2.277   0.048   3.809
   12        1.484   2.277   0.048   3.809
   13        1.484   2.277   0.048   3.809
   14        1.484   2.277   0.048   3.809
   15        1.484   2.277   0.048   3.809
   16        1.484   2.277   0.048   3.809
--------------------------------------------------
tot         14.592  68.543  48.739 131.874



 magnetization (x)

# of ion       s       p       d       tot
------------------------------------------
    1        0.030   0.011   2.600   2.641
    2       -0.030  -0.011  -2.600  -2.641
    3       -0.030  -0.011  -2.600  -2.641
    4        0.030   0.011   2.600   2.641
    5        0.030   0.011   2.600   2.641
    6       -0.030  -0.011  -2.600  -2.641
    7       -0.030  -0.011  -2.600  -2.641
    8        0.030   0.011   2.600   2.641
    9        0.000   0.000   0.000   0.000
   10        0.000   0.000   0.000   0.000
   11        0.000   0.000   0.000   0.000
   12        0.000   0.000   0.000   0.000
   13        0.000   0.000   0.000   0.000
   14        0.000   0.000   0.000   0.000
   15        0.000   0.000   0.000   0.000
   16        0.000   0.000   0.000   0.000
--------------------------------------------------
tot         -0.000   0.000  -0.000  -0.000
 

 total amount of memory used by VASP MPI-rank0   194759. kBytes
=======================================================================

   base      :      30000. kBytes
   nonlr-proj:      13106. kBytes
   fftplans  :       3084. kBytes
   grid      :      19560. kBytes
   one-center:        497. kBytes
   wavefun   :     128512. kBytes
 
  
  
 General timing and accounting informations for this job:
 ========================================================
  
                  Total CPU time used (sec):     1355.449
                            User time (sec):     1351.704
                          System time (sec):        3.745
                         Elapsed time (sec):     1364.546
  
                   Maximum memory used (kb):      494528.
                   Average memory used (kb):          N/A
  
                          Minor page faults:       360786
                          Major page faults:            0
                 Voluntary context switches:        41886
