 vasp.6.4.1 05Apr23 (build Jun 01 2023 13:46:15) complex                        
  
 executed on             LinuxIFC date 2023.12.17  02:06:43
 running   20 mpi-ranks, on    5 nodes
 distrk:  each k-point on   20 cores,    1 groups
 distr:  one band on NCORE=   1 cores,   20 groups


--------------------------------------------------------------------------------------------------------


 INCAR:
   ALGO = Fast
   EDIFF = 0.0002
   ENCUT = 550
   IBRION = -1
   ISIF = 4
   ISMEAR = -5
   ISPIN = 2
   IVDW = 13
   LASPH = True
   LMAXMIX = 4
   LORBIT = 11
   LREAL = Auto
   LWAVE = False
   MAGMOM = 1*2.329 2*-2.329 2*2.329 2*-2.329 1*2.329 8*0.0
   NELM = 100
   NSW = 0
   PREC = Accurate
   SIGMA = 0.05

 POTCAR:   PAW_PBE Fe_pv 06Sep2000                
 POTCAR:   PAW_PBE Se 06Sep2000                   
 -----------------------------------------------------------------------------
|                                                                             |
|           W    W    AA    RRRRR   N    N  II  N    N   GGGG   !!!           |
|           W    W   A  A   R    R  NN   N  II  NN   N  G    G  !!!           |
|           W    W  A    A  R    R  N N  N  II  N N  N  G       !!!           |
|           W WW W  AAAAAA  RRRRR   N  N N  II  N  N N  G  GGG   !            |
|           WW  WW  A    A  R   R   N   NN  II  N   NN  G    G                |
|           W    W  A    A  R    R  N    N  II  N    N   GGGG   !!!           |
|                                                                             |
|     For optimal performance we recommend to set                             |
|       NCORE = 2 up to number-of-cores-per-socket                            |
|     NCORE specifies how many cores store one orbital (NPAR=cpu/NCORE).      |
|     This setting can greatly improve the performance of VASP for DFT.       |
|     The default, NCORE=1 might be grossly inefficient on modern             |
|     multi-core architectures or massively parallel machines. Do your        |
|     own testing! More info at https://www.vasp.at/wiki/index.php/NCORE      |
|     Unfortunately you need to use the default for GW and RPA                |
|     calculations (for HF NCORE is supported but not extensively tested      |
|     yet).                                                                   |
|                                                                             |
 -----------------------------------------------------------------------------

 POTCAR:   PAW_PBE Fe_pv 06Sep2000                
   VRHFIN =Fe:  3pd7s1                                                                              
   LEXCH  = PE                                                                                      
   EATOM  =  2456.8974 eV,  180.5769 Ry                                                             
                                                                                                    
   TITEL  = PAW_PBE Fe_pv 06Sep2000                                                                 
   LULTRA =        F    use ultrasoft PP ?                                                          
   IUNSCR =        1    unscreen: 0-lin 1-nonlin 2-no                                               
   RPACOR =    1.750    partial core radius                                                         
   POMASS =   55.847; ZVAL   =   14.000    mass and valenz                                          
   RCORE  =    2.200    outmost cutoff radius                                                       
   RWIGS  =    2.200; RWIGS  =    1.164    wigner-seitz radius (au A)                               
   ENMAX  =  293.238; ENMIN  =  219.929 eV                                                          
   RCLOC  =    1.701    cutoff for local pot                                                        
   LCOR   =        T    correct aug charges                                                         
   LPAW   =        T    paw PP                                                                      
   EAUG   =  578.342                                                                                
   DEXC   =    -.002                                                                                
   RMAX   =    2.693    core radius for proj-oper                                                   
   RAUG   =    1.300    factor for augmentation sphere                                              
   RDEP   =    2.296    radius for radial grids                                                     
   QCUT   =   -4.642; QGAM   =    9.285    optimization parameters                                  
                                                                                                    
   Description                                                                                      
     l     E      TYP  RCUT    TYP  RCUT                                                            
     1   .000     23  2.000                                                                         
     1  -.400     23  2.000                                                                         
     2   .000     23  2.200                                                                         
     2   .000     23  2.200                                                                         
     0   .000     23  2.000                                                                         
     0  2.000     23  2.000                                                                         
     3   .000      7   .000                                                                         
  local pseudopotential read in
  partial core-charges read in
  atomic valenz-charges read in
  non local Contribution for L=           1  read in
    real space projection operators read in
  non local Contribution for L=           1  read in
    real space projection operators read in
  non local Contribution for L=           2  read in
    real space projection operators read in
  non local Contribution for L=           2  read in
    real space projection operators read in
  non local Contribution for L=           0  read in
    real space projection operators read in
  non local Contribution for L=           0  read in
    real space projection operators read in
    PAW grid and wavefunctions read in
 
   number of l-projection  operators is LMAX  =           6
   number of lm-projection operators is LMMAX =          18
 
 POTCAR:   PAW_PBE Se 06Sep2000                   
   VRHFIN =Se: s2p4                                                                                 
   LEXCH  = PE                                                                                      
   EATOM  =   256.9644 eV,   18.8864 Ry                                                             
                                                                                                    
   TITEL  = PAW_PBE Se 06Sep2000                                                                    
   LULTRA =        F    use ultrasoft PP ?                                                          
   IUNSCR =        1    unscreen: 0-lin 1-nonlin 2-no                                               
   RPACOR =    1.900    partial core radius                                                         
   POMASS =   78.960; ZVAL   =    6.000    mass and valenz                                          
   RCORE  =    2.100    outmost cutoff radius                                                       
   RWIGS  =    2.200; RWIGS  =    1.164    wigner-seitz radius (au A)                               
   ENMAX  =  211.534; ENMIN  =  158.651 eV                                                          
   ICORE  =        3    local potential                                                             
   LCOR   =        T    correct aug charges                                                         
   LPAW   =        T    paw PP                                                                      
   EAUG   =  446.842                                                                                
   DEXC   =    -.031                                                                                
   RMAX   =    3.170    core radius for proj-oper                                                   
   RAUG   =    1.300    factor for augmentation sphere                                              
   RDEP   =    2.177    radius for radial grids                                                     
   QCUT   =   -3.943; QGAM   =    7.886    optimization parameters                                  
                                                                                                    
   Description                                                                                      
     l     E      TYP  RCUT    TYP  RCUT                                                            
     0   .000     23  2.100                                                                         
     0   .000     23  2.100                                                                         
     1   .000     23  2.100                                                                         
     1   .000     23  2.100                                                                         
     2   .000     23  2.100                                                                         
     3  -.100      7  2.100                                                                         
  local pseudopotential read in
  partial core-charges read in
  atomic valenz-charges read in
  non local Contribution for L=           0  read in
    real space projection operators read in
  non local Contribution for L=           0  read in
    real space projection operators read in
  non local Contribution for L=           1  read in
    real space projection operators read in
  non local Contribution for L=           1  read in
    real space projection operators read in
  non local Contribution for L=           2  read in
    real space projection operators read in
    PAW grid and wavefunctions read in
 
   number of l-projection  operators is LMAX  =           5
   number of lm-projection operators is LMMAX =          13
 
 Optimization of the real space projectors (new method)

 maximal supplied QI-value         = 17.01
 optimisation between [QCUT,QGAM] = [ 11.91, 23.98] = [ 39.69,161.04] Ry 
 Optimized for a Real-space Cutoff    1.45 Angstroem

   l    n(q)    QCUT    max X(q) W(low)/X(q) W(high)/X(q)  e(spline) 
   1     10    11.905     4.550    0.27E-05    0.11E-05    0.28E-07
   1     10    11.905     5.234    0.10E-04    0.61E-04    0.17E-06
   2      9    11.905     3.960    0.19E-04    0.73E-05    0.50E-07
   2      9    11.905    29.565    0.24E-03    0.51E-04    0.27E-06
   0     10    11.905    23.582    0.17E-04    0.10E-05    0.14E-07
   0     10    11.905    39.747    0.23E-04    0.68E-05    0.74E-07
 Optimization of the real space projectors (new method)

 maximal supplied QI-value         = 17.95
 optimisation between [QCUT,QGAM] = [ 11.85, 23.88] = [ 39.31,159.64] Ry 
 Optimized for a Real-space Cutoff    1.18 Angstroem

   l    n(q)    QCUT    max X(q) W(low)/X(q) W(high)/X(q)  e(spline) 
   0      8    11.849     6.499    0.17E-04    0.94E-05    0.89E-08
   0      8    11.849    52.623    0.21E-03    0.78E-04    0.81E-07
   1      8    11.849     4.229    0.79E-04    0.83E-04    0.23E-07
   1      8    11.849    29.991    0.12E-03    0.43E-03    0.14E-06
   2      7    11.849     3.719    0.22E-03    0.64E-04    0.38E-07
 PAW_PBE Fe_pv 06Sep2000                :
 energy of atom  1       EATOM=-2456.8974
 kinetic energy error for atom=    0.0060 (will be added to EATOM!!)
 PAW_PBE Se 06Sep2000                   :
 energy of atom  2       EATOM= -256.9644
 kinetic energy error for atom=    0.0007 (will be added to EATOM!!)
 
 
 POSCAR: Fe8 Se8
  positions in direct lattice
  velocities in cartesian coordinates
 exchange correlation table for  LEXCH =        8
   RHO(1)=    0.500       N(1)  =     2000
   RHO(2)=  100.500       N(2)  =     4000
 


--------------------------------------------------------------------------------------------------------


 ion  position               nearest neighbor table
   1  0.000  0.000  0.000-  11 2.27  14 2.27   5 2.34   8 2.34   7 2.74   6 2.74
   2  0.000  0.500  0.000-  12 2.27  13 2.27   6 2.34   7 2.34   5 2.74   8 2.74
   3  0.500  0.000  0.000-   9 2.27  16 2.27   6 2.34   7 2.34   5 2.74   8 2.74
   4  0.500  0.500  0.000-  10 2.27  15 2.27   5 2.34   8 2.34   7 2.74   6 2.74
   5  0.250  0.250  0.000-   9 2.27  13 2.27   1 2.34   4 2.34   3 2.74   2 2.74
   6  0.250  0.750  0.000-  10 2.27  14 2.27   2 2.34   3 2.34   1 2.74   4 2.74
   7  0.750  0.250  0.000-  11 2.27  15 2.27   2 2.34   3 2.34   1 2.74   4 2.74
   8  0.750  0.750  0.000-  12 2.27  16 2.27   1 2.34   4 2.34   3 2.74   2 2.74
   9  0.375  0.125  0.656-   3 2.27   5 2.27
  10  0.375  0.625  0.656-   4 2.27   6 2.27
  11  0.875  0.125  0.656-   1 2.27   7 2.27
  12  0.875  0.625  0.656-   2 2.27   8 2.27
  13  0.125  0.375  0.344-   2 2.27   5 2.27
  14  0.125  0.875  0.344-   1 2.27   6 2.27
  15  0.625  0.375  0.344-   4 2.27   7 2.27
  16  0.625  0.875  0.344-   3 2.27   8 2.27
 
  LATTYP: Found a base centered orthorhombic cell.
 ALAT       =     9.3449619401
 B/A-ratio  =     1.1710686816
 C/A-ratio  =     0.5650394655
  
  Lattice vectors:
  
 A1 = (   4.6724809701,  -5.4717961294,   0.0000000000)
 A2 = (   4.6724809701,   5.4717961294,   0.0000000000)
 A3 = (   0.0000000000,   0.0000000000,   5.2802722996)


Analysis of symmetry for initial positions (statically):
=====================================================================
 Subroutine PRICEL returns following result:
 
  LATTYP: Found a base centered orthorhombic cell.
 ALAT       =     4.6724809701
 B/A-ratio  =     1.1710686816
 C/A-ratio  =     1.1300789310
  
  Lattice vectors:
  
 A1 = (   2.3362404850,  -2.7358980647,   0.0000000000)
 A2 = (   2.3362404850,   2.7358980647,   0.0000000000)
 A3 = (   0.0000000000,   0.0000000000,   5.2802722996)
 
   4 primitive cells build up your supercell.
 

 Routine SETGRP: Setting up the symmetry group for a 
 base centered orthorhombic supercell.


 Subroutine GETGRP returns: Found  8 space group operations
 (whereof  4 operations were pure point group operations)
 out of a pool of  8 trial point group operations.


The static configuration has the point symmetry C_2h.
 The point group associated with its full space group is D_2h.


Analysis of symmetry for dynamics (positions and initial velocities):
=====================================================================
 Subroutine PRICEL returns following result:
 
  LATTYP: Found a base centered orthorhombic cell.
 ALAT       =     4.6724809701
 B/A-ratio  =     1.1710686816
 C/A-ratio  =     1.1300789310
  
  Lattice vectors:
  
 A1 = (   2.3362404850,  -2.7358980647,   0.0000000000)
 A2 = (   2.3362404850,   2.7358980647,   0.0000000000)
 A3 = (   0.0000000000,   0.0000000000,   5.2802722996)
 
   4 primitive cells build up your supercell.
 

 Routine SETGRP: Setting up the symmetry group for a 
 base centered orthorhombic supercell.


 Subroutine GETGRP returns: Found  8 space group operations
 (whereof  4 operations were pure point group operations)
 out of a pool of  8 trial point group operations.


The dynamic configuration has the point symmetry C_2h.
 The point group associated with its full space group is D_2h.


Analysis of structural, dynamic, and magnetic symmetry:
=====================================================================
 Subroutine PRICEL returns following result:
 
  LATTYP: Found a base centered orthorhombic cell.
 ALAT       =     4.6724809701
 B/A-ratio  =     1.1710686816
 C/A-ratio  =     1.1300789310
  
  Lattice vectors:
  
 A1 = (   2.3362404850,  -2.7358980647,   0.0000000000)
 A2 = (   2.3362404850,   2.7358980647,   0.0000000000)
 A3 = (   0.0000000000,   0.0000000000,   5.2802722996)
 
   4 primitive cells build up your supercell.
 

 Routine SETGRP: Setting up the symmetry group for a 
 base centered orthorhombic supercell.


 Subroutine GETGRP returns: Found  8 space group operations
 (whereof  4 operations were pure point group operations)
 out of a pool of  8 trial point group operations.


The overall configuration has the point symmetry C_2h.
 The point group associated with its full space group is D_2h.


 Subroutine INISYM returns: Found  8 space group operations
 (whereof  4 operations are pure point group operations),
 and found     4 'primitive' translations


----------------------------------------------------------------------------------------

                                     Primitive cell                                     

  volume of cell :      67.5000

  direct lattice vectors                    reciprocal lattice vectors
     2.336240485 -2.735898065  0.000000000     0.214019063 -0.182755347  0.000000000
     2.336240485  2.735898065  0.000000000     0.214019063  0.182755347  0.000000000
     0.000000000  0.000000000  5.280272300     0.000000000  0.000000000  0.189384172

  length of vectors
     3.597660048  3.597660048  5.280272300     0.281431477  0.281431477  0.189384172

  position of ions in fractional coordinates (direct lattice)
     0.000000000  0.000000000  0.000000000
     0.500000000  0.500000000  0.000000000
     0.750000000  0.250000000  0.656396183
     0.250000000  0.750000000  0.343603817

  ion indices of the primitive-cell ions
   primitive index   ion index
                 1           1
                 2           5
                 3          11
                 4          14

----------------------------------------------------------------------------------------

 
 
 KPOINTS: KPOINTS                                 

Automatic generation of k-mesh.
 Grid dimensions read from file:
 generate k-points for:    7    7    9

 Generating k-lattice:

  Cartesian coordinates                     Fractional coordinates (reciprocal lattice)
     0.015287076 -0.013053953  0.000000000     0.142857143 -0.000000000  0.000000000
     0.015287076  0.013053953  0.000000000    -0.000000000  0.142857143  0.000000000
     0.000000000  0.000000000  0.021042686     0.000000000  0.000000000  0.111111111

  Length of vectors
     0.020102248  0.020102248  0.021042686

  Shift w.r.t. Gamma in fractional coordinates (k-lattice)
     0.000000000  0.000000000  0.000000000

 TETIRR: Found    664 inequivalent tetrahedra from     2646
 
 Subroutine IBZKPT returns following result:
 ===========================================
 
 Found     80 irreducible k-points:
 
 Following reciprocal coordinates:
            Coordinates               Weight
  0.000000  0.000000  0.000000      1.000000
  0.142857 -0.000000  0.000000      4.000000
  0.285714 -0.000000  0.000000      4.000000
  0.428571 -0.000000  0.000000      4.000000
  0.142857  0.142857  0.000000      2.000000
  0.285714  0.142857  0.000000      4.000000
  0.428571  0.142857  0.000000      4.000000
 -0.428571  0.142857  0.000000      4.000000
 -0.285714  0.142857  0.000000      4.000000
 -0.142857  0.142857  0.000000      2.000000
  0.285714  0.285714  0.000000      2.000000
  0.428571  0.285714  0.000000      4.000000
 -0.428571  0.285714  0.000000      4.000000
 -0.285714  0.285714  0.000000      2.000000
  0.428571  0.428571  0.000000      2.000000
 -0.428571  0.428571  0.000000      2.000000
  0.000000  0.000000  0.111111      2.000000
  0.142857 -0.000000  0.111111      8.000000
  0.285714 -0.000000  0.111111      8.000000
  0.428571 -0.000000  0.111111      8.000000
  0.142857  0.142857  0.111111      4.000000
  0.285714  0.142857  0.111111      8.000000
  0.428571  0.142857  0.111111      8.000000
 -0.428571  0.142857  0.111111      8.000000
 -0.285714  0.142857  0.111111      8.000000
 -0.142857  0.142857  0.111111      4.000000
  0.285714  0.285714  0.111111      4.000000
  0.428571  0.285714  0.111111      8.000000
 -0.428571  0.285714  0.111111      8.000000
 -0.285714  0.285714  0.111111      4.000000
  0.428571  0.428571  0.111111      4.000000
 -0.428571  0.428571  0.111111      4.000000
  0.000000  0.000000  0.222222      2.000000
  0.142857 -0.000000  0.222222      8.000000
  0.285714 -0.000000  0.222222      8.000000
  0.428571 -0.000000  0.222222      8.000000
  0.142857  0.142857  0.222222      4.000000
  0.285714  0.142857  0.222222      8.000000
  0.428571  0.142857  0.222222      8.000000
 -0.428571  0.142857  0.222222      8.000000
 -0.285714  0.142857  0.222222      8.000000
 -0.142857  0.142857  0.222222      4.000000
  0.285714  0.285714  0.222222      4.000000
  0.428571  0.285714  0.222222      8.000000
 -0.428571  0.285714  0.222222      8.000000
 -0.285714  0.285714  0.222222      4.000000
  0.428571  0.428571  0.222222      4.000000
 -0.428571  0.428571  0.222222      4.000000
  0.000000  0.000000  0.333333      2.000000
  0.142857 -0.000000  0.333333      8.000000
  0.285714 -0.000000  0.333333      8.000000
  0.428571 -0.000000  0.333333      8.000000
  0.142857  0.142857  0.333333      4.000000
  0.285714  0.142857  0.333333      8.000000
  0.428571  0.142857  0.333333      8.000000
 -0.428571  0.142857  0.333333      8.000000
 -0.285714  0.142857  0.333333      8.000000
 -0.142857  0.142857  0.333333      4.000000
  0.285714  0.285714  0.333333      4.000000
  0.428571  0.285714  0.333333      8.000000
 -0.428571  0.285714  0.333333      8.000000
 -0.285714  0.285714  0.333333      4.000000
  0.428571  0.428571  0.333333      4.000000
 -0.428571  0.428571  0.333333      4.000000
  0.000000  0.000000  0.444444      2.000000
  0.142857 -0.000000  0.444444      8.000000
  0.285714 -0.000000  0.444444      8.000000
  0.428571 -0.000000  0.444444      8.000000
  0.142857  0.142857  0.444444      4.000000
  0.285714  0.142857  0.444444      8.000000
  0.428571  0.142857  0.444444      8.000000
 -0.428571  0.142857  0.444444      8.000000
 -0.285714  0.142857  0.444444      8.000000
 -0.142857  0.142857  0.444444      4.000000
  0.285714  0.285714  0.444444      4.000000
  0.428571  0.285714  0.444444      8.000000
 -0.428571  0.285714  0.444444      8.000000
 -0.285714  0.285714  0.444444      4.000000
  0.428571  0.428571  0.444444      4.000000
 -0.428571  0.428571  0.444444      4.000000
 
 Following cartesian coordinates:
            Coordinates               Weight
  0.000000  0.000000  0.000000      1.000000
  0.015287 -0.013054  0.000000      4.000000
  0.030574 -0.026108  0.000000      4.000000
  0.045861 -0.039162  0.000000      4.000000
  0.030574 -0.000000  0.000000      2.000000
  0.045861 -0.013054  0.000000      4.000000
  0.061148 -0.026108  0.000000      4.000000
 -0.030574  0.052216  0.000000      4.000000
 -0.015287  0.039162  0.000000      4.000000
  0.000000  0.026108  0.000000      2.000000
  0.061148  0.000000  0.000000      2.000000
  0.076435 -0.013054  0.000000      4.000000
 -0.015287  0.065270  0.000000      4.000000
  0.000000  0.052216  0.000000      2.000000
  0.091722 -0.000000  0.000000      2.000000
  0.000000  0.078324  0.000000      2.000000
  0.000000  0.000000  0.021043      2.000000
  0.015287 -0.013054  0.021043      8.000000
  0.030574 -0.026108  0.021043      8.000000
  0.045861 -0.039162  0.021043      8.000000
  0.030574 -0.000000  0.021043      4.000000
  0.045861 -0.013054  0.021043      8.000000
  0.061148 -0.026108  0.021043      8.000000
 -0.030574  0.052216  0.021043      8.000000
 -0.015287  0.039162  0.021043      8.000000
  0.000000  0.026108  0.021043      4.000000
  0.061148  0.000000  0.021043      4.000000
  0.076435 -0.013054  0.021043      8.000000
 -0.015287  0.065270  0.021043      8.000000
  0.000000  0.052216  0.021043      4.000000
  0.091722 -0.000000  0.021043      4.000000
  0.000000  0.078324  0.021043      4.000000
  0.000000  0.000000  0.042085      2.000000
  0.015287 -0.013054  0.042085      8.000000
  0.030574 -0.026108  0.042085      8.000000
  0.045861 -0.039162  0.042085      8.000000
  0.030574 -0.000000  0.042085      4.000000
  0.045861 -0.013054  0.042085      8.000000
  0.061148 -0.026108  0.042085      8.000000
 -0.030574  0.052216  0.042085      8.000000
 -0.015287  0.039162  0.042085      8.000000
  0.000000  0.026108  0.042085      4.000000
  0.061148  0.000000  0.042085      4.000000
  0.076435 -0.013054  0.042085      8.000000
 -0.015287  0.065270  0.042085      8.000000
  0.000000  0.052216  0.042085      4.000000
  0.091722 -0.000000  0.042085      4.000000
  0.000000  0.078324  0.042085      4.000000
  0.000000  0.000000  0.063128      2.000000
  0.015287 -0.013054  0.063128      8.000000
  0.030574 -0.026108  0.063128      8.000000
  0.045861 -0.039162  0.063128      8.000000
  0.030574 -0.000000  0.063128      4.000000
  0.045861 -0.013054  0.063128      8.000000
  0.061148 -0.026108  0.063128      8.000000
 -0.030574  0.052216  0.063128      8.000000
 -0.015287  0.039162  0.063128      8.000000
  0.000000  0.026108  0.063128      4.000000
  0.061148  0.000000  0.063128      4.000000
  0.076435 -0.013054  0.063128      8.000000
 -0.015287  0.065270  0.063128      8.000000
  0.000000  0.052216  0.063128      4.000000
  0.091722 -0.000000  0.063128      4.000000
  0.000000  0.078324  0.063128      4.000000
  0.000000  0.000000  0.084171      2.000000
  0.015287 -0.013054  0.084171      8.000000
  0.030574 -0.026108  0.084171      8.000000
  0.045861 -0.039162  0.084171      8.000000
  0.030574 -0.000000  0.084171      4.000000
  0.045861 -0.013054  0.084171      8.000000
  0.061148 -0.026108  0.084171      8.000000
 -0.030574  0.052216  0.084171      8.000000
 -0.015287  0.039162  0.084171      8.000000
  0.000000  0.026108  0.084171      4.000000
  0.061148  0.000000  0.084171      4.000000
  0.076435 -0.013054  0.084171      8.000000
 -0.015287  0.065270  0.084171      8.000000
  0.000000  0.052216  0.084171      4.000000
  0.091722 -0.000000  0.084171      4.000000
  0.000000  0.078324  0.084171      4.000000
 


--------------------------------------------------------------------------------------------------------




 Dimension of arrays:
   k-points           NKPTS =     80   k-points in BZ     NKDIM =     80   number of bands    NBANDS=    100
   number of dos      NEDOS =    301   number of ions     NIONS =     16
   non local maximal  LDIM  =      6   non local SUM 2l+1 LMDIM =     18
   total plane-waves  NPLWV = 125440
   max r-space proj   IRMAX =   5957   max aug-charges    IRDMAX=  20458
   dimension x,y,z NGX =    56 NGY =   56 NGZ =   40
   dimension x,y,z NGXF=   112 NGYF=  112 NGZF=   80
   support grid    NGXF=   112 NGYF=  112 NGZF=   80
   ions per type =               8   8
   NGX,Y,Z   is equivalent  to a cutoff of  12.94, 12.94, 12.59 a.u.
   NGXF,Y,Z  is equivalent  to a cutoff of  25.88, 25.88, 25.19 a.u.

 SYSTEM =  unknown system                          
 POSCAR =  Fe8 Se8                                 

 Startparameter for this run:
   NWRITE =      2    write-flag & timer
   PREC   = accura    normal or accurate (medium, high low for compatibility)
   ISTART =      0    job   : 0-new  1-cont  2-samecut
   ICHARG =      2    charge: 1-file 2-atom 10-const
   ISPIN  =      2    spin polarized calculation?
   LNONCOLLINEAR =      F non collinear calculations
   LSORBIT =      F    spin-orbit coupling
   INIWAV =      1    electr: 0-lowe 1-rand  2-diag
   LASPH  =      T    aspherical Exc in radial PAW
 Electronic Relaxation 1
   ENCUT  =  550.0 eV  40.42 Ry    6.36 a.u.  13.76 13.76 10.10*2*pi/ulx,y,z
   ENINI  =  550.0     initial cutoff
   ENAUG  =  578.3 eV  augmentation charge cutoff
   NELM   =    100;   NELMIN=  2; NELMDL=  0     # of ELM steps 
   EDIFF  = 0.2E-03   stopping-criterion for ELM
   LREAL  =      T    real-space projection
   NLSPLINE    = F    spline interpolate recip. space projectors
   LCOMPAT=      F    compatible to vasp.4.4
   GGA_COMPAT  = T    GGA compatible to vasp.4.4-vasp.4.6
   LMAXPAW     = -100 max onsite density
   LMAXMIX     =    4 max onsite mixed and CHGCAR
   VOSKOWN=      0    Vosko Wilk Nusair interpolation
   ROPT   =   -0.00025  -0.00025
 Ionic relaxation
   EDIFFG = 0.2E-02   stopping-criterion for IOM
   NSW    =      0    number of steps for IOM
   NBLOCK =      1;   KBLOCK =      1    inner block; outer block 
   IBRION =     -1    ionic relax: 0-MD 1-quasi-New 2-CG
   NFREE  =      0    steps in history (QN), initial steepest desc. (CG)
   ISIF   =      4    stress and relaxation
   IWAVPR =     10    prediction:  0-non 1-charg 2-wave 3-comb
   ISYM   =      2    0-nonsym 1-usesym 2-fastsym
   LCORR  =      T    Harris-Foulkes like correction to forces

   POTIM  = 0.5000    time-step for ionic-motion
   TEIN   =    0.0    initial temperature
   TEBEG  =    0.0;   TEEND  =   0.0 temperature during run
   SMASS  =  -3.00    Nose mass-parameter (am)
   estimated Nose-frequenzy (Omega)   =  0.10E-29 period in steps = 0.13E+47 mass=  -0.118E-26a.u.
   SCALEE = 1.0000    scale energy and forces
   NPACO  =    256;   APACO  = 10.0  distance and # of slots for P.C.
   PSTRESS=    0.0 pullay stress

  Mass of Ions in am
   POMASS =  55.85 78.96
  Ionic Valenz
   ZVAL   =  14.00  6.00
  Atomic Wigner-Seitz radii
   RWIGS  =  -1.00 -1.00
  virtual crystal weights 
   VCA    =   1.00  1.00
   NELECT =     160.0000    total number of electrons
   NUPDOWN=      -1.0000    fix difference up-down

 DOS related values:
   EMIN   =  10.00;   EMAX   =-10.00  energy-range for DOS
   EFERMI =   0.00;   METHOD = LEGACY      
   ISMEAR =    -5;   SIGMA  =   0.05  broadening in eV -4-tet -1-fermi 0-gaus

 Electronic relaxation 2 (details)
   IALGO  =     68    algorithm
   LDIAG  =      T    sub-space diagonalisation (order eigenvalues)
   LSUBROT=      F    optimize rotation matrix (better conditioning)
   TURBO    =      0    0=normal 1=particle mesh
   IRESTART =      0    0=no restart 2=restart with 2 vectors
   NREBOOT  =      0    no. of reboots
   NMIN     =      0    reboot dimension
   EREF     =   0.00    reference energy to select bands
   IMIX   =      4    mixing-type and parameters
     AMIX     =   0.40;   BMIX     =  1.00
     AMIX_MAG =   1.60;   BMIX_MAG =  1.00
     AMIN     =   0.10
     WC   =   100.;   INIMIX=   1;  MIXPRE=   1;  MAXMIX= -45

 Intra band minimization:
   WEIMIN = 0.0000     energy-eigenvalue tresh-hold
   EBREAK =  0.50E-06  absolut break condition
   DEPER  =   0.30     relativ break condition  

   TIME   =   0.40     timestep for ELM

  volume/ion in A,a.u.               =      16.87       113.88
  Fermi-wavevector in a.u.,A,eV,Ry     =   1.375077  2.598518 25.726382  1.890836
  Thomas-Fermi vector in A             =   2.500445
 
 Write flags
   LWAVE        =      F    write WAVECAR
   LDOWNSAMPLE  =      F    k-point downsampling of WAVECAR
   LCHARG       =      T    write CHGCAR
   LVTOT        =      F    write LOCPOT, total local potential
   LVHAR        =      F    write LOCPOT, Hartree potential only
   LELF         =      F    write electronic localiz. function (ELF)
   LORBIT       =     11    0 simple, 1 ext, 2 COOP (PROOUT), +10 PAW based schemes


 Dipole corrections
   LMONO  =      F    monopole corrections only (constant potential shift)
   LDIPOL =      F    correct potential (dipole corrections)
   IDIPOL =      0    1-x, 2-y, 3-z, 4-all directions 
   EPSILON=  1.0000000 bulk dielectric constant

 Exchange correlation treatment:
   GGA     =    --    GGA type
   LEXCH   =     8    internal setting for exchange type
   LIBXC   =     F    Libxc                    
   VOSKOWN =     0    Vosko Wilk Nusair interpolation
   LHFCALC =     F    Hartree Fock is set to
   LHFONE  =     F    Hartree Fock one center treatment
   AEXX    =    0.0000 exact exchange contribution

 Linear response parameters
   LEPSILON=     F    determine dielectric tensor
   LRPA    =     F    only Hartree local field effects (RPA)
   LNABLA  =     F    use nabla operator in PAW spheres
   LVEL    =     F    velocity operator in full k-point grid
   CSHIFT  =0.1000    complex shift for real part using Kramers Kronig
   OMEGAMAX=  -1.0    maximum frequency
   DEG_THRESHOLD= 0.2000000E-02 threshold for treating states as degnerate
   RTIME   =   -0.100 relaxation time in fs
  (WPLASMAI=    0.000 imaginary part of plasma frequency in eV, 0.658/RTIME)
   DFIELD  = 0.0000000 0.0000000 0.0000000 field for delta impulse in time
 
  Optional k-point grid parameters
   LKPOINTS_OPT  =     F    use optional k-point grid
   KPOINTS_OPT_MODE=     1    mode for optional k-point grid
 
 Orbital magnetization related:
   ORBITALMAG=     F  switch on orbital magnetization
   LCHIMAG   =     F  perturbation theory with respect to B field
   DQ        =  0.001000  dq finite difference perturbation B field
   LLRAUG    =     F  two centre corrections for induced B field
   LBONE     =     F  B-component reconstruction in AE one-centre
   LVGVCALC  =     T  calculate vGv susceptibility
   LVGVAPPL  =     F  apply vGv susceptibility instead of pGv for G=0

 Random number generation:
   RANDOM_GENERATOR = DEFAULT
   PCG_SEED         = not used


--------------------------------------------------------------------------------------------------------


 Static calculation
 charge density and potential will be updated during run
 spin polarized calculation
 RMM-DIIS sequential band-by-band and
  variant of blocked Davidson during initial phase
 perform sub-space diagonalisation
    before iterative eigenvector-optimisation
 modified Broyden-mixing scheme, WC =      100.0
 initial mixing is a Kerker type mixing with AMIX =  0.4000 and BMIX =      1.0000
 Hartree-type preconditioning will be used
 using additional bands           20
 real space projection scheme for non local part
 use partial core corrections
 calculate Harris-corrections to forces 
   (improved forces if not selfconsistent)
 use gradient corrections 
 use of overlap-Matrix (Vanderbilt PP)
 Fermi weights with tetrahedron method with Bloechl corrections


--------------------------------------------------------------------------------------------------------


  energy-cutoff  :      550.00
  volume of cell :      270.00
      direct lattice vectors                 reciprocal lattice vectors
     4.672480970 -5.471796129  0.000000000     0.107009532 -0.091377673  0.000000000
     4.672480970  5.471796129  0.000000000     0.107009532  0.091377673  0.000000000
     0.000000000  0.000000000  5.280272300     0.000000000  0.000000000  0.189384172

  length of vectors
     7.195320097  7.195320097  5.280272300     0.140715738  0.140715738  0.189384172


 
 k-points in units of 2pi/SCALE and weight: KPOINTS                                 
   0.00000000  0.00000000  0.00000000       0.002
   0.01528708 -0.01305395  0.00000000       0.009
   0.03057415 -0.02610791  0.00000000       0.009
   0.04586123 -0.03916186  0.00000000       0.009
   0.03057415  0.00000000  0.00000000       0.005
   0.04586123 -0.01305395  0.00000000       0.009
   0.06114830 -0.02610791  0.00000000       0.009
  -0.03057415  0.05221581  0.00000000       0.009
  -0.01528708  0.03916186  0.00000000       0.009
  -0.00000000  0.02610791  0.00000000       0.005
   0.06114830 -0.00000000  0.00000000       0.005
   0.07643538 -0.01305395  0.00000000       0.009
  -0.01528708  0.06526977  0.00000000       0.009
  -0.00000000  0.05221581  0.00000000       0.005
   0.09172246 -0.00000000  0.00000000       0.005
  -0.00000000  0.07832372  0.00000000       0.005
   0.00000000  0.00000000  0.02104269       0.005
   0.01528708 -0.01305395  0.02104269       0.018
   0.03057415 -0.02610791  0.02104269       0.018
   0.04586123 -0.03916186  0.02104269       0.018
   0.03057415  0.00000000  0.02104269       0.009
   0.04586123 -0.01305395  0.02104269       0.018
   0.06114830 -0.02610791  0.02104269       0.018
  -0.03057415  0.05221581  0.02104269       0.018
  -0.01528708  0.03916186  0.02104269       0.018
  -0.00000000  0.02610791  0.02104269       0.009
   0.06114830 -0.00000000  0.02104269       0.009
   0.07643538 -0.01305395  0.02104269       0.018
  -0.01528708  0.06526977  0.02104269       0.018
  -0.00000000  0.05221581  0.02104269       0.009
   0.09172246 -0.00000000  0.02104269       0.009
  -0.00000000  0.07832372  0.02104269       0.009
   0.00000000  0.00000000  0.04208537       0.005
   0.01528708 -0.01305395  0.04208537       0.018
   0.03057415 -0.02610791  0.04208537       0.018
   0.04586123 -0.03916186  0.04208537       0.018
   0.03057415  0.00000000  0.04208537       0.009
   0.04586123 -0.01305395  0.04208537       0.018
   0.06114830 -0.02610791  0.04208537       0.018
  -0.03057415  0.05221581  0.04208537       0.018
  -0.01528708  0.03916186  0.04208537       0.018
  -0.00000000  0.02610791  0.04208537       0.009
   0.06114830 -0.00000000  0.04208537       0.009
   0.07643538 -0.01305395  0.04208537       0.018
  -0.01528708  0.06526977  0.04208537       0.018
  -0.00000000  0.05221581  0.04208537       0.009
   0.09172246 -0.00000000  0.04208537       0.009
  -0.00000000  0.07832372  0.04208537       0.009
   0.00000000  0.00000000  0.06312806       0.005
   0.01528708 -0.01305395  0.06312806       0.018
   0.03057415 -0.02610791  0.06312806       0.018
   0.04586123 -0.03916186  0.06312806       0.018
   0.03057415  0.00000000  0.06312806       0.009
   0.04586123 -0.01305395  0.06312806       0.018
   0.06114830 -0.02610791  0.06312806       0.018
  -0.03057415  0.05221581  0.06312806       0.018
  -0.01528708  0.03916186  0.06312806       0.018
  -0.00000000  0.02610791  0.06312806       0.009
   0.06114830 -0.00000000  0.06312806       0.009
   0.07643538 -0.01305395  0.06312806       0.018
  -0.01528708  0.06526977  0.06312806       0.018
  -0.00000000  0.05221581  0.06312806       0.009
   0.09172246 -0.00000000  0.06312806       0.009
  -0.00000000  0.07832372  0.06312806       0.009
   0.00000000  0.00000000  0.08417074       0.005
   0.01528708 -0.01305395  0.08417074       0.018
   0.03057415 -0.02610791  0.08417074       0.018
   0.04586123 -0.03916186  0.08417074       0.018
   0.03057415  0.00000000  0.08417074       0.009
   0.04586123 -0.01305395  0.08417074       0.018
   0.06114830 -0.02610791  0.08417074       0.018
  -0.03057415  0.05221581  0.08417074       0.018
  -0.01528708  0.03916186  0.08417074       0.018
  -0.00000000  0.02610791  0.08417074       0.009
   0.06114830 -0.00000000  0.08417074       0.009
   0.07643538 -0.01305395  0.08417074       0.018
  -0.01528708  0.06526977  0.08417074       0.018
  -0.00000000  0.05221581  0.08417074       0.009
   0.09172246 -0.00000000  0.08417074       0.009
  -0.00000000  0.07832372  0.08417074       0.009
 
 k-points in reciprocal lattice and weights: KPOINTS                                 
   0.00000000  0.00000000  0.00000000       0.002
   0.14285714 -0.00000000  0.00000000       0.009
   0.28571429 -0.00000000  0.00000000       0.009
   0.42857143 -0.00000000  0.00000000       0.009
   0.14285714  0.14285714  0.00000000       0.005
   0.28571429  0.14285714  0.00000000       0.009
   0.42857143  0.14285714  0.00000000       0.009
  -0.42857143  0.14285714  0.00000000       0.009
  -0.28571429  0.14285714  0.00000000       0.009
  -0.14285714  0.14285714  0.00000000       0.005
   0.28571429  0.28571429  0.00000000       0.005
   0.42857143  0.28571429  0.00000000       0.009
  -0.42857143  0.28571429  0.00000000       0.009
  -0.28571429  0.28571429  0.00000000       0.005
   0.42857143  0.42857143  0.00000000       0.005
  -0.42857143  0.42857143  0.00000000       0.005
   0.00000000  0.00000000  0.11111111       0.005
   0.14285714 -0.00000000  0.11111111       0.018
   0.28571429 -0.00000000  0.11111111       0.018
   0.42857143 -0.00000000  0.11111111       0.018
   0.14285714  0.14285714  0.11111111       0.009
   0.28571429  0.14285714  0.11111111       0.018
   0.42857143  0.14285714  0.11111111       0.018
  -0.42857143  0.14285714  0.11111111       0.018
  -0.28571429  0.14285714  0.11111111       0.018
  -0.14285714  0.14285714  0.11111111       0.009
   0.28571429  0.28571429  0.11111111       0.009
   0.42857143  0.28571429  0.11111111       0.018
  -0.42857143  0.28571429  0.11111111       0.018
  -0.28571429  0.28571429  0.11111111       0.009
   0.42857143  0.42857143  0.11111111       0.009
  -0.42857143  0.42857143  0.11111111       0.009
   0.00000000  0.00000000  0.22222222       0.005
   0.14285714 -0.00000000  0.22222222       0.018
   0.28571429 -0.00000000  0.22222222       0.018
   0.42857143 -0.00000000  0.22222222       0.018
   0.14285714  0.14285714  0.22222222       0.009
   0.28571429  0.14285714  0.22222222       0.018
   0.42857143  0.14285714  0.22222222       0.018
  -0.42857143  0.14285714  0.22222222       0.018
  -0.28571429  0.14285714  0.22222222       0.018
  -0.14285714  0.14285714  0.22222222       0.009
   0.28571429  0.28571429  0.22222222       0.009
   0.42857143  0.28571429  0.22222222       0.018
  -0.42857143  0.28571429  0.22222222       0.018
  -0.28571429  0.28571429  0.22222222       0.009
   0.42857143  0.42857143  0.22222222       0.009
  -0.42857143  0.42857143  0.22222222       0.009
   0.00000000  0.00000000  0.33333333       0.005
   0.14285714 -0.00000000  0.33333333       0.018
   0.28571429 -0.00000000  0.33333333       0.018
   0.42857143 -0.00000000  0.33333333       0.018
   0.14285714  0.14285714  0.33333333       0.009
   0.28571429  0.14285714  0.33333333       0.018
   0.42857143  0.14285714  0.33333333       0.018
  -0.42857143  0.14285714  0.33333333       0.018
  -0.28571429  0.14285714  0.33333333       0.018
  -0.14285714  0.14285714  0.33333333       0.009
   0.28571429  0.28571429  0.33333333       0.009
   0.42857143  0.28571429  0.33333333       0.018
  -0.42857143  0.28571429  0.33333333       0.018
  -0.28571429  0.28571429  0.33333333       0.009
   0.42857143  0.42857143  0.33333333       0.009
  -0.42857143  0.42857143  0.33333333       0.009
   0.00000000  0.00000000  0.44444444       0.005
   0.14285714 -0.00000000  0.44444444       0.018
   0.28571429 -0.00000000  0.44444444       0.018
   0.42857143 -0.00000000  0.44444444       0.018
   0.14285714  0.14285714  0.44444444       0.009
   0.28571429  0.14285714  0.44444444       0.018
   0.42857143  0.14285714  0.44444444       0.018
  -0.42857143  0.14285714  0.44444444       0.018
  -0.28571429  0.14285714  0.44444444       0.018
  -0.14285714  0.14285714  0.44444444       0.009
   0.28571429  0.28571429  0.44444444       0.009
   0.42857143  0.28571429  0.44444444       0.018
  -0.42857143  0.28571429  0.44444444       0.018
  -0.28571429  0.28571429  0.44444444       0.009
   0.42857143  0.42857143  0.44444444       0.009
  -0.42857143  0.42857143  0.44444444       0.009
 
 position of ions in fractional coordinates (direct lattice) 
   0.00000000  0.00000000  0.00000000
   0.00000000  0.50000000  0.00000000
   0.50000000  0.00000000  0.00000000
   0.50000000  0.50000000  0.00000000
   0.25000000  0.25000000  0.00000000
   0.25000000  0.75000000  0.00000000
   0.75000000  0.25000000  0.00000000
   0.75000000  0.75000000  0.00000000
   0.37500000  0.12500000  0.65639618
   0.37500000  0.62500000  0.65639618
   0.87500000  0.12500000  0.65639618
   0.87500000  0.62500000  0.65639618
   0.12500000  0.37500000  0.34360382
   0.12500000  0.87500000  0.34360382
   0.62500000  0.37500000  0.34360382
   0.62500000  0.87500000  0.34360382
 
 position of ions in cartesian coordinates  (Angst):
   0.00000000  0.00000000  0.00000000
   2.33624049  2.73589806  0.00000000
   2.33624049 -2.73589806  0.00000000
   4.67248097  0.00000000  0.00000000
   2.33624049  0.00000000  0.00000000
   4.67248097  2.73589806  0.00000000
   4.67248097 -2.73589806  0.00000000
   7.00872146 -0.00000000  0.00000000
   2.33624049 -1.36794903  3.46595058
   4.67248097  1.36794903  3.46595058
   4.67248097 -4.10384710  3.46595058
   7.00872146 -1.36794903  3.46595058
   2.33624049  1.36794903  1.81432172
   4.67248097  4.10384710  1.81432172
   4.67248097 -1.36794903  1.81432172
   7.00872146  1.36794903  1.81432172
 


--------------------------------------------------------------------------------------------------------


 k-point   1 :   0.0000 0.0000 0.0000  plane waves:    7869
 k-point   2 :   0.1429-0.0000 0.0000  plane waves:    7900
 k-point   3 :   0.2857-0.0000 0.0000  plane waves:    7910
 k-point   4 :   0.4286-0.0000 0.0000  plane waves:    7904
 k-point   5 :   0.1429 0.1429 0.0000  plane waves:    7884
 k-point   6 :   0.2857 0.1429 0.0000  plane waves:    7881
 k-point   7 :   0.4286 0.1429 0.0000  plane waves:    7911
 k-point   8 :  -0.4286 0.1429 0.0000  plane waves:    7917
 k-point   9 :  -0.2857 0.1429 0.0000  plane waves:    7902
 k-point  10 :  -0.1429 0.1429 0.0000  plane waves:    7881
 k-point  11 :   0.2857 0.2857 0.0000  plane waves:    7888
 k-point  12 :   0.4286 0.2857 0.0000  plane waves:    7901
 k-point  13 :  -0.4286 0.2857 0.0000  plane waves:    7895
 k-point  14 :  -0.2857 0.2857 0.0000  plane waves:    7915
 k-point  15 :   0.4286 0.4286 0.0000  plane waves:    7900
 k-point  16 :  -0.4286 0.4286 0.0000  plane waves:    7901
 k-point  17 :   0.0000 0.0000 0.1111  plane waves:    7902
 k-point  18 :   0.1429-0.0000 0.1111  plane waves:    7885
 k-point  19 :   0.2857-0.0000 0.1111  plane waves:    7895
 k-point  20 :   0.4286-0.0000 0.1111  plane waves:    7899
 k-point  21 :   0.1429 0.1429 0.1111  plane waves:    7880
 k-point  22 :   0.2857 0.1429 0.1111  plane waves:    7888
 k-point  23 :   0.4286 0.1429 0.1111  plane waves:    7914
 k-point  24 :  -0.4286 0.1429 0.1111  plane waves:    7906
 k-point  25 :  -0.2857 0.1429 0.1111  plane waves:    7897
 k-point  26 :  -0.1429 0.1429 0.1111  plane waves:    7889
 k-point  27 :   0.2857 0.2857 0.1111  plane waves:    7893
 k-point  28 :   0.4286 0.2857 0.1111  plane waves:    7904
 k-point  29 :  -0.4286 0.2857 0.1111  plane waves:    7906
 k-point  30 :  -0.2857 0.2857 0.1111  plane waves:    7903
 k-point  31 :   0.4286 0.4286 0.1111  plane waves:    7909
 k-point  32 :  -0.4286 0.4286 0.1111  plane waves:    7909
 k-point  33 :   0.0000 0.0000 0.2222  plane waves:    7912
 k-point  34 :   0.1429-0.0000 0.2222  plane waves:    7905
 k-point  35 :   0.2857-0.0000 0.2222  plane waves:    7910
 k-point  36 :   0.4286-0.0000 0.2222  plane waves:    7903
 k-point  37 :   0.1429 0.1429 0.2222  plane waves:    7886
 k-point  38 :   0.2857 0.1429 0.2222  plane waves:    7902
 k-point  39 :   0.4286 0.1429 0.2222  plane waves:    7907
 k-point  40 :  -0.4286 0.1429 0.2222  plane waves:    7908
 k-point  41 :  -0.2857 0.1429 0.2222  plane waves:    7915
 k-point  42 :  -0.1429 0.1429 0.2222  plane waves:    7906
 k-point  43 :   0.2857 0.2857 0.2222  plane waves:    7903
 k-point  44 :   0.4286 0.2857 0.2222  plane waves:    7915
 k-point  45 :  -0.4286 0.2857 0.2222  plane waves:    7910
 k-point  46 :  -0.2857 0.2857 0.2222  plane waves:    7888
 k-point  47 :   0.4286 0.4286 0.2222  plane waves:    7909
 k-point  48 :  -0.4286 0.4286 0.2222  plane waves:    7923
 k-point  49 :   0.0000 0.0000 0.3333  plane waves:    7920
 k-point  50 :   0.1429-0.0000 0.3333  plane waves:    7903
 k-point  51 :   0.2857-0.0000 0.3333  plane waves:    7910
 k-point  52 :   0.4286-0.0000 0.3333  plane waves:    7920
 k-point  53 :   0.1429 0.1429 0.3333  plane waves:    7925
 k-point  54 :   0.2857 0.1429 0.3333  plane waves:    7913
 k-point  55 :   0.4286 0.1429 0.3333  plane waves:    7928
 k-point  56 :  -0.4286 0.1429 0.3333  plane waves:    7918
 k-point  57 :  -0.2857 0.1429 0.3333  plane waves:    7908
 k-point  58 :  -0.1429 0.1429 0.3333  plane waves:    7897
 k-point  59 :   0.2857 0.2857 0.3333  plane waves:    7906
 k-point  60 :   0.4286 0.2857 0.3333  plane waves:    7902
 k-point  61 :  -0.4286 0.2857 0.3333  plane waves:    7914
 k-point  62 :  -0.2857 0.2857 0.3333  plane waves:    7907
 k-point  63 :   0.4286 0.4286 0.3333  plane waves:    7897
 k-point  64 :  -0.4286 0.4286 0.3333  plane waves:    7913
 k-point  65 :   0.0000 0.0000 0.4444  plane waves:    7906
 k-point  66 :   0.1429-0.0000 0.4444  plane waves:    7924
 k-point  67 :   0.2857-0.0000 0.4444  plane waves:    7927
 k-point  68 :   0.4286-0.0000 0.4444  plane waves:    7938
 k-point  69 :   0.1429 0.1429 0.4444  plane waves:    7941
 k-point  70 :   0.2857 0.1429 0.4444  plane waves:    7930
 k-point  71 :   0.4286 0.1429 0.4444  plane waves:    7915
 k-point  72 :  -0.4286 0.1429 0.4444  plane waves:    7912
 k-point  73 :  -0.2857 0.1429 0.4444  plane waves:    7920
 k-point  74 :  -0.1429 0.1429 0.4444  plane waves:    7915
 k-point  75 :   0.2857 0.2857 0.4444  plane waves:    7922
 k-point  76 :   0.4286 0.2857 0.4444  plane waves:    7906
 k-point  77 :  -0.4286 0.2857 0.4444  plane waves:    7904
 k-point  78 :  -0.2857 0.2857 0.4444  plane waves:    7919
 k-point  79 :   0.4286 0.4286 0.4444  plane waves:    7884
 k-point  80 :  -0.4286 0.4286 0.4444  plane waves:    7891

 maximum and minimum number of plane-waves per node :      7941     7869

 maximum number of plane-waves:      7941
 maximum index in each direction: 
   IXMAX=   14   IYMAX=   13   IZMAX=   10
   IXMIN=  -14   IYMIN=  -14   IZMIN=  -10


 serial   3D FFT for wavefunctions
 parallel 3D FFT for charge:
    minimum data exchange during FFTs selected (reduces bandwidth)


 total amount of memory used by VASP MPI-rank0   164301. kBytes
=======================================================================

   base      :      30000. kBytes
   nonlr-proj:      11725. kBytes
   fftplans  :       2341. kBytes
   grid      :      14522. kBytes
   one-center:        497. kBytes
   wavefun   :     105216. kBytes
 
     INWAV:  cpu time      0.0000: real time      0.0002
 Broyden mixing: mesh for mixing (old mesh)
   NGX = 27   NGY = 27   NGZ = 21
  (NGX  =112   NGY  =112   NGZ  = 80)
  gives a total of  15309 points

 initial charge density was supplied:
 charge density of overlapping atoms calculated
 number of electron     160.0000000 magnetization       0.0000000
 keeping initial charge density in first step


--------------------------------------------------------------------------------------------------------


 Maximum index for non-local projection operator         5751
 Maximum index for augmentation-charges         1134 (set IRDMAX)


--------------------------------------------------------------------------------------------------------


 First call to EWALD:  gamma=   0.274
 Maximum number of real-space cells 3x 3x 3
 Maximum number of reciprocal cells 3x 3x 2

    FEWALD:  cpu time      0.0016: real time      0.0016


--------------------------------------- Ionic step        1  -------------------------------------------




--------------------------------------- Iteration      1(   1)  ---------------------------------------


    POTLOK:  cpu time      0.0496: real time      0.0665
    SETDIJ:  cpu time      0.2764: real time      0.2776
     EDDAV:  cpu time     23.7659: real time     23.9047
 BZINTS: Fermi energy:   22.493057;  160.000000 electrons
         Band energy: 0.112050E+03;  BLOECHL correction:   -0.101657
       DOS:  cpu time      0.1698: real time      0.1706
    --------------------------------------------
      LOOP:  cpu time     24.2618: real time     24.4193

 eigenvalue-minimisations  : 33500
 total energy-change (2. order) : 0.2070108E+04  (-0.8894702E+04)
 number of electron     160.0000000 magnetization      -0.0000000
 augmentation part      160.0000000 magnetization      -0.0000000

 Free energy of the ion-electron system (eV)
  ---------------------------------------------------
  alpha Z        PSCENC =       940.56142696
  Ewald energy   TEWEN  =    -12354.08038179
  -Hartree energ DENC   =     -8312.41750179
  -exchange      EXHF   =         0.00000000
  -V(xc)+E(xc)   XCENC  =       569.02365521
  PAW double counting   =     15529.06034967   -16124.93095651
  entropy T*S    EENTRO =         0.00000000
  eigenvalues    EBANDS =       112.05040321
  atomic energy  EATOM  =     21710.84102437
  Solvation  Ediel_sol  =         0.00000000
  ---------------------------------------------------
  free energy    TOTEN  =      2070.10801932 eV

  energy without entropy =     2070.10801932  energy(sigma->0) =     2070.10801932


--------------------------------------------------------------------------------------------------------




--------------------------------------- Iteration      1(   2)  ---------------------------------------


     EDDAV:  cpu time     22.8243: real time     22.9575
 BZINTS: Fermi energy:    8.392176;  160.000000 electrons
         Band energy:-0.183664E+04;  BLOECHL correction:   -0.033449
       DOS:  cpu time      0.1770: real time      0.1778
    --------------------------------------------
      LOOP:  cpu time     23.0014: real time     23.1353

 eigenvalue-minimisations  : 32000
 total energy-change (2. order) :-0.1948689E+04  (-0.1890500E+04)
 number of electron     160.0000000 magnetization      -0.0000000
 augmentation part      160.0000000 magnetization      -0.0000000

 Free energy of the ion-electron system (eV)
  ---------------------------------------------------
  alpha Z        PSCENC =       940.56142696
  Ewald energy   TEWEN  =    -12354.08038179
  -Hartree energ DENC   =     -8312.41750179
  -exchange      EXHF   =         0.00000000
  -V(xc)+E(xc)   XCENC  =       569.02365521
  PAW double counting   =     15529.06034967   -16124.93095651
  entropy T*S    EENTRO =         0.00000000
  eigenvalues    EBANDS =     -1836.63823183
  atomic energy  EATOM  =     21710.84102437
  Solvation  Ediel_sol  =         0.00000000
  ---------------------------------------------------
  free energy    TOTEN  =       121.41938428 eV

  energy without entropy =      121.41938428  energy(sigma->0) =      121.41938428


--------------------------------------------------------------------------------------------------------




--------------------------------------- Iteration      1(   3)  ---------------------------------------


     EDDAV:  cpu time     29.3770: real time     29.5948
 BZINTS: Fermi energy:    6.403178;  160.000000 electrons
         Band energy:-0.204065E+04;  BLOECHL correction:   -0.017661
       DOS:  cpu time      0.1527: real time      0.1534
    --------------------------------------------
      LOOP:  cpu time     29.5297: real time     29.7482

 eigenvalue-minimisations  : 44100
 total energy-change (2. order) :-0.2040089E+03  (-0.1804170E+03)
 number of electron     160.0000000 magnetization      -0.0000000
 augmentation part      160.0000000 magnetization      -0.0000000

 Free energy of the ion-electron system (eV)
  ---------------------------------------------------
  alpha Z        PSCENC =       940.56142696
  Ewald energy   TEWEN  =    -12354.08038179
  -Hartree energ DENC   =     -8312.41750179
  -exchange      EXHF   =         0.00000000
  -V(xc)+E(xc)   XCENC  =       569.02365521
  PAW double counting   =     15529.06034967   -16124.93095651
  entropy T*S    EENTRO =         0.00000000
  eigenvalues    EBANDS =     -2040.64716700
  atomic energy  EATOM  =     21710.84102437
  Solvation  Ediel_sol  =         0.00000000
  ---------------------------------------------------
  free energy    TOTEN  =       -82.58955089 eV

  energy without entropy =      -82.58955089  energy(sigma->0) =      -82.58955089


--------------------------------------------------------------------------------------------------------




--------------------------------------- Iteration      1(   4)  ---------------------------------------


     EDDAV:  cpu time     30.7321: real time     30.9110
 BZINTS: Fermi energy:    6.288827;  160.000000 electrons
         Band energy:-0.205420E+04;  BLOECHL correction:   -0.018558
       DOS:  cpu time      0.1797: real time      0.1805
    --------------------------------------------
      LOOP:  cpu time     30.9119: real time     31.0915

 eigenvalue-minimisations  : 46120
 total energy-change (2. order) :-0.1355084E+02  (-0.1316192E+02)
 number of electron     160.0000000 magnetization      -0.0000000
 augmentation part      160.0000000 magnetization      -0.0000000

 Free energy of the ion-electron system (eV)
  ---------------------------------------------------
  alpha Z        PSCENC =       940.56142696
  Ewald energy   TEWEN  =    -12354.08038179
  -Hartree energ DENC   =     -8312.41750179
  -exchange      EXHF   =         0.00000000
  -V(xc)+E(xc)   XCENC  =       569.02365521
  PAW double counting   =     15529.06034967   -16124.93095651
  entropy T*S    EENTRO =         0.00000000
  eigenvalues    EBANDS =     -2054.19800514
  atomic energy  EATOM  =     21710.84102437
  Solvation  Ediel_sol  =         0.00000000
  ---------------------------------------------------
  free energy    TOTEN  =       -96.14038903 eV

  energy without entropy =      -96.14038903  energy(sigma->0) =      -96.14038903


--------------------------------------------------------------------------------------------------------




--------------------------------------- Iteration      1(   5)  ---------------------------------------


     EDDAV:  cpu time     30.6361: real time     30.8636
 BZINTS: Fermi energy:    6.285470;  160.000000 electrons
         Band energy:-0.205453E+04;  BLOECHL correction:   -0.018330
       DOS:  cpu time      0.1581: real time      0.1587
    CHARGE:  cpu time      0.6992: real time      0.7039
    MIXING:  cpu time      0.0012: real time      0.0012
    --------------------------------------------
      LOOP:  cpu time     31.4946: real time     31.7275

 eigenvalue-minimisations  : 45640
 total energy-change (2. order) :-0.3286190E+00  (-0.3279468E+00)
 number of electron     159.9999985 magnetization       0.0000000
 augmentation part       53.7212983 magnetization       0.0000000

 Broyden mixing:
  rms(total) = 0.25138E+01    rms(broyden)= 0.25136E+01
  rms(prec ) = 0.39226E+01
  weight for this iteration     100.00

 Free energy of the ion-electron system (eV)
  ---------------------------------------------------
  alpha Z        PSCENC =       940.56142696
  Ewald energy   TEWEN  =    -12354.08038179
  -Hartree energ DENC   =     -8312.41750179
  -exchange      EXHF   =         0.00000000
  -V(xc)+E(xc)   XCENC  =       569.02365521
  PAW double counting   =     15529.06034967   -16124.93095651
  entropy T*S    EENTRO =         0.00000000
  eigenvalues    EBANDS =     -2054.52662413
  atomic energy  EATOM  =     21710.84102437
  Solvation  Ediel_sol  =         0.00000000
  ---------------------------------------------------
  free energy    TOTEN  =       -96.46900802 eV

  energy without entropy =      -96.46900802  energy(sigma->0) =      -96.46900802


--------------------------------------------------------------------------------------------------------




--------------------------------------- Iteration      1(   6)  ---------------------------------------


    POTLOK:  cpu time      1.5565: real time      1.5625
    SETDIJ:  cpu time      0.2806: real time      0.2817
    EDDIAG:  cpu time      3.4310: real time      3.4493
  RMM-DIIS:  cpu time     12.5364: real time     12.6065
    ORTHCH:  cpu time      0.5599: real time      0.5626
 BZINTS: Fermi energy:    3.601079;  160.000000 electrons
         Band energy:-0.248231E+04;  BLOECHL correction:   -0.033100
       DOS:  cpu time      0.1609: real time      0.1617
    CHARGE:  cpu time      0.7120: real time      0.7167
    MIXING:  cpu time      0.0013: real time      0.0013
    --------------------------------------------
      LOOP:  cpu time     19.2386: real time     19.3422

 eigenvalue-minimisations  : 34116
 total energy-change (2. order) :-0.1008361E+02  (-0.1293417E+02)
 number of electron     159.9999988 magnetization       0.0000000
 augmentation part       67.8989620 magnetization       0.0000000

 Broyden mixing:
  rms(total) = 0.39754E+01    rms(broyden)= 0.39753E+01
  rms(prec ) = 0.67155E+01
  weight for this iteration     100.00

 eigenvalues of (default mixing * dielectric matrix)
  average eigenvalue GAMMA=   0.3514
  0.3514

 Free energy of the ion-electron system (eV)
  ---------------------------------------------------
  alpha Z        PSCENC =       940.56142696
  Ewald energy   TEWEN  =    -12354.08038179
  -Hartree energ DENC   =     -7911.83150102
  -exchange      EXHF   =         0.00000000
  -V(xc)+E(xc)   XCENC  =       557.30972317
  PAW double counting   =     15136.07007820   -15703.11508398
  entropy T*S    EENTRO =         0.00000000
  eigenvalues    EBANDS =     -2482.30790798
  atomic energy  EATOM  =     21710.84102437
  Solvation  Ediel_sol  =         0.00000000
  ---------------------------------------------------
  free energy    TOTEN  =      -106.55262208 eV

  energy without entropy =     -106.55262208  energy(sigma->0) =     -106.55262208


--------------------------------------------------------------------------------------------------------




--------------------------------------- Iteration      1(   7)  ---------------------------------------


    POTLOK:  cpu time      0.0420: real time      0.0424
    SETDIJ:  cpu time      0.2772: real time      0.2782
    EDDIAG:  cpu time      3.4411: real time      3.4615
  RMM-DIIS:  cpu time     11.8147: real time     11.8839
    ORTHCH:  cpu time      0.5698: real time      0.5725
 BZINTS: Fermi energy:    5.272915;  160.000000 electrons
         Band energy:-0.220079E+04;  BLOECHL correction:   -0.022731
       DOS:  cpu time      0.1676: real time      0.1684
    CHARGE:  cpu time      0.6554: real time      0.6594
    MIXING:  cpu time      0.0013: real time      0.0013
    --------------------------------------------
      LOOP:  cpu time     16.9691: real time     17.0677

 eigenvalue-minimisations  : 32076
 total energy-change (2. order) : 0.1669891E+02  (-0.3208740E+01)
 number of electron     159.9999986 magnetization       0.0000000
 augmentation part       58.2588361 magnetization       0.0000000

 Broyden mixing:
  rms(total) = 0.78994E+00    rms(broyden)= 0.78957E+00
  rms(prec ) = 0.95782E+00
  weight for this iteration     100.00

 eigenvalues of (default mixing * dielectric matrix)
  average eigenvalue GAMMA=   0.4647
  0.6436  0.2859

 Free energy of the ion-electron system (eV)
  ---------------------------------------------------
  alpha Z        PSCENC =       940.56142696
  Ewald energy   TEWEN  =    -12354.08038179
  -Hartree energ DENC   =     -8152.31200265
  -exchange      EXHF   =         0.00000000
  -V(xc)+E(xc)   XCENC  =       562.33089076
  PAW double counting   =     15578.21782273   -16174.62163464
  entropy T*S    EENTRO =         0.00000000
  eigenvalues    EBANDS =     -2200.79085315
  atomic energy  EATOM  =     21710.84102437
  Solvation  Ediel_sol  =         0.00000000
  ---------------------------------------------------
  free energy    TOTEN  =       -89.85370741 eV

  energy without entropy =      -89.85370741  energy(sigma->0) =      -89.85370741


--------------------------------------------------------------------------------------------------------




--------------------------------------- Iteration      1(   8)  ---------------------------------------


    POTLOK:  cpu time      0.0457: real time      0.0951
    SETDIJ:  cpu time      0.2755: real time      0.2765
    EDDIAG:  cpu time      3.4383: real time      3.4570
  RMM-DIIS:  cpu time     17.1222: real time     17.2219
    ORTHCH:  cpu time      0.5805: real time      0.5834
 BZINTS: Fermi energy:    5.266287;  160.000000 electrons
         Band energy:-0.220554E+04;  BLOECHL correction:   -0.021670
       DOS:  cpu time      0.1781: real time      0.1788
    CHARGE:  cpu time      0.6401: real time      0.6436
    MIXING:  cpu time      0.0013: real time      0.0013
    --------------------------------------------
      LOOP:  cpu time     22.2816: real time     22.4577

 eigenvalue-minimisations  : 46502
 total energy-change (2. order) :-0.3563236E+00  (-0.3137371E+00)
 number of electron     159.9999986 magnetization      -0.0000000
 augmentation part       58.6305791 magnetization      -0.0000000

 Broyden mixing:
  rms(total) = 0.33078E+00    rms(broyden)= 0.33057E+00
  rms(prec ) = 0.44274E+00
  weight for this iteration     100.00

 eigenvalues of (default mixing * dielectric matrix)
  average eigenvalue GAMMA=   0.7438
  0.3393  0.9460  0.9460

 Free energy of the ion-electron system (eV)
  ---------------------------------------------------
  alpha Z        PSCENC =       940.56142696
  Ewald energy   TEWEN  =    -12354.08038179
  -Hartree energ DENC   =     -8140.63370387
  -exchange      EXHF   =         0.00000000
  -V(xc)+E(xc)   XCENC  =       562.54031285
  PAW double counting   =     15675.86736012   -16279.76720053
  entropy T*S    EENTRO =         0.00000000
  eigenvalues    EBANDS =     -2205.53886917
  atomic energy  EATOM  =     21710.84102437
  Solvation  Ediel_sol  =         0.00000000
  ---------------------------------------------------
  free energy    TOTEN  =       -90.21003105 eV

  energy without entropy =      -90.21003105  energy(sigma->0) =      -90.21003105


--------------------------------------------------------------------------------------------------------




--------------------------------------- Iteration      1(   9)  ---------------------------------------


    POTLOK:  cpu time      0.0393: real time      0.0396
    SETDIJ:  cpu time      0.2728: real time      0.2738
    EDDIAG:  cpu time      3.4787: real time      3.4985
  RMM-DIIS:  cpu time     19.1659: real time     19.2759
    ORTHCH:  cpu time      0.5549: real time      0.5576
 BZINTS: Fermi energy:    5.243248;  160.000000 electrons
         Band energy:-0.221027E+04;  BLOECHL correction:   -0.019243
       DOS:  cpu time      0.1553: real time      0.1561
    CHARGE:  cpu time      0.6475: real time      0.6510
    MIXING:  cpu time      0.0013: real time      0.0013
    --------------------------------------------
      LOOP:  cpu time     24.3157: real time     24.4538

 eigenvalue-minimisations  : 53008
 total energy-change (2. order) :-0.5336800E-01  (-0.6861459E-01)
 number of electron     159.9999985 magnetization      -0.0000000
 augmentation part       58.8096492 magnetization      -0.0000000

 Broyden mixing:
  rms(total) = 0.18897E+00    rms(broyden)= 0.18881E+00
  rms(prec ) = 0.24046E+00
  weight for this iteration     100.00

 eigenvalues of (default mixing * dielectric matrix)
  average eigenvalue GAMMA=   0.9430
  0.3364  1.5977  1.0651  0.7727

 Free energy of the ion-electron system (eV)
  ---------------------------------------------------
  alpha Z        PSCENC =       940.56142696
  Ewald energy   TEWEN  =    -12354.08038179
  -Hartree energ DENC   =     -8130.30861822
  -exchange      EXHF   =         0.00000000
  -V(xc)+E(xc)   XCENC  =       562.65917114
  PAW double counting   =     15777.52652221   -16387.19134380
  entropy T*S    EENTRO =         0.00000000
  eigenvalues    EBANDS =     -2210.27119993
  atomic energy  EATOM  =     21710.84102437
  Solvation  Ediel_sol  =         0.00000000
  ---------------------------------------------------
  free energy    TOTEN  =       -90.26339905 eV

  energy without entropy =      -90.26339905  energy(sigma->0) =      -90.26339905


--------------------------------------------------------------------------------------------------------




--------------------------------------- Iteration      1(  10)  ---------------------------------------


    POTLOK:  cpu time      0.0425: real time      0.0429
    SETDIJ:  cpu time      0.2745: real time      0.2756
    EDDIAG:  cpu time      3.4563: real time      3.4767
  RMM-DIIS:  cpu time     19.6952: real time     19.8031
    ORTHCH:  cpu time      0.5852: real time      0.5880
 BZINTS: Fermi energy:    5.218836;  160.000000 electrons
         Band energy:-0.221276E+04;  BLOECHL correction:   -0.018206
       DOS:  cpu time      0.1636: real time      0.1644
    CHARGE:  cpu time      0.6267: real time      0.6297
    MIXING:  cpu time      0.0014: real time      0.0014
    --------------------------------------------
      LOOP:  cpu time     24.8455: real time     24.9819

 eigenvalue-minimisations  : 51479
 total energy-change (2. order) : 0.1287170E-03  (-0.1492552E-01)
 number of electron     159.9999985 magnetization      -0.0000000
 augmentation part       58.9883290 magnetization      -0.0000000

 Broyden mixing:
  rms(total) = 0.79518E-01    rms(broyden)= 0.79409E-01
  rms(prec ) = 0.90193E-01
  weight for this iteration     100.00

 eigenvalues of (default mixing * dielectric matrix)
  average eigenvalue GAMMA=   1.0821
  2.4270  0.3360  0.9848  0.9848  0.6781

 Free energy of the ion-electron system (eV)
  ---------------------------------------------------
  alpha Z        PSCENC =       940.56142696
  Ewald energy   TEWEN  =    -12354.08038179
  -Hartree energ DENC   =     -8123.91998111
  -exchange      EXHF   =         0.00000000
  -V(xc)+E(xc)   XCENC  =       562.75654689
  PAW double counting   =     15865.30437190   -16478.96666710
  entropy T*S    EENTRO =         0.00000000
  eigenvalues    EBANDS =     -2212.75961045
  atomic energy  EATOM  =     21710.84102437
  Solvation  Ediel_sol  =         0.00000000
  ---------------------------------------------------
  free energy    TOTEN  =       -90.26327033 eV

  energy without entropy =      -90.26327033  energy(sigma->0) =      -90.26327033


--------------------------------------------------------------------------------------------------------




--------------------------------------- Iteration      1(  11)  ---------------------------------------


    POTLOK:  cpu time      0.0414: real time      0.0927
    SETDIJ:  cpu time      0.2742: real time      0.2754
    EDDIAG:  cpu time      3.5001: real time      3.5206
  RMM-DIIS:  cpu time     18.6637: real time     18.7719
    ORTHCH:  cpu time      0.5677: real time      0.5704
 BZINTS: Fermi energy:    5.225641;  160.000000 electrons
         Band energy:-0.221229E+04;  BLOECHL correction:   -0.018491
       DOS:  cpu time      0.1556: real time      0.1562
    CHARGE:  cpu time      0.6374: real time      0.6407
    MIXING:  cpu time      0.0014: real time      0.0014
    --------------------------------------------
      LOOP:  cpu time     23.8416: real time     24.0293

 eigenvalue-minimisations  : 50354
 total energy-change (2. order) :-0.7271580E-02  (-0.2855963E-02)
 number of electron     159.9999985 magnetization       0.0000000
 augmentation part       58.9868252 magnetization       0.0000000

 Broyden mixing:
  rms(total) = 0.30229E-01    rms(broyden)= 0.30201E-01
  rms(prec ) = 0.36407E-01
  weight for this iteration     100.00

 eigenvalues of (default mixing * dielectric matrix)
  average eigenvalue GAMMA=   1.1229
  2.4668  1.4210  0.3360  1.0527  0.8242  0.6364

 Free energy of the ion-electron system (eV)
  ---------------------------------------------------
  alpha Z        PSCENC =       940.56142696
  Ewald energy   TEWEN  =    -12354.08038179
  -Hartree energ DENC   =     -8122.79542323
  -exchange      EXHF   =         0.00000000
  -V(xc)+E(xc)   XCENC  =       562.80689856
  PAW double counting   =     15912.69995923   -16528.01572476
  entropy T*S    EENTRO =         0.00000000
  eigenvalues    EBANDS =     -2212.28832124
  atomic energy  EATOM  =     21710.84102437
  Solvation  Ediel_sol  =         0.00000000
  ---------------------------------------------------
  free energy    TOTEN  =       -90.27054191 eV

  energy without entropy =      -90.27054191  energy(sigma->0) =      -90.27054191


--------------------------------------------------------------------------------------------------------




--------------------------------------- Iteration      1(  12)  ---------------------------------------


    POTLOK:  cpu time      0.0438: real time      0.0442
    SETDIJ:  cpu time      0.2706: real time      0.2719
    EDDIAG:  cpu time      3.3371: real time      3.3554
  RMM-DIIS:  cpu time     17.3158: real time     17.4167
    ORTHCH:  cpu time      0.5848: real time      0.5879
 BZINTS: Fermi energy:    5.231341;  160.000000 electrons
         Band energy:-0.221178E+04;  BLOECHL correction:   -0.018701
       DOS:  cpu time      0.1691: real time      0.1698
    CHARGE:  cpu time      0.6674: real time      0.6711
    MIXING:  cpu time      0.0013: real time      0.0013
    --------------------------------------------
      LOOP:  cpu time     22.3899: real time     22.5183

 eigenvalue-minimisations  : 46666
 total energy-change (2. order) :-0.2128451E-02  (-0.6645327E-03)
 number of electron     159.9999985 magnetization       0.0000000
 augmentation part       58.9746918 magnetization       0.0000000

 Broyden mixing:
  rms(total) = 0.11482E-01    rms(broyden)= 0.11473E-01
  rms(prec ) = 0.14926E-01
  weight for this iteration     100.00

 eigenvalues of (default mixing * dielectric matrix)
  average eigenvalue GAMMA=   1.1203
  2.4837  1.5760  0.3360  1.0307  1.0307  0.7561  0.6291

 Free energy of the ion-electron system (eV)
  ---------------------------------------------------
  alpha Z        PSCENC =       940.56142696
  Ewald energy   TEWEN  =    -12354.08038179
  -Hartree energ DENC   =     -8123.48889428
  -exchange      EXHF   =         0.00000000
  -V(xc)+E(xc)   XCENC  =       562.79904960
  PAW double counting   =     15914.82271486   -16529.94476404
  entropy T*S    EENTRO =         0.00000000
  eigenvalues    EBANDS =     -2211.78284605
  atomic energy  EATOM  =     21710.84102437
  Solvation  Ediel_sol  =         0.00000000
  ---------------------------------------------------
  free energy    TOTEN  =       -90.27267037 eV

  energy without entropy =      -90.27267037  energy(sigma->0) =      -90.27267037


--------------------------------------------------------------------------------------------------------




--------------------------------------- Iteration      1(  13)  ---------------------------------------


    POTLOK:  cpu time      0.0565: real time      0.0569
    SETDIJ:  cpu time      0.2754: real time      0.2764
    EDDIAG:  cpu time      3.5098: real time      3.5301
  RMM-DIIS:  cpu time     12.6605: real time     12.7300
    ORTHCH:  cpu time      0.5678: real time      0.5705
 BZINTS: Fermi energy:    5.233607;  160.000000 electrons
         Band energy:-0.221150E+04;  BLOECHL correction:   -0.018605
       DOS:  cpu time      0.1498: real time      0.1503
    --------------------------------------------
      LOOP:  cpu time     17.2198: real time     17.3142

 eigenvalue-minimisations  : 31508
 total energy-change (2. order) : 0.1520476E-03  (-0.1298366E-03)
 number of electron     159.9999985 magnetization       0.0000000
 augmentation part       58.9746918 magnetization       0.0000000

 Free energy of the ion-electron system (eV)
  ---------------------------------------------------
  alpha Z        PSCENC =       940.56142696
  Ewald energy   TEWEN  =    -12354.08038179
  -Hartree energ DENC   =     -8124.08827754
  -exchange      EXHF   =         0.00000000
  -V(xc)+E(xc)   XCENC  =       562.80778368
  PAW double counting   =     15912.58080747   -16527.39730787
  entropy T*S    EENTRO =         0.00000000
  eigenvalues    EBANDS =     -2211.49759360
  atomic energy  EATOM  =     21710.84102437
  Solvation  Ediel_sol  =         0.00000000
  ---------------------------------------------------
  free energy    TOTEN  =       -90.27251832 eV

  energy without entropy =      -90.27251832  energy(sigma->0) =      -90.27251832


--------------------------------------------------------------------------------------------------------




 average (electrostatic) potential at core
  the test charge radii are     0.9500  1.0808
  (the norm of the test charge is              1.0000)
       1 -45.8191       2 -45.8191       3 -45.8191       4 -45.8191       5 -45.8191
       6 -45.8191       7 -45.8191       8 -45.8191       9 -53.8861      10 -53.8861
      11 -53.8861      12 -53.8861      13 -53.8861      14 -53.8861      15 -53.8861
      16 -53.8861
 
 
 
 E-fermi :   5.2336     XC(G=0): -11.2277     alpha+bet :-10.7768

 Fermi energy:         5.2336067436

 spin component 1

 k-point     1 :       0.0000    0.0000    0.0000
  band No.  band energies     occupation 
      1     -49.2941      1.00000
      2     -49.2836      1.00000
      3     -49.2682      1.00000
      4     -49.2682      1.00000
      5     -49.2595      1.00000
      6     -49.1396      1.00000
      7     -49.1300      1.00000
      8     -49.1300      1.00000
      9     -49.1153      1.00000
     10     -49.0695      1.00000
     11     -49.0695      1.00000
     12     -48.8401      1.00000
     13     -46.8046      1.00000
     14     -46.7977      1.00000
     15     -46.7941      1.00000
     16     -46.7941      1.00000
     17     -46.7929      1.00000
     18     -46.5594      1.00000
     19     -46.5594      1.00000
     20     -46.4064      1.00000
     21     -46.4064      1.00000
     22     -46.4060      1.00000
     23     -46.4018      1.00000
     24     -46.3084      1.00000
     25     -10.1581      1.00000
     26      -8.4684      1.00000
     27      -8.4684      1.00000
     28      -8.4554      1.00000
     29      -8.4554      1.00000
     30      -8.2162      1.00000
     31      -7.6372      1.00000
     32      -7.2660      1.00000
     33      -1.4773      1.00000
     34      -1.4391      1.00000
     35      -0.5020      1.00000
     36      -0.5020      1.00000
     37      -0.4183      1.00000
     38      -0.4183      1.00000
     39      -0.3585      1.00000
     40       0.3859      1.00000
     41       0.8133      1.00000
     42       0.8723      1.00000
     43       1.1128      1.00000
     44       1.2385      1.00000
     45       1.2385      1.00000
     46       1.2553      1.00000
     47       1.2553      1.00000
     48       1.2988      1.00000
     49       1.4483      1.00000
     50       1.7490      1.00000
     51       1.7490      1.00000
     52       2.1429      1.00000
     53       2.1429      1.00000
     54       2.2752      1.00000
     55       2.5398      1.00000
     56       2.7002      1.00000
     57       2.8381      1.00000
     58       2.8509      1.00000
     59       2.9269      1.00000
     60       2.9269      1.00000
     61       2.9398      1.00000
     62       2.9398      1.00000
     63       2.9643      1.00000
     64       3.2614      1.00000
     65       3.4158      1.00000
     66       3.5220      1.00000
     67       3.5220      1.00000
     68       3.6736      1.00000
     69       3.8695      1.00000
     70       3.9150      1.00000
     71       3.9529      1.00000
     72       3.9529      1.00000
     73       4.4600      1.00000
     74       4.4600      1.00000
     75       4.5420      1.00000
     76       4.5420      1.00000
     77       4.5843      1.00000
     78       4.8437      1.00000
     79       4.9523      1.00000
     80       4.9644      1.05453
     81       5.6458      0.00000
     82       5.6458      0.00000
     83       5.6710      0.00000
     84       5.6710      0.00000
     85       5.7203      0.00000
     86       5.7457      0.00000
     87       6.0557      0.00000
     88       6.0557      0.00000
     89       6.0984      0.00000
     90       6.0984      0.00000
     91       6.1263      0.00000
     92       6.5842      0.00000
     93       6.6814      0.00000
     94       6.6872      0.00000
     95       6.7530      0.00000
     96       6.8405      0.00000
     97       7.4339      0.00000
     98       7.4399      0.00000
[...]
  0.000  -0.000  -0.000  -0.000   0.000   0.000  -0.046  -0.000
  0.000  -0.000  -0.000  -0.000   0.000   0.000  -0.000  -0.096
  0.000  -0.000   0.000  -0.000   0.000  -0.000  -0.302  -0.000
  0.000  -0.000  -0.000  -0.000   0.000   0.000  -0.000  -0.350
 -0.000   0.000  -0.000   0.000  -0.000   0.000  -0.000   0.008
 -0.000   0.000   0.000   0.000  -0.000  -0.000   0.010   0.000
 -0.000   0.000   0.000   0.000  -0.000  -0.000   0.000   0.022
  0.000   0.000   0.000  -0.000  -0.000  -0.000   0.000  -0.006
 -0.000  -0.000  -0.000   0.000   0.000   0.000  -0.000   0.001
 pseudopotential strength for first ion, spin component:           2
-51.987   0.116  -0.000  25.917  -0.085   0.000  -0.000  -0.000
  0.116 -52.006   0.000  -0.085  25.931  -0.000   0.000   0.000
 -0.000   0.000 -51.960   0.000  -0.000  25.888  -0.000   0.000
 25.917  -0.085   0.000  -8.424   0.061  -0.000   0.000   0.000
 -0.085  25.931  -0.000   0.061  -8.434   0.000  -0.000  -0.000
  0.000  -0.000  25.888  -0.000   0.000  -8.406   0.000  -0.000
 -0.000   0.000  -0.000   0.000  -0.000   0.000  -5.926   0.000
 -0.000   0.000   0.000   0.000  -0.000  -0.000   0.000  -6.269
  0.000  -0.000   0.000  -0.000   0.000  -0.000   0.000   0.106
  0.000  -0.000  -0.000  -0.000   0.000   0.000   0.124  -0.000
  0.000  -0.000  -0.000  -0.000   0.000   0.000  -0.000   0.014
  0.000  -0.000   0.000  -0.000   0.000  -0.000  -0.761  -0.000
  0.000  -0.000  -0.000  -0.000  -0.000   0.000  -0.000  -0.681
 -0.000   0.000  -0.000   0.000  -0.000   0.000  -0.000  -0.023
 -0.000   0.000   0.000   0.000  -0.000  -0.000  -0.027   0.000
 -0.000   0.000   0.000   0.000  -0.000  -0.000   0.000  -0.005
  0.000   0.000   0.000  -0.000  -0.000  -0.000   0.000  -0.016
 -0.000  -0.000  -0.000   0.000   0.000   0.000  -0.000   0.004
 total augmentation occupancy for first ion, spin component:           1
  2.013  -0.018   0.000   0.062  -0.044  -0.000  -0.000   0.000   0.000   0.000  -0.000   0.000  -0.000   0.000  -0.000  -0.000
 -0.018   2.017   0.000  -0.044   0.072   0.000   0.000   0.000   0.000   0.000   0.000   0.000  -0.000   0.000  -0.000   0.000
 -0.000   0.000   2.014   0.000  -0.000   0.061  -0.000   0.000   0.000   0.000   0.000   0.000   0.000   0.000  -0.000   0.000
  0.062  -0.044   0.000   0.205  -0.104   0.000   0.000   0.000   0.000  -0.000  -0.000  -0.000  -0.000  -0.000  -0.000   0.000
 -0.044   0.072  -0.000  -0.104   0.229   0.000   0.000   0.000   0.000   0.000   0.000   0.000   0.000   0.000  -0.000   0.000
 -0.000   0.000   0.061   0.000  -0.000   0.194  -0.000   0.000  -0.000   0.000   0.000   0.000  -0.000   0.000  -0.000  -0.000
 -0.000   0.000  -0.000   0.000   0.000  -0.000   1.284   0.000  -0.000  -0.109   0.000  -0.030   0.000  -0.000  -0.064   0.000
  0.000  -0.000   0.000  -0.000  -0.000  -0.000  -0.000   1.485  -0.006   0.000  -0.085  -0.000   0.127  -0.157   0.000   0.093
 -0.000   0.000   0.000   0.000  -0.000  -0.000   0.000  -0.006   1.311  -0.000  -0.131  -0.000  -0.158   0.125  -0.000  -0.081
  0.000   0.000   0.000  -0.000   0.000   0.000  -0.109  -0.000  -0.000   1.302   0.000  -0.065   0.000   0.000   0.004  -0.000
  0.000   0.000   0.000   0.000   0.000   0.000   0.000  -0.085  -0.131   0.000   1.502   0.000   0.097  -0.079  -0.000   0.213
  0.000   0.000   0.000  -0.000   0.000   0.000  -0.030   0.000   0.000  -0.065   0.000   0.185   0.000   0.000  -0.024   0.000
  0.000  -0.000  -0.000   0.000  -0.000  -0.000   0.000   0.127  -0.158   0.000   0.097   0.000   0.263  -0.082  -0.000   0.093
  0.000  -0.000   0.000   0.000   0.000   0.000   0.000  -0.157   0.125   0.000  -0.079   0.000  -0.082   0.185   0.000  -0.024
  0.000   0.000   0.000  -0.000  -0.000   0.000  -0.064   0.000  -0.000   0.004  -0.000  -0.024   0.000  -0.000   0.175  -0.000
 -0.000   0.000   0.000  -0.000  -0.000  -0.000   0.000   0.093  -0.081  -0.000   0.213   0.000   0.093  -0.024   0.000   0.154
  0.000   0.000   0.000   0.000   0.000   0.000  -0.000  -0.001  -0.050   0.000   0.098   0.000  -0.316   0.023  -0.000   0.004
  0.000  -0.000   0.000   0.000   0.000   0.000   0.000  -0.003   0.017  -0.000  -0.012  -0.000   0.024  -0.005  -0.000   0.003
 total augmentation occupancy for first ion, spin component:           2
 -0.005  -0.000  -0.000  -0.002  -0.001   0.000  -0.000  -0.000  -0.000   0.000   0.000  -0.000  -0.000  -0.000   0.000   0.000
 -0.000  -0.007   0.000  -0.001  -0.007   0.000   0.000   0.000   0.000  -0.000   0.000   0.000  -0.000  -0.000   0.000   0.000
 -0.000  -0.000  -0.007   0.000  -0.000  -0.004   0.000   0.000  -0.000   0.000   0.000   0.000   0.000  -0.000   0.000  -0.000
 -0.002  -0.001   0.000   0.014  -0.002   0.000   0.000  -0.000  -0.000  -0.000   0.000   0.000   0.000   0.000   0.000   0.000
 -0.001  -0.007   0.000  -0.002   0.002   0.000   0.000  -0.000  -0.000  -0.000  -0.000   0.000   0.000   0.000  -0.000   0.000
  0.000   0.000  -0.004  -0.000  -0.000   0.013  -0.000   0.000   0.000   0.000   0.000   0.000   0.000  -0.000   0.000   0.000
 -0.000  -0.000  -0.000  -0.000   0.000  -0.000   0.659   0.000   0.000   0.133   0.000  -0.268   0.000  -0.000   0.000  -0.000
 -0.000   0.000   0.000  -0.000  -0.000  -0.000  -0.000   0.343   0.113  -0.000   0.040  -0.000  -0.176  -0.013   0.000  -0.025
  0.000   0.000  -0.000  -0.000  -0.000   0.000  -0.000   0.113   0.498  -0.000   0.162  -0.000  -0.010  -0.194  -0.000  -0.020
  0.000  -0.000   0.000  -0.000  -0.000   0.000   0.133  -0.000   0.000   0.615  -0.000   0.002   0.000  -0.000  -0.258  -0.000
 -0.000   0.000   0.000   0.000   0.000   0.000  -0.000   0.040   0.162  -0.000   0.231   0.000  -0.012  -0.013   0.000  -0.138
 -0.000   0.000   0.000   0.000   0.000   0.000  -0.268   0.000  -0.000   0.002   0.000   0.051  -0.000   0.000   0.008   0.000
  0.000  -0.000  -0.000   0.000  -0.000   0.000  -0.000  -0.176  -0.010  -0.000  -0.012  -0.000   0.001   0.026   0.000  -0.003
 -0.000   0.000  -0.000   0.000   0.000  -0.000   0.000  -0.013  -0.194  -0.000  -0.013   0.000   0.026  -0.003  -0.000   0.004
  0.000   0.000  -0.000   0.000  -0.000  -0.000   0.000   0.000   0.000  -0.258   0.000   0.008   0.000  -0.000   0.031   0.000
  0.000   0.000   0.000   0.000  -0.000   0.000   0.000  -0.025  -0.020  -0.000  -0.138   0.000  -0.003   0.004  -0.000  -0.024
  0.000  -0.000   0.000   0.000  -0.000   0.000  -0.000   0.103   0.031  -0.000  -0.050  -0.000  -0.025   0.000  -0.000  -0.020
  0.000  -0.000   0.000  -0.000  -0.000  -0.000   0.000   0.019   0.013   0.000  -0.014  -0.000  -0.002  -0.002   0.000   0.000


------------------------ aborting loop because EDIFF is reached ----------------------------------------





 total charge

# of ion       s       p       d       tot
------------------------------------------
    1        0.355   6.318   6.141  12.815
    2        0.355   6.318   6.141  12.815
    3        0.355   6.318   6.141  12.815
    4        0.355   6.318   6.141  12.815
    5        0.355   6.318   6.141  12.815
    6        0.355   6.318   6.141  12.815
    7        0.355   6.318   6.141  12.815
    8        0.355   6.318   6.141  12.815
    9        1.498   2.256   0.075   3.830
   10        1.498   2.256   0.075   3.830
   11        1.498   2.256   0.075   3.830
   12        1.498   2.256   0.075   3.830
   13        1.498   2.256   0.075   3.830
   14        1.498   2.256   0.075   3.830
   15        1.498   2.256   0.075   3.830
   16        1.498   2.256   0.075   3.830
--------------------------------------------------
tot         14.828  68.595  49.733 133.156



 magnetization (x)

# of ion       s       p       d       tot
------------------------------------------
    1        0.023   0.015   2.289   2.327
    2       -0.023  -0.015  -2.289  -2.327
    3       -0.023  -0.015  -2.289  -2.327
    4        0.023   0.015   2.289   2.327
    5        0.023   0.015   2.289   2.327
    6       -0.023  -0.015  -2.289  -2.327
    7       -0.023  -0.015  -2.289  -2.327
    8        0.023   0.015   2.289   2.327
    9        0.000   0.000   0.000   0.000
   10        0.000   0.000   0.000   0.000
   11        0.000   0.000   0.000   0.000
   12        0.000   0.000   0.000   0.000
   13        0.000   0.000   0.000   0.000
   14        0.000   0.000   0.000   0.000
   15        0.000   0.000   0.000   0.000
   16        0.000   0.000   0.000   0.000
--------------------------------------------------
tot          0.000   0.000  -0.000  -0.000
 
    CHARGE:  cpu time      0.6752: real time      0.6793
    FORLOC:  cpu time      0.0025: real time      0.0025
    FORNL :  cpu time      5.4207: real time      5.4513
    STRESS:  cpu time     16.1018: real time     16.1874
    FORCOR:  cpu time      0.0394: real time      0.0395
    FORHAR:  cpu time      0.0056: real time      0.0057
    MIXING:  cpu time      0.0014: real time      0.0014
    OFIELD:  cpu time      0.0000: real time      0.0000
    FORVDW:  cpu time      1.0991: real time      1.1032

  FORCE on cell =-STRESS in cart. coord.  units (eV):
  Direction    XX          YY          ZZ          XY          YZ          ZX
  --------------------------------------------------------------------------------------
  Alpha Z   940.56143   940.56143   940.56143
  Ewald   -1676.55407 -2576.55565 -8100.99680    -0.00000    -0.00000     0.00000
  Hartree  4913.74537  4168.69662  -958.31999    -0.00000     0.00000    -0.00000
  E(xc)    -899.13461  -901.77952  -900.82592    -0.00000     0.00000     0.00000
  Local   -5222.82307 -3597.29220  7088.37171    -0.00000     0.00000     0.00000
  n-local  -279.70244  -252.30959  -245.41171    -0.60510    -0.51726    -0.78056
  augment   526.04244   513.33683   511.09113    -0.00000     0.00000    -0.00000
  Kinetic  1713.76764  1719.41480  1682.09034     4.08959     0.05820     0.80642
  Fock        0.00000     0.00000     0.00000     0.00000     0.00000     0.00000
  vdW        -5.87235    -4.62555    -6.80122    -0.00000     0.00000     0.00000
  -------------------------------------------------------------------------------------
  Total      10.03034     9.44717     9.75897    -0.00000     0.00000     0.00000
  in kB      59.51994    56.05941    57.90961    -0.00000     0.00000     0.00000
  external pressure =       57.83 kB  Pullay stress =        0.00 kB


 VOLUME and BASIS-vectors are now :
 -----------------------------------------------------------------------------
  energy-cutoff  :      550.00
  volume of cell :      270.00
      direct lattice vectors                 reciprocal lattice vectors
     4.672480970 -5.471796129  0.000000000     0.107009532 -0.091377673  0.000000000
     4.672480970  5.471796129  0.000000000     0.107009532  0.091377673  0.000000000
     0.000000000  0.000000000  5.280272300     0.000000000  0.000000000  0.189384172

  length of vectors
     7.195320097  7.195320097  5.280272300     0.140715738  0.140715738  0.189384172


 FORCES acting on ions
    electron-ion (+dipol)            ewald-force                    non-local-force                 convergence-correction
 -----------------------------------------------------------------------------------------------
   -.307E-12 0.235E-13 0.324E-13   0.568E-13 -.711E-14 -.497E-13   -.161E-20 -.195E-21 -.273E-23   -.766E-13 0.171E-12 0.269E-12
   0.886E-12 0.143E-11 0.419E-13   0.557E-13 -.711E-14 -.213E-13   0.807E-21 0.230E-21 0.117E-20   -.472E-12 0.103E-12 0.278E-12
   0.914E-12 0.515E-12 0.343E-10   0.569E-13 0.000E+00 -.142E-13   -.759E-21 -.857E-22 -.591E-21   0.418E-14 -.235E-13 -.253E-12
   0.708E-11 0.966E-11 0.154E-10   0.568E-13 -.355E-14 -.426E-13   0.118E-20 -.985E-22 -.265E-21   -.602E-13 -.325E-12 0.241E-12
   0.479E-11 0.424E-11 0.721E-11   0.534E-13 -.355E-14 0.284E-13   -.286E-21 0.543E-21 -.839E-22   0.614E-12 0.494E-12 -.462E-13
   -.414E-12 -.335E-11 0.774E-11   0.568E-13 0.107E-13 0.426E-13   0.662E-21 0.300E-21 -.676E-21   -.563E-12 -.556E-12 -.292E-12
   -.204E-10 -.256E-10 -.454E-10   0.568E-13 -.107E-13 0.426E-13   -.107E-20 -.513E-21 0.579E-21   0.710E-12 0.914E-12 0.702E-12
   0.158E-11 0.446E-11 -.439E-10   0.727E-13 0.000E+00 0.142E-13   0.141E-20 0.302E-21 0.740E-22   -.866E-12 -.503E-12 0.830E-12
   -.781E-07 0.294E-11 0.287E+03   -.646E-13 0.142E-13 -.287E+03   -.723E-18 0.488E-17 0.807E+00   0.199E-12 0.717E-13 0.116E-01
   -.781E-07 -.713E-12 0.287E+03   -.568E-13 0.140E-13 -.287E+03   0.164E-18 -.874E-17 0.807E+00   -.121E-12 -.165E-12 0.116E-01
   -.781E-07 0.539E-11 0.287E+03   -.568E-13 0.710E-14 -.287E+03   -.205E-17 -.305E-17 0.807E+00   0.169E-12 0.177E-12 0.116E-01
   -.781E-07 -.529E-12 0.287E+03   -.571E-13 0.711E-14 -.287E+03   -.993E-18 0.367E-17 0.807E+00   -.218E-12 -.170E-12 0.116E-01
   0.781E-07 -.499E-12 -.287E+03   -.587E-13 0.437E-16 0.287E+03   0.518E-18 -.465E-17 -.807E+00   0.834E-13 0.140E-12 -.116E-01
   0.781E-07 0.251E-12 -.287E+03   -.559E-13 0.265E-14 0.287E+03   0.145E-17 0.753E-17 -.807E+00   -.138E-12 -.590E-13 -.116E-01
   0.781E-07 -.308E-13 -.287E+03   -.581E-13 0.475E-14 0.287E+03   0.672E-18 -.127E-17 -.807E+00   0.184E-12 0.821E-13 -.116E-01
   0.781E-07 -.877E-12 -.287E+03   -.544E-13 -.703E-14 0.287E+03   0.400E-18 -.177E-18 -.807E+00   -.106E-12 -.145E-12 -.116E-01
 -----------------------------------------------------------------------------------------------
   -.116E-10 -.267E-11 -.273E-10   0.361E-14 0.215E-13 0.398E-12   -.563E-18 -.181E-17 -.222E-15   -.656E-12 0.205E-12 0.132E-11
 
 
 POSITION                                       TOTAL-FORCE (eV/Angst)
 -----------------------------------------------------------------------------------
      0.00000      0.00000      0.00000         0.000000      0.000000     -0.000000
      2.33624      2.73590      0.00000         0.000000      0.000000     -0.000000
      2.33624     -2.73590      0.00000         0.000000      0.000000     -0.000000
      4.67248      0.00000      0.00000         0.000000      0.000000     -0.000000
      2.33624      0.00000      0.00000         0.000000      0.000000     -0.000000
      4.67248      2.73590      0.00000         0.000000      0.000000     -0.000000
      4.67248     -2.73590      0.00000         0.000000      0.000000     -0.000000
      7.00872     -0.00000      0.00000         0.000000      0.000000     -0.000000
      2.33624     -1.36795      3.46595         0.000000     -0.000000     -0.070343
      4.67248      1.36795      3.46595        -0.000000     -0.000000     -0.070343
      4.67248     -4.10385      3.46595         0.000000      0.000000     -0.070343
      7.00872     -1.36795      3.46595        -0.000000      0.000000     -0.070343
      2.33624      1.36795      1.81432         0.000000      0.000000      0.070343
      4.67248      4.10385      1.81432         0.000000      0.000000      0.070343
      4.67248     -1.36795      1.81432        -0.000000     -0.000000      0.070343
      7.00872      1.36795      1.81432         0.000000      0.000000      0.070343
 -----------------------------------------------------------------------------------
    total drift:                               -0.000000     -0.000000     -0.000000


--------------------------------------------------------------------------------------------------------



  FREE ENERGIE OF THE ION-ELECTRON SYSTEM (eV)
  ---------------------------------------------------
  free  energy   TOTEN  =       -98.02250018 eV

  energy  without entropy=      -98.02250018  energy(sigma->0) =      -98.02250018
 


--------------------------------------------------------------------------------------------------------


    POTLOK:  cpu time      0.3134: real time      0.3252


--------------------------------------------------------------------------------------------------------


     LOOP+:  cpu time    335.4688: real time    337.7699
 -----------------------------------------------------------------------------
|                                                                             |
|           W    W    AA    RRRRR   N    N  II  N    N   GGGG   !!!           |
|           W    W   A  A   R    R  NN   N  II  NN   N  G    G  !!!           |
|           W    W  A    A  R    R  N N  N  II  N N  N  G       !!!           |
|           W WW W  AAAAAA  RRRRR   N  N N  II  N  N N  G  GGG   !            |
|           WW  WW  A    A  R   R   N   NN  II  N   NN  G    G                |
|           W    W  A    A  R    R  N    N  II  N    N   GGGG   !!!           |
|                                                                             |
|     Tetrahedron method does not include variations of the Fermi             |
|     occupations, so forces and stress will be inaccurate. We suggest        |
|     using a different smearing scheme ISMEAR = 1 or 2 for metals in         |
|     relaxations.                                                            |
|                                                                             |
 -----------------------------------------------------------------------------

    4ORBIT:  cpu time      0.0000: real time      0.0000



 total charge

# of ion       s       p       d       tot
------------------------------------------
    1        0.355   6.318   6.141  12.815
    2        0.355   6.318   6.141  12.815
    3        0.355   6.318   6.141  12.815
    4        0.355   6.318   6.141  12.815
    5        0.355   6.318   6.141  12.815
    6        0.355   6.318   6.141  12.815
    7        0.355   6.318   6.141  12.815
    8        0.355   6.318   6.141  12.815
    9        1.498   2.256   0.075   3.830
   10        1.498   2.256   0.075   3.830
   11        1.498   2.256   0.075   3.830
   12        1.498   2.256   0.075   3.830
   13        1.498   2.256   0.075   3.830
   14        1.498   2.256   0.075   3.830
   15        1.498   2.256   0.075   3.830
   16        1.498   2.256   0.075   3.830
--------------------------------------------------
tot         14.828  68.595  49.733 133.156



 magnetization (x)

# of ion       s       p       d       tot
------------------------------------------
    1        0.023   0.015   2.289   2.327
    2       -0.023  -0.015  -2.289  -2.327
    3       -0.023  -0.015  -2.289  -2.327
    4        0.023   0.015   2.289   2.327
    5        0.023   0.015   2.289   2.327
    6       -0.023  -0.015  -2.289  -2.327
    7       -0.023  -0.015  -2.289  -2.327
    8        0.023   0.015   2.289   2.327
    9        0.000   0.000   0.000   0.000
   10        0.000   0.000   0.000   0.000
   11        0.000   0.000   0.000   0.000
   12        0.000   0.000   0.000   0.000
   13        0.000   0.000   0.000   0.000
   14        0.000   0.000   0.000   0.000
   15        0.000   0.000   0.000   0.000
   16        0.000   0.000   0.000   0.000
--------------------------------------------------
tot          0.000   0.000  -0.000  -0.000
 
 BZINTS: Fermi energy:    5.233607;  160.000000 electrons
         Band energy:-0.221150E+04;  BLOECHL correction:   -0.018605

 total amount of memory used by VASP MPI-rank0   164301. kBytes
=======================================================================

   base      :      30000. kBytes
   nonlr-proj:      11725. kBytes
   fftplans  :       2341. kBytes
   grid      :      14522. kBytes
   one-center:        497. kBytes
   wavefun   :     105216. kBytes
 
  
  
 General timing and accounting informations for this job:
 ========================================================
  
                  Total CPU time used (sec):      361.172
                            User time (sec):      359.105
                          System time (sec):        2.067
                         Elapsed time (sec):      364.551
  
                   Maximum memory used (kb):      447920.
                   Average memory used (kb):          N/A
  
                          Minor page faults:       141564
                          Major page faults:            0
                 Voluntary context switches:        35315
