  16  16   1   0
  0.1862500E+02  0.7383180E-09  0.7383180E-09  0.5535470E-09  0.5000000E-15
  1.000000000000000E-004
  CAR 
 unknown system                          
     11.74603754    -53.46081383  301      4.22580981      1.00000000
    -53.461  0.0000E+00  0.0000E+00  0.0000E+00  0.0000E+00
    -53.243  0.0000E+00  0.0000E+00  0.0000E+00  0.0000E+00
    -53.026  0.0000E+00  0.0000E+00  0.0000E+00  0.0000E+00
    -52.809  0.0000E+00  0.0000E+00  0.0000E+00  0.0000E+00
    -52.591  0.0000E+00  0.0000E+00  0.0000E+00  0.0000E+00
    -52.374  0.0000E+00  0.0000E+00  0.0000E+00  0.0000E+00
    -52.157  0.0000E+00  0.0000E+00  0.0000E+00  0.0000E+00
    -51.939  0.0000E+00  0.0000E+00  0.0000E+00  0.0000E+00
    -51.722  0.0000E+00  0.0000E+00  0.0000E+00  0.0000E+00
    -51.505  0.0000E+00  0.0000E+00  0.0000E+00  0.0000E+00
    -51.287  0.0000E+00  0.0000E+00  0.0000E+00  0.0000E+00
    -51.070  0.0000E+00  0.0000E+00  0.0000E+00  0.0000E+00
    -50.853  0.0000E+00  0.0000E+00  0.0000E+00  0.0000E+00
    -50.635  0.3160E-05  0.3160E-05  0.6869E-06  0.6869E-06
    -50.418  0.1877E+00  0.1877E+00  0.4079E-01  0.4079E-01
    -50.200  0.2836E+00  0.2836E+00  0.1024E+00  0.1024E+00
    -49.983  0.8539E-01  0.8539E-01  0.1210E+00  0.1210E+00
    -49.766  0.9918E-03  0.9918E-03  0.1212E+00  0.1212E+00
    -49.548  0.0000E+00  0.0000E+00  0.1212E+00  0.1212E+00
    -49.331  0.0000E+00  0.0000E+00  0.1212E+00  0.1212E+00
    -49.114  0.0000E+00  0.0000E+00  0.1212E+00  0.1212E+00
    -48.896  0.0000E+00  0.0000E+00  0.1212E+00  0.1212E+00
    -48.679  0.0000E+00  0.0000E+00  0.1212E+00  0.1212E+00
    -48.462  0.0000E+00  0.0000E+00  0.1212E+00  0.1212E+00
    -48.244  0.0000E+00  0.0000E+00  0.1212E+00  0.1212E+00
    -48.027  0.1211E-14  0.1211E-14  0.1212E+00  0.1212E+00
    -47.810  0.1118E-01  0.1118E-01  0.1236E+00  0.1236E+00
    -47.592  0.2508E+00  0.2508E+00  0.1781E+00  0.1781E+00
    -47.375  0.2361E+00  0.2361E+00  0.2295E+00  0.2295E+00
    -47.157  0.5958E-01  0.5958E-01  0.2424E+00  0.2424E+00
    -46.940  0.0000E+00  0.0000E+00  0.2424E+00  0.2424E+00
    -46.723  0.0000E+00  0.0000E+00  0.2424E+00  0.2424E+00
    -46.505  0.0000E+00  0.0000E+00  0.2424E+00  0.2424E+00
    -46.288  0.0000E+00  0.0000E+00  0.2424E+00  0.2424E+00
    -46.071  0.0000E+00  0.0000E+00  0.2424E+00  0.2424E+00
    -45.853  0.0000E+00  0.0000E+00  0.2424E+00  0.2424E+00
    -45.636  0.0000E+00  0.0000E+00  0.2424E+00  0.2424E+00
    -45.419  0.0000E+00  0.0000E+00  0.2424E+00  0.2424E+00
    -45.201  0.0000E+00  0.0000E+00  0.2424E+00  0.2424E+00
    -44.984  0.0000E+00  0.0000E+00  0.2424E+00  0.2424E+00
    -44.767  0.0000E+00  0.0000E+00  0.2424E+00  0.2424E+00
    -44.549  0.0000E+00  0.0000E+00  0.2424E+00  0.2424E+00
    -44.332  0.0000E+00  0.0000E+00  0.2424E+00  0.2424E+00
    -44.114  0.0000E+00  0.0000E+00  0.2424E+00  0.2424E+00
    -43.897  0.0000E+00  0.0000E+00  0.2424E+00  0.2424E+00
    -43.680  0.0000E+00  0.0000E+00  0.2424E+00  0.2424E+00
    -43.462  0.0000E+00  0.0000E+00  0.2424E+00  0.2424E+00
    -43.245  0.0000E+00  0.0000E+00  0.2424E+00  0.2424E+00
    -43.028  0.0000E+00  0.0000E+00  0.2424E+00  0.2424E+00
    -42.810  0.0000E+00  0.0000E+00  0.2424E+00  0.2424E+00
    -42.593  0.0000E+00  0.0000E+00  0.2424E+00  0.2424E+00
    -42.376  0.0000E+00  0.0000E+00  0.2424E+00  0.2424E+00
    -42.158  0.0000E+00  0.0000E+00  0.2424E+00  0.2424E+00
    -41.941  0.0000E+00  0.0000E+00  0.2424E+00  0.2424E+00
    -41.724  0.0000E+00  0.0000E+00  0.2424E+00  0.2424E+00
    -41.506  0.0000E+00  0.0000E+00  0.2424E+00  0.2424E+00
    -41.289  0.0000E+00  0.0000E+00  0.2424E+00  0.2424E+00
    -41.072  0.0000E+00  0.0000E+00  0.2424E+00  0.2424E+00
    -40.854  0.0000E+00  0.0000E+00  0.2424E+00  0.2424E+00
    -40.637  0.0000E+00  0.0000E+00  0.2424E+00  0.2424E+00
    -40.419  0.0000E+00  0.0000E+00  0.2424E+00  0.2424E+00
    -40.202  0.0000E+00  0.0000E+00  0.2424E+00  0.2424E+00
    -39.985  0.0000E+00  0.0000E+00  0.2424E+00  0.2424E+00
    -39.767  0.0000E+00  0.0000E+00  0.2424E+00  0.2424E+00
    -39.550  0.0000E+00  0.0000E+00  0.2424E+00  0.2424E+00
    -39.333  0.0000E+00  0.0000E+00  0.2424E+00  0.2424E+00
    -39.115  0.0000E+00  0.0000E+00  0.2424E+00  0.2424E+00
    -38.898  0.0000E+00  0.0000E+00  0.2424E+00  0.2424E+00
    -38.681  0.0000E+00  0.0000E+00  0.2424E+00  0.2424E+00
    -38.463  0.0000E+00  0.0000E+00  0.2424E+00  0.2424E+00
    -38.246  0.0000E+00  0.0000E+00  0.2424E+00  0.2424E+00
    -38.029  0.0000E+00  0.0000E+00  0.2424E+00  0.2424E+00
    -37.811  0.0000E+00  0.0000E+00  0.2424E+00  0.2424E+00
    -37.594  0.0000E+00  0.0000E+00  0.2424E+00  0.2424E+00
    -37.376  0.0000E+00  0.0000E+00  0.2424E+00  0.2424E+00
    -37.159  0.0000E+00  0.0000E+00  0.2424E+00  0.2424E+00
    -36.942  0.0000E+00  0.0000E+00  0.2424E+00  0.2424E+00
    -36.724  0.0000E+00  0.0000E+00  0.2424E+00  0.2424E+00
    -36.507  0.0000E+00  0.0000E+00  0.2424E+00  0.2424E+00
    -36.290  0.0000E+00  0.0000E+00  0.2424E+00  0.2424E+00
    -36.072  0.0000E+00  0.0000E+00  0.2424E+00  0.2424E+00
    -35.855  0.0000E+00  0.0000E+00  0.2424E+00  0.2424E+00
    -35.638  0.0000E+00  0.0000E+00  0.2424E+00  0.2424E+00
    -35.420  0.0000E+00  0.0000E+00  0.2424E+00  0.2424E+00
    -35.203  0.0000E+00  0.0000E+00  0.2424E+00  0.2424E+00
    -34.986  0.0000E+00  0.0000E+00  0.2424E+00  0.2424E+00
    -34.768  0.0000E+00  0.0000E+00  0.2424E+00  0.2424E+00
    -34.551  0.0000E+00  0.0000E+00  0.2424E+00  0.2424E+00
    -34.333  0.0000E+00  0.0000E+00  0.2424E+00  0.2424E+00
    -34.116  0.0000E+00  0.0000E+00  0.2424E+00  0.2424E+00
    -33.899  0.0000E+00  0.0000E+00  0.2424E+00  0.2424E+00
    -33.681  0.0000E+00  0.0000E+00  0.2424E+00  0.2424E+00
    -33.464  0.0000E+00  0.0000E+00  0.2424E+00  0.2424E+00
    -33.247  0.0000E+00  0.0000E+00  0.2424E+00  0.2424E+00
    -33.029  0.0000E+00  0.0000E+00  0.2424E+00  0.2424E+00
    -32.812  0.0000E+00  0.0000E+00  0.2424E+00  0.2424E+00
    -32.595  0.0000E+00  0.0000E+00  0.2424E+00  0.2424E+00
    -32.377  0.0000E+00  0.0000E+00  0.2424E+00  0.2424E+00
    -32.160  0.0000E+00  0.0000E+00  0.2424E+00  0.2424E+00
    -31.943  0.0000E+00  0.0000E+00  0.2424E+00  0.2424E+00
    -31.725  0.0000E+00  0.0000E+00  0.2424E+00  0.2424E+00
    -31.508  0.0000E+00  0.0000E+00  0.2424E+00  0.2424E+00
    -31.290  0.0000E+00  0.0000E+00  0.2424E+00  0.2424E+00
    -31.073  0.0000E+00  0.0000E+00  0.2424E+00  0.2424E+00
    -30.856  0.0000E+00  0.0000E+00  0.2424E+00  0.2424E+00
    -30.638  0.0000E+00  0.0000E+00  0.2424E+00  0.2424E+00
    -30.421  0.0000E+00  0.0000E+00  0.2424E+00  0.2424E+00
    -30.204  0.0000E+00  0.0000E+00  0.2424E+00  0.2424E+00
    -29.986  0.0000E+00  0.0000E+00  0.2424E+00  0.2424E+00
    -29.769  0.0000E+00  0.0000E+00  0.2424E+00  0.2424E+00
    -29.552  0.0000E+00  0.0000E+00  0.2424E+00  0.2424E+00
    -29.334  0.0000E+00  0.0000E+00  0.2424E+00  0.2424E+00
    -29.117  0.0000E+00  0.0000E+00  0.2424E+00  0.2424E+00
    -28.900  0.0000E+00  0.0000E+00  0.2424E+00  0.2424E+00
    -28.682  0.0000E+00  0.0000E+00  0.2424E+00  0.2424E+00
    -28.465  0.0000E+00  0.0000E+00  0.2424E+00  0.2424E+00
    -28.247  0.0000E+00  0.0000E+00  0.2424E+00  0.2424E+00
    -28.030  0.0000E+00  0.0000E+00  0.2424E+00  0.2424E+00
    -27.813  0.0000E+00  0.0000E+00  0.2424E+00  0.2424E+00
    -27.595  0.0000E+00  0.0000E+00  0.2424E+00  0.2424E+00
    -27.378  0.0000E+00  0.0000E+00  0.2424E+00  0.2424E+00
    -27.161  0.0000E+00  0.0000E+00  0.2424E+00  0.2424E+00
    -26.943  0.0000E+00  0.0000E+00  0.2424E+00  0.2424E+00
    -26.726  0.0000E+00  0.0000E+00  0.2424E+00  0.2424E+00
    -26.509  0.0000E+00  0.0000E+00  0.2424E+00  0.2424E+00
    -26.291  0.0000E+00  0.0000E+00  0.2424E+00  0.2424E+00
    -26.074  0.0000E+00  0.0000E+00  0.2424E+00  0.2424E+00
    -25.857  0.0000E+00  0.0000E+00  0.2424E+00  0.2424E+00
    -25.639  0.0000E+00  0.0000E+00  0.2424E+00  0.2424E+00
    -25.422  0.0000E+00  0.0000E+00  0.2424E+00  0.2424E+00
    -25.205  0.0000E+00  0.0000E+00  0.2424E+00  0.2424E+00
    -24.987  0.0000E+00  0.0000E+00  0.2424E+00  0.2424E+00
    -24.770  0.0000E+00  0.0000E+00  0.2424E+00  0.2424E+00
    -24.552  0.0000E+00  0.0000E+00  0.2424E+00  0.2424E+00
    -24.335  0.0000E+00  0.0000E+00  0.2424E+00  0.2424E+00
    -24.118  0.0000E+00  0.0000E+00  0.2424E+00  0.2424E+00
    -23.900  0.0000E+00  0.0000E+00  0.2424E+00  0.2424E+00
    -23.683  0.0000E+00  0.0000E+00  0.2424E+00  0.2424E+00
    -23.466  0.0000E+00  0.0000E+00  0.2424E+00  0.2424E+00
    -23.248  0.0000E+00  0.0000E+00  0.2424E+00  0.2424E+00
    -23.031  0.0000E+00  0.0000E+00  0.2424E+00  0.2424E+00
    -22.814  0.0000E+00  0.0000E+00  0.2424E+00  0.2424E+00
    -22.596  0.0000E+00  0.0000E+00  0.2424E+00  0.2424E+00
    -22.379  0.0000E+00  0.0000E+00  0.2424E+00  0.2424E+00
    -22.162  0.0000E+00  0.0000E+00  0.2424E+00  0.2424E+00
    -21.944  0.0000E+00  0.0000E+00  0.2424E+00  0.2424E+00
    -21.727  0.0000E+00  0.0000E+00  0.2424E+00  0.2424E+00
    -21.509  0.0000E+00  0.0000E+00  0.2424E+00  0.2424E+00
    -21.292  0.0000E+00  0.0000E+00  0.2424E+00  0.2424E+00
    -21.075  0.0000E+00  0.0000E+00  0.2424E+00  0.2424E+00
    -20.857  0.0000E+00  0.0000E+00  0.2424E+00  0.2424E+00
    -20.640  0.0000E+00  0.0000E+00  0.2424E+00  0.2424E+00
    -20.423  0.0000E+00  0.0000E+00  0.2424E+00  0.2424E+00
    -20.205  0.0000E+00  0.0000E+00  0.2424E+00  0.2424E+00
    -19.988  0.0000E+00  0.0000E+00  0.2424E+00  0.2424E+00
    -19.771  0.0000E+00  0.0000E+00  0.2424E+00  0.2424E+00
    -19.553  0.0000E+00  0.0000E+00  0.2424E+00  0.2424E+00
    -19.336  0.0000E+00  0.0000E+00  0.2424E+00  0.2424E+00
    -19.119  0.0000E+00  0.0000E+00  0.2424E+00  0.2424E+00
    -18.901  0.0000E+00  0.0000E+00  0.2424E+00  0.2424E+00
    -18.684  0.0000E+00  0.0000E+00  0.2424E+00  0.2424E+00
    -18.466  0.0000E+00  0.0000E+00  0.2424E+00  0.2424E+00
    -18.249  0.0000E+00  0.0000E+00  0.2424E+00  0.2424E+00
    -18.032  0.0000E+00  0.0000E+00  0.2424E+00  0.2424E+00
    -17.814  0.0000E+00  0.0000E+00  0.2424E+00  0.2424E+00
    -17.597  0.0000E+00  0.0000E+00  0.2424E+00  0.2424E+00
    -17.380  0.0000E+00  0.0000E+00  0.2424E+00  0.2424E+00
    -17.162  0.0000E+00  0.0000E+00  0.2424E+00  0.2424E+00
    -16.945  0.0000E+00  0.0000E+00  0.2424E+00  0.2424E+00
    -16.728  0.0000E+00  0.0000E+00  0.2424E+00  0.2424E+00
    -16.510  0.0000E+00  0.0000E+00  0.2424E+00  0.2424E+00
    -16.293  0.0000E+00  0.0000E+00  0.2424E+00  0.2424E+00
    -16.076  0.0000E+00  0.0000E+00  0.2424E+00  0.2424E+00
    -15.858  0.0000E+00  0.0000E+00  0.2424E+00  0.2424E+00
    -15.641  0.0000E+00  0.0000E+00  0.2424E+00  0.2424E+00
    -15.423  0.0000E+00  0.0000E+00  0.2424E+00  0.2424E+00
    -15.206  0.0000E+00  0.0000E+00  0.2424E+00  0.2424E+00
    -14.989  0.0000E+00  0.0000E+00  0.2424E+00  0.2424E+00
    -14.771  0.0000E+00  0.0000E+00  0.2424E+00  0.2424E+00
    -14.554  0.0000E+00  0.0000E+00  0.2424E+00  0.2424E+00
    -14.337  0.0000E+00  0.0000E+00  0.2424E+00  0.2424E+00
    -14.119  0.0000E+00  0.0000E+00  0.2424E+00  0.2424E+00
    -13.902  0.0000E+00  0.0000E+00  0.2424E+00  0.2424E+00
    -13.685  0.0000E+00  0.0000E+00  0.2424E+00  0.2424E+00
    -13.467  0.0000E+00  0.0000E+00  0.2424E+00  0.2424E+00
    -13.250  0.0000E+00  0.0000E+00  0.2424E+00  0.2424E+00
    -13.033  0.0000E+00  0.0000E+00  0.2424E+00  0.2424E+00
    -12.815  0.0000E+00  0.0000E+00  0.2424E+00  0.2424E+00
    -12.598  0.0000E+00  0.0000E+00  0.2424E+00  0.2424E+00
    -12.380  0.0000E+00  0.0000E+00  0.2424E+00  0.2424E+00
    -12.163  0.0000E+00  0.0000E+00  0.2424E+00  0.2424E+00
    -11.946  0.0000E+00  0.0000E+00  0.2424E+00  0.2424E+00
    -11.728  0.0000E+00  0.0000E+00  0.2424E+00  0.2424E+00
    -11.511  0.0000E+00  0.0000E+00  0.2424E+00  0.2424E+00
    -11.294  0.0000E+00  0.0000E+00  0.2424E+00  0.2424E+00
    -11.076  0.0000E+00  0.0000E+00  0.2424E+00  0.2424E+00
    -10.859  0.0000E+00  0.0000E+00  0.2424E+00  0.2424E+00
    -10.642  0.3627E-18  0.3627E-18  0.2424E+00  0.2424E+00
    -10.424  0.8172E-05  0.8172E-05  0.2424E+00  0.2424E+00
    -10.207  0.4442E-02  0.4442E-02  0.2434E+00  0.2434E+00
     -9.990  0.1328E-01  0.1328E-01  0.2463E+00  0.2463E+00
     -9.772  0.2147E-01  0.2147E-01  0.2509E+00  0.2509E+00
     -9.555  0.2448E-01  0.2448E-01  0.2563E+00  0.2563E+00
     -9.338  0.2835E-01  0.2835E-01  0.2624E+00  0.2624E+00
     -9.120  0.3717E-01  0.3717E-01  0.2705E+00  0.2705E+00
     -8.903  0.6676E-01  0.6676E-01  0.2850E+00  0.2850E+00
     -8.685  0.6862E-01  0.6862E-01  0.2999E+00  0.2999E+00
     -8.468  0.6837E-01  0.6837E-01  0.3148E+00  0.3148E+00
     -8.251  0.3757E-01  0.3757E-01  0.3230E+00  0.3230E+00
     -8.033  0.1262E-02  0.1262E-02  0.3232E+00  0.3232E+00
     -7.816  0.7052E-10  0.7052E-10  0.3232E+00  0.3232E+00
     -7.599  0.0000E+00  0.0000E+00  0.3232E+00  0.3232E+00
     -7.381  0.0000E+00  0.0000E+00  0.3232E+00  0.3232E+00
     -7.164  0.0000E+00  0.0000E+00  0.3232E+00  0.3232E+00
     -6.947  0.0000E+00  0.0000E+00  0.3232E+00  0.3232E+00
     -6.729  0.0000E+00  0.0000E+00  0.3232E+00  0.3232E+00
     -6.512  0.0000E+00  0.0000E+00  0.3232E+00  0.3232E+00
     -6.295  0.0000E+00  0.0000E+00  0.3232E+00  0.3232E+00
     -6.077  0.0000E+00  0.0000E+00  0.3232E+00  0.3232E+00
     -5.860  0.0000E+00  0.0000E+00  0.3232E+00  0.3232E+00
     -5.642  0.0000E+00  0.0000E+00  0.3232E+00  0.3232E+00
     -5.425  0.0000E+00  0.0000E+00  0.3232E+00  0.3232E+00
     -5.208  0.0000E+00  0.0000E+00  0.3232E+00  0.3232E+00
     -4.990  0.0000E+00  0.0000E+00  0.3232E+00  0.3232E+00
     -4.773  0.0000E+00  0.0000E+00  0.3232E+00  0.3232E+00
     -4.556  0.0000E+00  0.0000E+00  0.3232E+00  0.3232E+00
     -4.338  0.0000E+00  0.0000E+00  0.3232E+00  0.3232E+00
     -4.121  0.0000E+00  0.0000E+00  0.3232E+00  0.3232E+00
     -3.904  0.0000E+00  0.0000E+00  0.3232E+00  0.3232E+00
     -3.686  0.0000E+00  0.0000E+00  0.3232E+00  0.3232E+00
     -3.469  0.0000E+00  0.0000E+00  0.3232E+00  0.3232E+00
     -3.252  0.0000E+00  0.0000E+00  0.3232E+00  0.3232E+00
     -3.034  0.0000E+00  0.0000E+00  0.3232E+00  0.3232E+00
     -2.817  0.0000E+00  0.0000E+00  0.3232E+00  0.3232E+00
     -2.599  0.0000E+00  0.0000E+00  0.3232E+00  0.3232E+00
     -2.382  0.0000E+00  0.0000E+00  0.3232E+00  0.3232E+00
     -2.165  0.5888E-06  0.5888E-06  0.3232E+00  0.3232E+00
     -1.947  0.1099E-02  0.1099E-02  0.3235E+00  0.3235E+00
     -1.730  0.1188E-01  0.1188E-01  0.3261E+00  0.3261E+00
     -1.513  0.4033E-01  0.4033E-01  0.3348E+00  0.3348E+00
     -1.295  0.6675E-01  0.6675E-01  0.3493E+00  0.3493E+00
     -1.078  0.6746E-01  0.6746E-01  0.3640E+00  0.3640E+00
     -0.861  0.5446E-01  0.5446E-01  0.3758E+00  0.3758E+00
     -0.643  0.5722E-01  0.5722E-01  0.3883E+00  0.3883E+00
     -0.426  0.4116E-01  0.4116E-01  0.3972E+00  0.3972E+00
     -0.209  0.4796E-01  0.4796E-01  0.4076E+00  0.4076E+00
      0.009  0.6125E-01  0.6125E-01  0.4210E+00  0.4210E+00
      0.226  0.6669E-01  0.6669E-01  0.4354E+00  0.4354E+00
      0.444  0.9488E-01  0.9488E-01  0.4561E+00  0.4561E+00
      0.661  0.1092E+00  0.1092E+00  0.4798E+00  0.4798E+00
      0.878  0.1098E+00  0.1098E+00  0.5037E+00  0.5037E+00
      1.096  0.1048E+00  0.1048E+00  0.5264E+00  0.5264E+00
      1.313  0.7766E-01  0.7766E-01  0.5433E+00  0.5433E+00
      1.530  0.7127E-01  0.7127E-01  0.5588E+00  0.5588E+00
      1.748  0.1012E+00  0.1012E+00  0.5808E+00  0.5808E+00
      1.965  0.1095E+00  0.1095E+00  0.6046E+00  0.6046E+00
      2.182  0.1337E+00  0.1337E+00  0.6336E+00  0.6336E+00
      2.400  0.1690E+00  0.1690E+00  0.6704E+00  0.6704E+00
      2.617  0.1459E+00  0.1459E+00  0.7021E+00  0.7021E+00
      2.834  0.8417E-01  0.8417E-01  0.7204E+00  0.7204E+00
      3.052  0.6688E-01  0.6688E-01  0.7349E+00  0.7349E+00
      3.269  0.6609E-01  0.6609E-01  0.7493E+00  0.7493E+00
      3.487  0.6097E-01  0.6097E-01  0.7625E+00  0.7625E+00
      3.704  0.4248E-01  0.4248E-01  0.7718E+00  0.7718E+00
      3.921  0.5675E-01  0.5675E-01  0.7841E+00  0.7841E+00
      4.139  0.7586E-01  0.7586E-01  0.8006E+00  0.8006E+00
      4.356  0.7192E-01  0.7192E-01  0.8162E+00  0.8162E+00
      4.573  0.9525E-01  0.9525E-01  0.8369E+00  0.8369E+00
      4.791  0.1373E+00  0.1373E+00  0.8668E+00  0.8668E+00
      5.008  0.9367E-01  0.9367E-01  0.8871E+00  0.8871E+00
      5.225  0.9284E-01  0.9284E-01  0.9073E+00  0.9073E+00
      5.443  0.8456E-01  0.8456E-01  0.9257E+00  0.9257E+00
      5.660  0.1031E+00  0.1031E+00  0.9481E+00  0.9481E+00
      5.877  0.4930E-01  0.4930E-01  0.9588E+00  0.9588E+00
      6.095  0.1191E-01  0.1191E-01  0.9614E+00  0.9614E+00
      6.312  0.1335E-01  0.1335E-01  0.9643E+00  0.9643E+00
      6.529  0.1624E-01  0.1624E-01  0.9678E+00  0.9678E+00
      6.747  0.1105E-01  0.1105E-01  0.9702E+00  0.9702E+00
      6.964  0.6746E-02  0.6746E-02  0.9717E+00  0.9717E+00
      7.182  0.7152E-02  0.7151E-02  0.9733E+00  0.9733E+00
      7.399  0.1395E-01  0.1395E-01  0.9763E+00  0.9763E+00
      7.616  0.1412E-01  0.1412E-01  0.9794E+00  0.9794E+00
      7.834  0.2476E-01  0.2476E-01  0.9847E+00  0.9847E+00
      8.051  0.3948E-01  0.3948E-01  0.9933E+00  0.9933E+00
      8.268  0.4070E-01  0.4072E-01  0.1002E+01  0.1002E+01
      8.486  0.2495E-01  0.2492E-01  0.1008E+01  0.1008E+01
      8.703  0.1022E-01  0.1023E-01  0.1010E+01  0.1010E+01
      8.920  0.1303E-02  0.1299E-02  0.1010E+01  0.1010E+01
      9.138  0.3855E-07  0.2227E-07  0.1010E+01  0.1010E+01
      9.355  0.0000E+00  0.0000E+00  0.1010E+01  0.1010E+01
      9.572  0.0000E+00  0.0000E+00  0.1010E+01  0.1010E+01
      9.790  0.0000E+00  0.0000E+00  0.1010E+01  0.1010E+01
     10.007  0.0000E+00  0.0000E+00  0.1010E+01  0.1010E+01
     10.225  0.0000E+00  0.0000E+00  0.1010E+01  0.1010E+01
     10.442  0.0000E+00  0.0000E+00  0.1010E+01  0.1010E+01
     10.659  0.0000E+00  0.0000E+00  0.1010E+01  0.1010E+01
     10.877  0.0000E+00  0.0000E+00  0.1010E+01  0.1010E+01
     11.094  0.0000E+00  0.0000E+00  0.1010E+01  0.1010E+01
     11.311  0.0000E+00  0.0000E+00  0.1010E+01  0.1010E+01
     11.529  0.0000E+00  0.0000E+00  0.1010E+01  0.1010E+01
     11.746  0.0000E+00  0.0000E+00  0.1010E+01  0.1010E+01
     11.74603754    -53.46081383  301      4.22580981      1.00000000
    -53.461  0.0000E+00  0.0000E+00  0.0000E+00  0.0000E+00  0.0000E+00  0.0000E+00  0.0000E+00  0.0000E+00  0.0000E+00  0.0000E+00  0.0000E+00  0.0000E+00  0.0000E+00  0.0000E+00  0.0000E+00  0.0000E+00  0.0000E+00  0.0000E+00
    -53.243  0.0000E+00  0.0000E+00  0.0000E+00  0.0000E+00  0.0000E+00  0.0000E+00  0.0000E+00  0.0000E+00  0.0000E+00  0.0000E+00  0.0000E+00  0.0000E+00  0.0000E+00  0.0000E+00  0.0000E+00  0.0000E+00  0.0000E+00  0.0000E+00
    -53.026  0.0000E+00  0.0000E+00  0.0000E+00  0.0000E+00  0.0000E+00  0.0000E+00  0.0000E+00  0.0000E+00  0.0000E+00  0.0000E+00  0.0000E+00  0.0000E+00  0.0000E+00  0.0000E+00  0.0000E+00  0.0000E+00  0.0000E+00  0.0000E+00
    -52.809  0.0000E+00  0.0000E+00  0.0000E+00  0.0000E+00  0.0000E+00  0.0000E+00  0.0000E+00  0.0000E+00  0.0000E+00  0.0000E+00  0.0000E+00  0.0000E+00  0.0000E+00  0.0000E+00  0.0000E+00  0.0000E+00  0.0000E+00  0.0000E+00
    -52.591  0.0000E+00  0.0000E+00  0.0000E+00  0.0000E+00  0.0000E+00  0.0000E+00  0.0000E+00  0.0000E+00  0.0000E+00  0.0000E+00  0.0000E+00  0.0000E+00  0.0000E+00  0.0000E+00  0.0000E+00  0.0000E+00  0.0000E+00  0.0000E+00
    -52.374  0.0000E+00  0.0000E+00  0.0000E+00  0.0000E+00  0.0000E+00  0.0000E+00  0.0000E+00  0.0000E+00  0.0000E+00  0.0000E+00  0.0000E+00  0.0000E+00  0.0000E+00  0.0000E+00  0.0000E+00  0.0000E+00  0.0000E+00  0.0000E+00
    -52.157  0.0000E+00  0.0000E+00  0.0000E+00  0.0000E+00  0.0000E+00  0.0000E+00  0.0000E+00  0.0000E+00  0.0000E+00  0.0000E+00  0.0000E+00  0.0000E+00  0.0000E+00  0.0000E+00  0.0000E+00  0.0000E+00  0.0000E+00  0.0000E+00
    -51.939  0.0000E+00  0.0000E+00  0.0000E+00  0.0000E+00  0.0000E+00  0.0000E+00  0.0000E+00  0.0000E+00  0.0000E+00  0.0000E+00  0.0000E+00  0.0000E+00  0.0000E+00  0.0000E+00  0.0000E+00  0.0000E+00  0.0000E+00  0.0000E+00
    -51.722  0.0000E+00  0.0000E+00  0.0000E+00  0.0000E+00  0.0000E+00  0.0000E+00  0.0000E+00  0.0000E+00  0.0000E+00  0.0000E+00  0.0000E+00  0.0000E+00  0.0000E+00  0.0000E+00  0.0000E+00  0.0000E+00  0.0000E+00  0.0000E+00
    -51.505  0.0000E+00  0.0000E+00  0.0000E+00  0.0000E+00  0.0000E+00  0.0000E+00  0.0000E+00  0.0000E+00  0.0000E+00  0.0000E+00  0.0000E+00  0.0000E+00  0.0000E+00  0.0000E+00  0.0000E+00  0.0000E+00  0.0000E+00  0.0000E+00
    -51.287  0.0000E+00  0.0000E+00  0.0000E+00  0.0000E+00  0.0000E+00  0.0000E+00  0.0000E+00  0.0000E+00  0.0000E+00  0.0000E+00  0.0000E+00  0.0000E+00  0.0000E+00  0.0000E+00  0.0000E+00  0.0000E+00  0.0000E+00  0.0000E+00
    -51.070  0.0000E+00  0.0000E+00  0.0000E+00  0.0000E+00  0.0000E+00  0.0000E+00  0.0000E+00  0.0000E+00  0.0000E+00  0.0000E+00  0.0000E+00  0.0000E+00  0.0000E+00  0.0000E+00  0.0000E+00  0.0000E+00  0.0000E+00  0.0000E+00
    -50.853  0.0000E+00  0.0000E+00  0.0000E+00  0.0000E+00  0.0000E+00  0.0000E+00  0.0000E+00  0.0000E+00  0.0000E+00  0.0000E+00  0.0000E+00  0.0000E+00  0.0000E+00  0.0000E+00  0.0000E+00  0.0000E+00  0.0000E+00  0.0000E+00
    -50.635  0.9597E-15  0.2226E-10  0.1288E-04  0.1211E-08  0.6499E-04  0.1346E-09  0.1303E-11  0.5077E-12  0.2320E-10  0.4714E-13  0.9058E-15  0.7163E-11  0.1095E-14  0.6535E-11  0.1050E-09  0.4255E-14  0.1247E-14  0.2630E-10
    -50.418  0.1213E-05  0.1657E-05  0.9280E+00  0.8926E-04  0.3533E+01  0.7624E-05  0.1635E+00  0.2250E-06  0.1904E-05  0.1664E-07  0.5775E-10  0.3903E-06  0.5609E-06  0.5063E-06  0.7330E-05  0.3135E-09  0.1681E-05  0.1866E-05
    -50.200  0.9166E-04  0.5134E-05  0.3653E+01  0.3119E-03  0.1049E+01  0.9253E-06  0.2288E+01  0.2359E-05  0.7669E-05  0.1697E-06  0.2977E-09  0.1975E-07  0.4234E-04  0.1988E-05  0.2136E-05  0.1249E-09  0.1269E-03  0.6302E-05
    -49.983  0.7189E-04  0.4969E-08  0.1210E-02  0.2079E-06  0.2476E-03  0.1353E-08  0.2107E+01  0.1051E-05  0.2098E-08  0.8327E-07  0.2514E-09  0.9219E-11  0.3317E-04  0.1846E-08  0.4634E-09  0.7798E-10  0.9944E-04  0.2188E-08
    -49.766  0.1338E-06  0.6048E-11  0.6425E-12  0.2180E-09  0.1228E-13  0.2258E-11  0.2451E-01  0.9859E-08  0.2697E-13  0.8201E-09  0.5241E-12  0.6906E-13  0.6172E-07  0.2199E-11  0.6352E-14  0.9645E-12  0.1850E-06  0.2381E-12
    -49.548  0.0000E+00  0.0000E+00  0.0000E+00  0.0000E+00  0.0000E+00  0.0000E+00  0.0000E+00  0.0000E+00  0.0000E+00  0.0000E+00  0.0000E+00  0.0000E+00  0.0000E+00  0.0000E+00  0.0000E+00  0.0000E+00  0.0000E+00  0.0000E+00
    -49.331  0.0000E+00  0.0000E+00  0.0000E+00  0.0000E+00  0.0000E+00  0.0000E+00  0.0000E+00  0.0000E+00  0.0000E+00  0.0000E+00  0.0000E+00  0.0000E+00  0.0000E+00  0.0000E+00  0.0000E+00  0.0000E+00  0.0000E+00  0.0000E+00
    -49.114  0.0000E+00  0.0000E+00  0.0000E+00  0.0000E+00  0.0000E+00  0.0000E+00  0.0000E+00  0.0000E+00  0.0000E+00  0.0000E+00  0.0000E+00  0.0000E+00  0.0000E+00  0.0000E+00  0.0000E+00  0.0000E+00  0.0000E+00  0.0000E+00
    -48.896  0.0000E+00  0.0000E+00  0.0000E+00  0.0000E+00  0.0000E+00  0.0000E+00  0.0000E+00  0.0000E+00  0.0000E+00  0.0000E+00  0.0000E+00  0.0000E+00  0.0000E+00  0.0000E+00  0.0000E+00  0.0000E+00  0.0000E+00  0.0000E+00
    -48.679  0.0000E+00  0.0000E+00  0.0000E+00  0.0000E+00  0.0000E+00  0.0000E+00  0.0000E+00  0.0000E+00  0.0000E+00  0.0000E+00  0.0000E+00  0.0000E+00  0.0000E+00  0.0000E+00  0.0000E+00  0.0000E+00  0.0000E+00  0.0000E+00
    -48.462  0.0000E+00  0.0000E+00  0.0000E+00  0.0000E+00  0.0000E+00  0.0000E+00  0.0000E+00  0.0000E+00  0.0000E+00  0.0000E+00  0.0000E+00  0.0000E+00  0.0000E+00  0.0000E+00  0.0000E+00  0.0000E+00  0.0000E+00  0.0000E+00
    -48.244  0.0000E+00  0.0000E+00  0.0000E+00  0.0000E+00  0.0000E+00  0.0000E+00  0.0000E+00  0.0000E+00  0.0000E+00  0.0000E+00  0.0000E+00  0.0000E+00  0.0000E+00  0.0000E+00  0.0000E+00  0.0000E+00  0.0000E+00  0.0000E+00
    -48.027  0.2965E-19  0.1716E-23  0.1600E-17  0.1287E-13  0.3230E-19  0.1697E-13  0.1046E-20  0.9064E-17  0.2175E-22  0.2946E-19  0.3544E-20  0.3680E-24  0.9387E-20  0.9663E-24  0.7364E-24  0.3799E-19  0.3451E-19  0.2066E-23
    -47.810  0.2758E-06  0.3158E-07  0.1515E-04  0.1192E+00  0.2866E-06  0.1502E+00  0.1917E-07  0.6206E-02  0.9124E-09  0.2915E-06  0.3100E-07  0.3681E-11  0.8761E-07  0.1468E-07  0.7500E-11  0.3675E-06  0.3153E-06  0.4408E-07
    -47.592  0.4460E-05  0.6443E-04  0.2466E-03  0.1925E+01  0.4560E-05  0.2387E+01  0.2598E-05  0.1866E+01  0.1977E-06  0.4775E-05  0.4904E-06  0.1017E-08  0.1418E-05  0.2986E-04  0.1935E-09  0.5974E-05  0.5066E-05  0.8977E-04
    -47.375  0.4060E-05  0.1229E-03  0.1853E-03  0.2143E+01  0.1204E-05  0.1730E+01  0.1587E-05  0.1952E+01  0.1314E-06  0.5433E-05  0.7474E-07  0.2139E-08  0.1625E-05  0.5682E-04  0.1511E-09  0.4403E-05  0.4980E-05  0.1709E-03
    -47.157  0.7425E-06  0.1110E-04  0.3424E-04  0.3958E+00  0.2208E-06  0.3154E+00  0.4051E-06  0.7600E+00  0.3736E-07  0.9843E-06  0.1356E-07  0.2178E-09  0.2971E-06  0.5122E-05  0.4534E-10  0.7923E-06  0.9162E-06  0.1542E-04
    -46.940  0.0000E+00  0.0000E+00  0.0000E+00  0.0000E+00  0.0000E+00  0.0000E+00  0.0000E+00  0.0000E+00  0.0000E+00  0.0000E+00  0.0000E+00  0.0000E+00  0.0000E+00  0.0000E+00  0.0000E+00  0.0000E+00  0.0000E+00  0.0000E+00
    -46.723  0.0000E+00  0.0000E+00  0.0000E+00  0.0000E+00  0.0000E+00  0.0000E+00  0.0000E+00  0.0000E+00  0.0000E+00  0.0000E+00  0.0000E+00  0.0000E+00  0.0000E+00  0.0000E+00  0.0000E+00  0.0000E+00  0.0000E+00  0.0000E+00
    -46.505  0.0000E+00  0.0000E+00  0.0000E+00  0.0000E+00  0.0000E+00  0.0000E+00  0.0000E+00  0.0000E+00  0.0000E+00  0.0000E+00  0.0000E+00  0.0000E+00  0.0000E+00  0.0000E+00  0.0000E+00  0.0000E+00  0.0000E+00  0.0000E+00
    -46.288  0.0000E+00  0.0000E+00  0.0000E+00  0.0000E+00  0.0000E+00  0.0000E+00  0.0000E+00  0.0000E+00  0.0000E+00  0.0000E+00  0.0000E+00  0.0000E+00  0.0000E+00  0.0000E+00  0.0000E+00  0.0000E+00  0.0000E+00  0.0000E+00
    -46.071  0.0000E+00  0.0000E+00  0.0000E+00  0.0000E+00  0.0000E+00  0.0000E+00  0.0000E+00  0.0000E+00  0.0000E+00  0.0000E+00  0.0000E+00  0.0000E+00  0.0000E+00  0.0000E+00  0.0000E+00  0.0000E+00  0.0000E+00  0.0000E+00
    -45.853  0.0000E+00  0.0000E+00  0.0000E+00  0.0000E+00  0.0000E+00  0.0000E+00  0.0000E+00  0.0000E+00  0.0000E+00  0.0000E+00  0.0000E+00  0.0000E+00  0.0000E+00  0.0000E+00  0.0000E+00  0.0000E+00  0.0000E+00  0.0000E+00
    -45.636  0.0000E+00  0.0000E+00  0.0000E+00  0.0000E+00  0.0000E+00  0.0000E+00  0.0000E+00  0.0000E+00  0.0000E+00  0.0000E+00  0.0000E+00  0.0000E+00  0.0000E+00  0.0000E+00  0.0000E+00  0.0000E+00  0.0000E+00  0.0000E+00
    -45.419  0.0000E+00  0.0000E+00  0.0000E+00  0.0000E+00  0.0000E+00  0.0000E+00  0.0000E+00  0.0000E+00  0.0000E+00  0.0000E+00  0.0000E+00  0.0000E+00  0.0000E+00  0.0000E+00  0.0000E+00  0.0000E+00  0.0000E+00  0.0000E+00
    -45.201  0.0000E+00  0.0000E+00  0.0000E+00  0.0000E+00  0.0000E+00  0.0000E+00  0.0000E+00  0.0000E+00  0.0000E+00  0.0000E+00  0.0000E+00  0.0000E+00  0.0000E+00  0.0000E+00  0.0000E+00  0.0000E+00  0.0000E+00  0.0000E+00
    -44.984  0.0000E+00  0.0000E+00  0.0000E+00  0.0000E+00  0.0000E+00  0.0000E+00  0.0000E+00  0.0000E+00  0.0000E+00  0.0000E+00  0.0000E+00  0.0000E+00  0.0000E+00  0.0000E+00  0.0000E+00  0.0000E+00  0.0000E+00  0.0000E+00
    -44.767  0.0000E+00  0.0000E+00  0.0000E+00  0.0000E+00  0.0000E+00  0.0000E+00  0.0000E+00  0.0000E+00  0.0000E+00  0.0000E+00  0.0000E+00  0.0000E+00  0.0000E+00  0.0000E+00  0.0000E+00  0.0000E+00  0.0000E+00  0.0000E+00
    -44.549  0.0000E+00  0.0000E+00  0.0000E+00  0.0000E+00  0.0000E+00  0.0000E+00  0.0000E+00  0.0000E+00  0.0000E+00  0.0000E+00  0.0000E+00  0.0000E+00  0.0000E+00  0.0000E+00  0.0000E+00  0.0000E+00  0.0000E+00  0.0000E+00
    -44.332  0.0000E+00  0.0000E+00  0.0000E+00  0.0000E+00  0.0000E+00  0.0000E+00  0.0000E+00  0.0000E+00  0.0000E+00  0.0000E+00  0.0000E+00  0.0000E+00  0.0000E+00  0.0000E+00  0.0000E+00  0.0000E+00  0.0000E+00  0.0000E+00
    -44.114  0.0000E+00  0.0000E+00  0.0000E+00  0.0000E+00  0.0000E+00  0.0000E+00  0.0000E+00  0.0000E+00  0.0000E+00  0.0000E+00  0.0000E+00  0.0000E+00  0.0000E+00  0.0000E+00  0.0000E+00  0.0000E+00  0.0000E+00  0.0000E+00
    -43.897  0.0000E+00  0.0000E+00  0.0000E+00  0.0000E+00  0.0000E+00  0.0000E+00  0.0000E+00  0.0000E+00  0.0000E+00  0.0000E+00  0.0000E+00  0.0000E+00  0.0000E+00  0.0000E+00  0.0000E+00  0.0000E+00  0.0000E+00  0.0000E+00
    -43.680  0.0000E+00  0.0000E+00  0.0000E+00  0.0000E+00  0.0000E+00  0.0000E+00  0.0000E+00  0.0000E+00  0.0000E+00  0.0000E+00  0.0000E+00  0.0000E+00  0.0000E+00  0.0000E+00  0.0000E+00  0.0000E+00  0.0000E+00  0.0000E+00
    -43.462  0.0000E+00  0.0000E+00  0.0000E+00  0.0000E+00  0.0000E+00  0.0000E+00  0.0000E+00  0.0000E+00  0.0000E+00  0.0000E+00  0.0000E+00  0.0000E+00  0.0000E+00  0.0000E+00  0.0000E+00  0.0000E+00  0.0000E+00  0.0000E+00
    -43.245  0.0000E+00  0.0000E+00  0.0000E+00  0.0000E+00  0.0000E+00  0.0000E+00  0.0000E+00  0.0000E+00  0.0000E+00  0.0000E+00  0.0000E+00  0.0000E+00  0.0000E+00  0.0000E+00  0.0000E+00  0.0000E+00  0.0000E+00  0.0000E+00
    -43.028  0.0000E+00  0.0000E+00  0.0000E+00  0.0000E+00  0.0000E+00  0.0000E+00  0.0000E+00  0.0000E+00  0.0000E+00  0.0000E+00  0.0000E+00  0.0000E+00  0.0000E+00  0.0000E+00  0.0000E+00  0.0000E+00  0.0000E+00  0.0000E+00
    -42.810  0.0000E+00  0.0000E+00  0.0000E+00  0.0000E+00  0.0000E+00  0.0000E+00  0.0000E+00  0.0000E+00  0.0000E+00  0.0000E+00  0.0000E+00  0.0000E+00  0.0000E+00  0.0000E+00  0.0000E+00  0.0000E+00  0.0000E+00  0.0000E+00
    -42.593  0.0000E+00  0.0000E+00  0.0000E+00  0.0000E+00  0.0000E+00  0.0000E+00  0.0000E+00  0.0000E+00  0.0000E+00  0.0000E+00  0.0000E+00  0.0000E+00  0.0000E+00  0.0000E+00  0.0000E+00  0.0000E+00  0.0000E+00  0.0000E+00