       N       E                     dE             d eps       ncg     rms          rms(c)
DAV:   1     0.203289802466E+04    0.20329E+04   -0.88913E+04 34480   0.198E+03
DAV:   2     0.120944017850E+03   -0.19120E+04   -0.18560E+04 32000   0.581E+02
DAV:   3    -0.844419285245E+02   -0.20539E+03   -0.18230E+03 45280   0.190E+02
DAV:   4    -0.986951501487E+02   -0.14253E+02   -0.13866E+02 46920   0.514E+01
DAV:   5    -0.990322053949E+02   -0.33706E+00   -0.33623E+00 44800   0.834E+00    0.273E+01
RMM:   6    -0.112907502387E+03   -0.13875E+02   -0.16565E+02 34805   0.838E+01    0.505E+01
RMM:   7    -0.906524308909E+02    0.22255E+02   -0.42518E+01 32080   0.499E+01    0.101E+01
RMM:   8    -0.912501860009E+02   -0.59776E+00   -0.34629E+00 46070   0.520E+00    0.469E+00
RMM:   9    -0.913099231628E+02   -0.59737E-01   -0.85660E-01 51813   0.275E+00    0.248E+00
RMM:  10    -0.913172005782E+02   -0.72774E-02   -0.25579E-01 51685   0.154E+00    0.107E+00
RMM:  11    -0.913230578188E+02   -0.58572E-02   -0.49310E-02 49841   0.827E-01    0.388E-01
RMM:  12    -0.913281695343E+02   -0.51117E-02   -0.10942E-02 49022   0.347E-01    0.201E-01
RMM:  13    -0.913281774218E+02   -0.78874E-05   -0.24659E-03 37633   0.170E-01    0.119E-01
RMM:  14    -0.913280792866E+02    0.98135E-04   -0.75196E-04 27977   0.114E-01
   1 F= -.98399540E+02 E0= -.98399540E+02  d E =0.000000E+00  mag=    -0.0000
