       N       E                     dE             d eps       ncg     rms          rms(c)
DAV:   1     0.193128858562E+04    0.19313E+04   -0.71344E+04 89728   0.190E+03
DAV:   2     0.155357793585E+03   -0.17759E+04   -0.16628E+04 80640   0.553E+02
DAV:   3    -0.831715610763E+02   -0.23853E+03   -0.19632E+03 82152   0.214E+02
DAV:   4    -0.955601696901E+02   -0.12389E+02   -0.12186E+02 89520   0.581E+01
DAV:   5    -0.957635056923E+02   -0.20334E+00   -0.20325E+00109912   0.714E+00    0.431E+01
DAV:   6    -0.960956588110E+02   -0.33215E+00   -0.37796E+01109624   0.837E+01    0.593E+01
DAV:   7    -0.849144945537E+02    0.11181E+02   -0.23909E+01 98936   0.629E+01    0.303E+01
DAV:   8    -0.915255642510E+02   -0.66111E+01   -0.18675E+01 98432   0.616E+01    0.425E+01
DAV:   9    -0.863851618212E+02    0.51404E+01   -0.94970E+00101304   0.438E+01    0.293E+01
DAV:  10    -0.867594930502E+02   -0.37433E+00   -0.40800E+00 96160   0.242E+01    0.249E+01
DAV:  11    -0.877121959685E+02   -0.95270E+00   -0.20508E+00 92808   0.212E+01    0.107E+01
DAV:  12    -0.878880267085E+02   -0.17583E+00   -0.14099E+00 93232   0.158E+01    0.885E+00
DAV:  13    -0.877784033902E+02    0.10962E+00   -0.70432E-01 95032   0.110E+01    0.405E+00
DAV:  14    -0.877212488052E+02    0.57155E-01   -0.19180E-01101504   0.540E+00    0.187E+00
DAV:  15    -0.877140783420E+02    0.71705E-02   -0.10558E-01 91160   0.377E+00    0.160E+00
DAV:  16    -0.877100439251E+02    0.40344E-02   -0.65384E-02 91424   0.303E+00    0.113E+00
DAV:  17    -0.877144911760E+02   -0.44473E-02   -0.33359E-02103744   0.210E+00    0.988E-01
DAV:  18    -0.877095498272E+02    0.49413E-02   -0.13945E-02105776   0.135E+00    0.275E-01
DAV:  19    -0.877101824282E+02   -0.63260E-03   -0.29629E-03 91640   0.664E-01    0.316E-01
DAV:  20    -0.877097194956E+02    0.46293E-03   -0.15391E-03 99448   0.428E-01    0.703E-02
DAV:  21    -0.877097742946E+02   -0.54799E-04   -0.31124E-04 90208   0.155E-01    0.408E-02
DAV:  22    -0.877097697085E+02    0.45861E-05   -0.52605E-05 85824   0.626E-02    0.272E-02
DAV:  23    -0.877097975830E+02   -0.27874E-04   -0.12503E-05 60704   0.468E-02    0.349E-02
DAV:  24    -0.877097768588E+02    0.20724E-04   -0.70189E-06 44376   0.259E-02    0.162E-02
DAV:  25    -0.877097708011E+02    0.60577E-05   -0.18066E-06 43704   0.646E-03    0.113E-02
DAV:  26    -0.877097664799E+02    0.43212E-05   -0.78012E-07 43152   0.733E-03
   1 F= -.87709766E+02 E0= -.87709766E+02  d E =0.000000E+00  mag=    12.7165
