       N       E                     dE             d eps       ncg     rms          rms(c)
DAV:   1     0.195898002249E+04    0.19590E+04   -0.70143E+04 89800   0.195E+03
DAV:   2     0.167159493392E+03   -0.17918E+04   -0.16716E+04 80640   0.562E+02
DAV:   3    -0.801766578680E+02   -0.24734E+03   -0.20550E+03 82240   0.220E+02
DAV:   4    -0.927935024019E+02   -0.12617E+02   -0.12429E+02 88536   0.596E+01
DAV:   5    -0.930045425344E+02   -0.21104E+00   -0.21096E+00110040   0.741E+00    0.440E+01
DAV:   6    -0.944306728547E+02   -0.14261E+01   -0.36763E+01111216   0.862E+01    0.586E+01
DAV:   7    -0.830872284772E+02    0.11343E+02   -0.20583E+01100080   0.636E+01    0.310E+01
DAV:   8    -0.894571773918E+02   -0.63699E+01   -0.18447E+01 99736   0.604E+01    0.409E+01
DAV:   9    -0.847916231678E+02    0.46656E+01   -0.11042E+01102120   0.448E+01    0.273E+01
DAV:  10    -0.851316727667E+02   -0.34005E+00   -0.43372E+00 97408   0.242E+01    0.230E+01
DAV:  11    -0.862513739229E+02   -0.11197E+01   -0.18747E+00 92200   0.200E+01    0.989E+00
DAV:  12    -0.862151829100E+02    0.36191E-01   -0.97816E-01 91760   0.142E+01    0.614E+00
DAV:  13    -0.861848180391E+02    0.30365E-01   -0.39256E-01 96672   0.854E+00    0.327E+00
DAV:  14    -0.861468044892E+02    0.38014E-01   -0.13559E-01103080   0.450E+00    0.168E+00
DAV:  15    -0.861433917502E+02    0.34127E-02   -0.10267E-01 92168   0.352E+00    0.168E+00
DAV:  16    -0.861434599726E+02   -0.68222E-04   -0.57444E-02 94504   0.342E+00    0.133E+00
DAV:  17    -0.861385037067E+02    0.49563E-02   -0.38022E-02 96400   0.262E+00    0.895E-01
DAV:  18    -0.861367795478E+02    0.17242E-02   -0.13461E-02 93368   0.150E+00    0.302E-01
DAV:  19    -0.861365581128E+02    0.22143E-03   -0.26353E-03 88096   0.366E-01    0.166E-01
DAV:  20    -0.861367216255E+02   -0.16351E-03   -0.51742E-04 90904   0.205E-01    0.220E-01
DAV:  21    -0.861364632229E+02    0.25840E-03   -0.22137E-04104744   0.171E-01    0.832E-02
DAV:  22    -0.861364641321E+02   -0.90921E-06   -0.45515E-05 85264   0.566E-02
   1 F= -.86136464E+02 E0= -.86136464E+02  d E =0.000000E+00  mag=    12.0557
