 vasp.6.4.2 20Jul23 (build Aug 05 2024 17:09:17) complex                        
  
 executed on             LinuxIFC date 2025.05.27  01:08:07
 running   24 mpi-ranks, with    1 threads/rank, on    1 nodes
 distrk:  each k-point on   24 cores,    1 groups
 distr:  one band on NCORE=   3 cores,    8 groups


--------------------------------------------------------------------------------------------------------


 INCAR:
   SYSTEM = metalsystem
   EDIFF = 5E-6
   SIGMA = 0.2
   ISPIN = 2
   VOSKOWN = 1
   MAGMOM = 12*3
   LWAVE = .FALSE.
   ISIF = 2
   ISMEAR = -5
   NSW = 1
   IBRION = -1
   PREC = High
   NEDOS = 2000
   NPAR = 8
   LCHARG = .TRUE.
   AMIX = 0.2
   BMIX = 0.0001
   AMIX_MAG = 0.2
   BMIX_MAG = 0.0001

 POTCAR:   PAW Co 03Mar1998                       
 POTCAR:   PAW Ni_pv 19Apr2000                    
 POTCAR:   PAW Co 03Mar1998                       
   VRHFIN =Co: d8 s1                                                                                
   LEXCH  = CA                                                                                      
   EATOM  =   816.9490 eV,   60.0441 Ry                                                             
                                                                                                    
   TITEL  = PAW Co 03Mar1998                                                                        
   LULTRA =        F    use ultrasoft PP ?                                                          
   IUNSCR =        1    unscreen: 0-lin 1-nonlin 2-no                                               
   RPACOR =    2.000    partial core radius                                                         
   POMASS =   58.933; ZVAL   =    9.000    mass and valenz                                          
   RCORE  =    2.300    outmost cutoff radius                                                       
   RWIGS  =    2.460; RWIGS  =    1.302    wigner-seitz radius (au A)                               
   ENMAX  =  268.056; ENMIN  =  201.042 eV                                                          
   RCLOC  =    1.697    cutoff for local pot                                                        
   LCOR   =        T    correct aug charges                                                         
   LPAW   =        T    paw PP                                                                      
   EAUG   =  477.818                                                                                
   DEXC   =    -.013                                                                                
   RMAX   =    2.816    core radius for proj-oper                                                   
   RAUG   =    1.300    factor for augmentation sphere                                              
   RDEP   =    2.393    core radius for depl-charge                                                 
   QCUT   =   -4.439; QGAM   =    8.877    optimization parameters                                  
                                                                                                    
   Description                                                                                      
     l     E      TYP  RCUT    TYP  RCUT                                                            
     2   .000     23  2.300                                                                         
     2   .000     23  2.300                                                                         
     0   .000     23  2.300                                                                         
     0   .000     23  2.300                                                                         
     1  -.200     23  2.300                                                                         
     1   .000     23  2.300                                                                         
     3   .000      7   .000                                                                         
  local pseudopotential read in
  partial core-charges read in
  atomic valenz-charges read in
  non local Contribution for L=           2  read in
    real space projection operators read in
  non local Contribution for L=           2  read in
    real space projection operators read in
  non local Contribution for L=           0  read in
    real space projection operators read in
  non local Contribution for L=           0  read in
    real space projection operators read in
  non local Contribution for L=           1  read in
    real space projection operators read in
  non local Contribution for L=           1  read in
    real space projection operators read in
    PAW grid and wavefunctions read in
 
   number of l-projection  operators is LMAX  =           6
   number of lm-projection operators is LMMAX =          18
 
 POTCAR:   PAW Ni_pv 19Apr2000                    
   VRHFIN =Ni:                                                                                      
   LEXCH  = CA                                                                                      
   EATOM  =  3504.8643 eV,  257.6003 Ry                                                             
                                                                                                    
   TITEL  = PAW Ni_pv 19Apr2000                                                                     
   LULTRA =        F    use ultrasoft PP ?                                                          
   IUNSCR =        1    unscreen: 0-lin 1-nonlin 2-no                                               
   RPACOR =    1.500    partial core radius                                                         
   POMASS =   58.690; ZVAL   =   16.000    mass and valenz                                          
   RCORE  =    2.000    outmost cutoff radius                                                       
   RWIGS  =    2.000; RWIGS  =    1.058    wigner-seitz radius (au A)                               
   ENMAX  =  367.726; ENMIN  =  275.795 eV                                                          
   RCLOC  =    1.301    cutoff for local pot                                                        
   LCOR   =        T    correct aug charges                                                         
   LPAW   =        T    paw PP                                                                      
   EAUG   =  703.443                                                                                
   DEXC   =    -.002                                                                                
   RMAX   =    2.404    core radius for proj-oper                                                   
   RAUG   =    1.300    factor for augmentation sphere                                              
   RDEP   =    2.103    core radius for depl-charge                                                 
   QCUT   =   -5.199; QGAM   =   10.398    optimization parameters                                  
                                                                                                    
   Description                                                                                      
     l     E      TYP  RCUT    TYP  RCUT                                                            
     1   .000     23  1.700                                                                         
     1  -.100     23  1.700                                                                         
     2   .000     23  2.000                                                                         
     2   .000     23  2.000                                                                         
     0   .000     23  1.900                                                                         
     0   .000     23  1.900                                                                         
     3   .000      7   .000                                                                         
  local pseudopotential read in
  partial core-charges read in
  atomic valenz-charges read in
  non local Contribution for L=           1  read in
    real space projection operators read in
  non local Contribution for L=           1  read in
    real space projection operators read in
  non local Contribution for L=           2  read in
    real space projection operators read in
  non local Contribution for L=           2  read in
    real space projection operators read in
  non local Contribution for L=           0  read in
    real space projection operators read in
  non local Contribution for L=           0  read in
    real space projection operators read in
    PAW grid and wavefunctions read in
 
   number of l-projection  operators is LMAX  =           6
   number of lm-projection operators is LMMAX =          18
 
 PAW Co 03Mar1998                       :
 energy of atom  1       EATOM= -816.9490
 kinetic energy error for atom=    0.0033 (will be added to EATOM!!)
 PAW Ni_pv 19Apr2000                    :
 energy of atom  2       EATOM=-3504.8643
 kinetic energy error for atom=    0.0893 (will be added to EATOM!!)
 
 
 POSCAR: CoNiV
  positions in direct lattice
  velocities in cartesian coordinates
 exchange correlation table for  LEXCH =        2
   RHO(1)=    0.500       N(1)  =     2000
   RHO(2)=  100.500       N(2)  =     4000

 VTST: version 4.1, (05/19/21)

 CHAIN: initializing optimizer
 
 OPT: Using VASP Dynamics algorithm
 CHAIN: Read ICHAIN            0
 
 POSCAR: CoNiV
  positions in direct lattice
  velocities in cartesian coordinates
 


--------------------------------------------------------------------------------------------------------


 ion  position               nearest neighbor table
   1  0.834  0.250  0.336-   3 2.30   5 2.31   6 2.31   2 2.32   2 2.32  12 2.32  11 2.32  11 2.33
                            12 2.33   7 2.34  10 2.34   9 2.34
   2  0.834  0.750  0.336-   4 2.30   5 2.31   6 2.31   1 2.32   1 2.32  12 2.32  11 2.32  11 2.33
                            12 2.33   8 2.34  10 2.34   9 2.34
   3  0.166  0.250  0.665-   1 2.30  11 2.32  12 2.32   4 2.32   4 2.32   6 2.32   5 2.32  10 2.33
                             9 2.33   6 2.33   5 2.33   7 2.33
   4  0.166  0.750  0.665-   2 2.30  11 2.32  12 2.32   3 2.32   3 2.32   6 2.32   5 2.32  10 2.33
                             9 2.33   6 2.33   5 2.33   8 2.33
   5  0.667  0.000  0.666-   1 2.31   2 2.31  11 2.31   6 2.32   6 2.32   4 2.32   3 2.32   9 2.32
                             8 2.33   7 2.33   3 2.33   4 2.33
   6  0.667  0.500  0.666-   1 2.31   2 2.31  12 2.31   5 2.32   5 2.32   4 2.32   3 2.32  10 2.32
                             8 2.33   7 2.33   3 2.33   4 2.33
   7  0.500  0.250  0.999-   8 2.32   8 2.32  10 2.32   9 2.32   9 2.33  10 2.33   5 2.33   6 2.33
                             3 2.33  12 2.34  11 2.34   1 2.34
   8  0.500  0.750  0.999-   7 2.32   7 2.32  10 2.32   9 2.32   9 2.33  10 2.33   5 2.33   6 2.33
                             4 2.33  12 2.34  11 2.34   2 2.34
   9  1.000  0.000  0.999-  10 2.32  10 2.32   7 2.32   8 2.32   5 2.32   8 2.33   7 2.33   4 2.33
                             3 2.33  11 2.33   1 2.34   2 2.34
  10  1.000  0.500  0.999-   9 2.32   9 2.32   7 2.32   8 2.32   6 2.32   8 2.33   7 2.33   4 2.33
                             3 2.33  12 2.33   1 2.34   2 2.34
  11  0.333  0.000  0.335-   5 2.31   4 2.32   3 2.32  12 2.32  12 2.32   2 2.32   1 2.32   2 2.33
                             1 2.33   9 2.33   8 2.34   7 2.34
  12  0.333  0.500  0.335-   6 2.31   4 2.32   3 2.32  11 2.32  11 2.32   2 2.32   1 2.32   2 2.33
                             1 2.33  10 2.33   8 2.34   7 2.34
 
  LATTYP: Found a simple monoclinic cell.
 ALAT       =     4.0320351818
 B/A-ratio  =     1.1509149832
 C/A-ratio  =     1.4137652952
 COS(beta)  =    -0.0029294020
  
  Lattice vectors:
  
 A1 = (   4.0320308649,   0.0000000000,  -0.0059001527)
 A2 = (   0.0000000000,   4.6405297035,   0.0000000000)
 A3 = (  -0.0083572079,   0.0000000000,   5.7003452828)


Analysis of symmetry for initial positions (statically):
=====================================================================
 Subroutine PRICEL returns following result:
 
  LATTYP: Found a simple monoclinic cell.
 ALAT       =     4.0320351818
 B/A-ratio  =     0.5754574916
 C/A-ratio  =     1.4137652952
 COS(beta)  =    -0.0029294020
  
  Lattice vectors:
  
 A1 = (   4.0320308649,   0.0000000000,  -0.0059001527)
 A2 = (   0.0000000000,   2.3202648517,   0.0000000000)
 A3 = (  -0.0083572079,   0.0000000000,   5.7003452828)
 
   2 primitive cells build up your supercell.
 

 Routine SETGRP: Setting up the symmetry group for a 
 simple monoclinic supercell.


 Subroutine GETGRP returns: Found  2 space group operations
 (whereof  2 operations were pure point group operations)
 out of a pool of  4 trial point group operations.


The static configuration has the point symmetry C_1h.


Analysis of symmetry for dynamics (positions and initial velocities):
=====================================================================
 Subroutine PRICEL returns following result:
 
  LATTYP: Found a simple monoclinic cell.
 ALAT       =     4.0320351818
 B/A-ratio  =     0.5754574916
 C/A-ratio  =     1.4137652952
 COS(beta)  =    -0.0029294020
  
  Lattice vectors:
  
 A1 = (   4.0320308649,   0.0000000000,  -0.0059001527)
 A2 = (   0.0000000000,   2.3202648517,   0.0000000000)
 A3 = (  -0.0083572079,   0.0000000000,   5.7003452828)
 
   2 primitive cells build up your supercell.
 

 Routine SETGRP: Setting up the symmetry group for a 
 simple monoclinic supercell.


 Subroutine GETGRP returns: Found  2 space group operations
 (whereof  2 operations were pure point group operations)
 out of a pool of  4 trial point group operations.


The dynamic configuration has the point symmetry C_1h.


Analysis of structural, dynamic, and magnetic symmetry:
=====================================================================
 Subroutine PRICEL returns following result:
 
  LATTYP: Found a simple monoclinic cell.
 ALAT       =     4.0320351818
 B/A-ratio  =     0.5754574916
 C/A-ratio  =     1.4137652952
 COS(beta)  =    -0.0029294020
  
  Lattice vectors:
  
 A1 = (   4.0320308649,   0.0000000000,  -0.0059001527)
 A2 = (   0.0000000000,   2.3202648517,   0.0000000000)
 A3 = (  -0.0083572079,   0.0000000000,   5.7003452828)
 
   2 primitive cells build up your supercell.
 

 Routine SETGRP: Setting up the symmetry group for a 
 simple monoclinic supercell.


 Subroutine GETGRP returns: Found  2 space group operations
 (whereof  2 operations were pure point group operations)
 out of a pool of  4 trial point group operations.


The overall configuration has the point symmetry C_1h.


 Subroutine INISYM returns: Found  2 space group operations
 (whereof  2 operations are pure point group operations),
 and found     2 'primitive' translations


----------------------------------------------------------------------------------------

                                     Primitive cell                                     

  volume of cell :      53.3288

  direct lattice vectors                    reciprocal lattice vectors
     4.032030865  0.000000000 -0.005900153     0.248014507  0.000000000  0.000363611
     0.000000000  2.320264852  0.000000000     0.000000000  0.430985281  0.000000000
    -0.008357208  0.000000000  5.700345283     0.000256708  0.000000000  0.175428346

  length of vectors
     4.032035182  2.320264852  5.700351409     0.248014773  0.430985281  0.175428534

  position of ions in fractional coordinates (direct lattice)
     0.833790073  0.500000000  0.336126143
     0.165752955  0.500000000  0.665122684
     0.666881394  0.000000000  0.665565287
     0.500477905  0.500000000  0.999468635
     0.999851359  0.000000000  0.999204685
     0.333246313  0.000000000  0.334512565

  ion indices of the primitive-cell ions
   primitive index   ion index
                 1           1
                 2           3
                 3           5
                 4           7
                 5           9
                 6          11

----------------------------------------------------------------------------------------

 
 
 KPOINTS: fcc-kp                                  

Automatic generation of k-mesh.
 Grid dimensions derived from RKLEN:
 generate k-points for:   10    9    7

 Generating k-lattice:

  Cartesian coordinates                     Fractional coordinates (reciprocal lattice)
     0.024801451  0.000000000  0.000036361     0.100000000  0.000000000 -0.000000000
     0.000000000  0.023943627  0.000000000     0.000000000  0.111111111  0.000000000
     0.000036673  0.000000000  0.025061192     0.000000000  0.000000000  0.142857143

  Length of vectors
     0.024801477  0.023943627  0.025061219

  Shift w.r.t. Gamma in fractional coordinates (k-lattice)
     0.000000000  0.000000000  0.000000000

 TETIRR: Found   1888 inequivalent tetrahedra from     3780
 
 Subroutine IBZKPT returns following result:
 ===========================================
 
 Found    180 irreducible k-points:
 
 Following reciprocal coordinates:
            Coordinates               Weight
  0.000000  0.000000  0.000000      1.000000
  0.100000  0.000000  0.000000      2.000000
  0.200000  0.000000  0.000000      2.000000
  0.300000  0.000000  0.000000      2.000000
  0.400000  0.000000  0.000000      2.000000
  0.500000  0.000000  0.000000      1.000000
  0.000000  0.111111  0.000000      2.000000
  0.100000  0.111111  0.000000      4.000000
  0.200000  0.111111  0.000000      4.000000
  0.300000  0.111111  0.000000      4.000000
  0.400000  0.111111  0.000000      4.000000
  0.500000  0.111111  0.000000      2.000000
  0.000000  0.222222  0.000000      2.000000
  0.100000  0.222222  0.000000      4.000000
  0.200000  0.222222  0.000000      4.000000
  0.300000  0.222222  0.000000      4.000000
  0.400000  0.222222  0.000000      4.000000
  0.500000  0.222222  0.000000      2.000000
  0.000000  0.333333  0.000000      2.000000
  0.100000  0.333333  0.000000      4.000000
  0.200000  0.333333  0.000000      4.000000
  0.300000  0.333333  0.000000      4.000000
  0.400000  0.333333  0.000000      4.000000
  0.500000  0.333333  0.000000      2.000000
  0.000000  0.444444  0.000000      2.000000
  0.100000  0.444444  0.000000      4.000000
  0.200000  0.444444  0.000000      4.000000
  0.300000  0.444444  0.000000      4.000000
  0.400000  0.444444  0.000000      4.000000
  0.500000  0.444444  0.000000      2.000000
  0.000000  0.000000  0.142857      2.000000
  0.100000  0.000000  0.142857      2.000000
  0.200000  0.000000  0.142857      2.000000
  0.300000  0.000000  0.142857      2.000000
  0.400000  0.000000  0.142857      2.000000
  0.500000  0.000000  0.142857      2.000000
 -0.400000  0.000000  0.142857      2.000000
 -0.300000  0.000000  0.142857      2.000000
 -0.200000  0.000000  0.142857      2.000000
 -0.100000  0.000000  0.142857      2.000000
  0.000000  0.111111  0.142857      4.000000
  0.100000  0.111111  0.142857      4.000000
  0.200000  0.111111  0.142857      4.000000
  0.300000  0.111111  0.142857      4.000000
  0.400000  0.111111  0.142857      4.000000
  0.500000  0.111111  0.142857      4.000000
 -0.400000  0.111111  0.142857      4.000000
 -0.300000  0.111111  0.142857      4.000000
 -0.200000  0.111111  0.142857      4.000000
 -0.100000  0.111111  0.142857      4.000000
  0.000000  0.222222  0.142857      4.000000
  0.100000  0.222222  0.142857      4.000000
  0.200000  0.222222  0.142857      4.000000
  0.300000  0.222222  0.142857      4.000000
  0.400000  0.222222  0.142857      4.000000
  0.500000  0.222222  0.142857      4.000000
 -0.400000  0.222222  0.142857      4.000000
 -0.300000  0.222222  0.142857      4.000000
 -0.200000  0.222222  0.142857      4.000000
 -0.100000  0.222222  0.142857      4.000000
  0.000000  0.333333  0.142857      4.000000
  0.100000  0.333333  0.142857      4.000000
  0.200000  0.333333  0.142857      4.000000
  0.300000  0.333333  0.142857      4.000000
  0.400000  0.333333  0.142857      4.000000
  0.500000  0.333333  0.142857      4.000000
 -0.400000  0.333333  0.142857      4.000000
 -0.300000  0.333333  0.142857      4.000000
 -0.200000  0.333333  0.142857      4.000000
 -0.100000  0.333333  0.142857      4.000000
  0.000000  0.444444  0.142857      4.000000
  0.100000  0.444444  0.142857      4.000000
  0.200000  0.444444  0.142857      4.000000
  0.300000  0.444444  0.142857      4.000000
  0.400000  0.444444  0.142857      4.000000
  0.500000  0.444444  0.142857      4.000000
 -0.400000  0.444444  0.142857      4.000000
 -0.300000  0.444444  0.142857      4.000000
 -0.200000  0.444444  0.142857      4.000000
 -0.100000  0.444444  0.142857      4.000000
  0.000000  0.000000  0.285714      2.000000
  0.100000  0.000000  0.285714      2.000000
  0.200000  0.000000  0.285714      2.000000
  0.300000  0.000000  0.285714      2.000000
  0.400000  0.000000  0.285714      2.000000
  0.500000  0.000000  0.285714      2.000000
 -0.400000  0.000000  0.285714      2.000000
 -0.300000  0.000000  0.285714      2.000000
 -0.200000  0.000000  0.285714      2.000000
 -0.100000  0.000000  0.285714      2.000000
  0.000000  0.111111  0.285714      4.000000
  0.100000  0.111111  0.285714      4.000000
  0.200000  0.111111  0.285714      4.000000
  0.300000  0.111111  0.285714      4.000000
  0.400000  0.111111  0.285714      4.000000
  0.500000  0.111111  0.285714      4.000000
 -0.400000  0.111111  0.285714      4.000000
 -0.300000  0.111111  0.285714      4.000000
 -0.200000  0.111111  0.285714      4.000000
 -0.100000  0.111111  0.285714      4.000000
  0.000000  0.222222  0.285714      4.000000
  0.100000  0.222222  0.285714      4.000000
  0.200000  0.222222  0.285714      4.000000
  0.300000  0.222222  0.285714      4.000000
  0.400000  0.222222  0.285714      4.000000
  0.500000  0.222222  0.285714      4.000000
 -0.400000  0.222222  0.285714      4.000000
 -0.300000  0.222222  0.285714      4.000000
 -0.200000  0.222222  0.285714      4.000000
 -0.100000  0.222222  0.285714      4.000000
  0.000000  0.333333  0.285714      4.000000
  0.100000  0.333333  0.285714      4.000000
  0.200000  0.333333  0.285714      4.000000
  0.300000  0.333333  0.285714      4.000000
  0.400000  0.333333  0.285714      4.000000
  0.500000  0.333333  0.285714      4.000000
 -0.400000  0.333333  0.285714      4.000000
 -0.300000  0.333333  0.285714      4.000000
 -0.200000  0.333333  0.285714      4.000000
 -0.100000  0.333333  0.285714      4.000000
  0.000000  0.444444  0.285714      4.000000
  0.100000  0.444444  0.285714      4.000000
  0.200000  0.444444  0.285714      4.000000
  0.300000  0.444444  0.285714      4.000000
  0.400000  0.444444  0.285714      4.000000
  0.500000  0.444444  0.285714      4.000000
 -0.400000  0.444444  0.285714      4.000000
 -0.300000  0.444444  0.285714      4.000000
 -0.200000  0.444444  0.285714      4.000000
 -0.100000  0.444444  0.285714      4.000000
  0.000000  0.000000  0.428571      2.000000
  0.100000  0.000000  0.428571      2.000000
  0.200000  0.000000  0.428571      2.000000
  0.300000  0.000000  0.428571      2.000000
  0.400000  0.000000  0.428571      2.000000
  0.500000  0.000000  0.428571      2.000000
 -0.400000  0.000000  0.428571      2.000000
 -0.300000  0.000000  0.428571      2.000000
 -0.200000  0.000000  0.428571      2.000000
 -0.100000  0.000000  0.428571      2.000000
  0.000000  0.111111  0.428571      4.000000
  0.100000  0.111111  0.428571      4.000000
  0.200000  0.111111  0.428571      4.000000
  0.300000  0.111111  0.428571      4.000000
  0.400000  0.111111  0.428571      4.000000
  0.500000  0.111111  0.428571      4.000000
 -0.400000  0.111111  0.428571      4.000000
 -0.300000  0.111111  0.428571      4.000000
 -0.200000  0.111111  0.428571      4.000000
 -0.100000  0.111111  0.428571      4.000000
  0.000000  0.222222  0.428571      4.000000
  0.100000  0.222222  0.428571      4.000000
  0.200000  0.222222  0.428571      4.000000
  0.300000  0.222222  0.428571      4.000000
  0.400000  0.222222  0.428571      4.000000
  0.500000  0.222222  0.428571      4.000000
 -0.400000  0.222222  0.428571      4.000000
 -0.300000  0.222222  0.428571      4.000000
 -0.200000  0.222222  0.428571      4.000000
 -0.100000  0.222222  0.428571      4.000000
  0.000000  0.333333  0.428571      4.000000
  0.100000  0.333333  0.428571      4.000000
  0.200000  0.333333  0.428571      4.000000
  0.300000  0.333333  0.428571      4.000000
  0.400000  0.333333  0.428571      4.000000
  0.500000  0.333333  0.428571      4.000000
 -0.400000  0.333333  0.428571      4.000000
 -0.300000  0.333333  0.428571      4.000000
 -0.200000  0.333333  0.428571      4.000000
 -0.100000  0.333333  0.428571      4.000000
  0.000000  0.444444  0.428571      4.000000
  0.100000  0.444444  0.428571      4.000000
  0.200000  0.444444  0.428571      4.000000
  0.300000  0.444444  0.428571      4.000000
  0.400000  0.444444  0.428571      4.000000
  0.500000  0.444444  0.428571      4.000000
 -0.400000  0.444444  0.428571      4.000000
 -0.300000  0.444444  0.428571      4.000000
 -0.200000  0.444444  0.428571      4.000000
 -0.100000  0.444444  0.428571      4.000000
 
 Following cartesian coordinates:
            Coordinates               Weight
  0.000000  0.000000  0.000000      1.000000
  0.085404  0.000000  0.000125      2.000000
  0.170808  0.000000  0.000250      2.000000
  0.256211  0.000000  0.000376      2.000000
  0.341615  0.000000  0.000501      2.000000
  0.427019  0.000000  0.000626      1.000000
  0.000000  0.082450  0.000000      2.000000
  0.085404  0.082450  0.000125      4.000000
  0.170808  0.082450  0.000250      4.000000
  0.256211  0.082450  0.000376      4.000000
  0.341615  0.082450  0.000501      4.000000
  0.427019  0.082450  0.000626      2.000000
  0.000000  0.164900  0.000000      2.000000
  0.085404  0.164900  0.000125      4.000000
  0.170808  0.164900  0.000250      4.000000
  0.256211  0.164900  0.000376      4.000000
  0.341615  0.164900  0.000501      4.000000
  0.427019  0.164900  0.000626      2.000000
  0.000000  0.247350  0.000000      2.000000
  0.085404  0.247350  0.000125      4.000000
  0.170808  0.247350  0.000250      4.000000
  0.256211  0.247350  0.000376      4.000000
  0.341615  0.247350  0.000501      4.000000
  0.427019  0.247350  0.000626      2.000000
  0.000000  0.329800  0.000000      2.000000
  0.085404  0.329800  0.000125      4.000000
  0.170808  0.329800  0.000250      4.000000
  0.256211  0.329800  0.000376      4.000000
  0.341615  0.329800  0.000501      4.000000
  0.427019  0.329800  0.000626      2.000000
  0.000126  0.000000  0.086298      2.000000
  0.085530  0.000000  0.086423      2.000000
  0.170934  0.000000  0.086549      2.000000
  0.256338  0.000000  0.086674      2.000000
  0.341741  0.000000  0.086799      2.000000
  0.427145  0.000000  0.086924      2.000000
 -0.341489  0.000000  0.085797      2.000000
 -0.256085  0.000000  0.085923      2.000000
 -0.170681  0.000000  0.086048      2.000000
 -0.085278  0.000000  0.086173      2.000000
  0.000126  0.082450  0.086298      4.000000
  0.085530  0.082450  0.086423      4.000000
  0.170934  0.082450  0.086549      4.000000
  0.256338  0.082450  0.086674      4.000000
  0.341741  0.082450  0.086799      4.000000
  0.427145  0.082450  0.086924      4.000000
 -0.341489  0.082450  0.085797      4.000000
 -0.256085  0.082450  0.085923      4.000000
 -0.170681  0.082450  0.086048      4.000000
 -0.085278  0.082450  0.086173      4.000000
  0.000126  0.164900  0.086298      4.000000
  0.085530  0.164900  0.086423      4.000000
  0.170934  0.164900  0.086549      4.000000
  0.256338  0.164900  0.086674      4.000000
  0.341741  0.164900  0.086799      4.000000
  0.427145  0.164900  0.086924      4.000000
 -0.341489  0.164900  0.085797      4.000000
 -0.256085  0.164900  0.085923      4.000000
 -0.170681  0.164900  0.086048      4.000000
 -0.085278  0.164900  0.086173      4.000000
  0.000126  0.247350  0.086298      4.000000
  0.085530  0.247350  0.086423      4.000000
  0.170934  0.247350  0.086549      4.000000
  0.256338  0.247350  0.086674      4.000000
  0.341741  0.247350  0.086799      4.000000
  0.427145  0.247350  0.086924      4.000000
 -0.341489  0.247350  0.085797      4.000000
 -0.256085  0.247350  0.085923      4.000000
 -0.170681  0.247350  0.086048      4.000000
 -0.085278  0.247350  0.086173      4.000000
  0.000126  0.329800  0.086298      4.000000
  0.085530  0.329800  0.086423      4.000000
  0.170934  0.329800  0.086549      4.000000
  0.256338  0.329800  0.086674      4.000000
  0.341741  0.329800  0.086799      4.000000
  0.427145  0.329800  0.086924      4.000000
 -0.341489  0.329800  0.085797      4.000000
 -0.256085  0.329800  0.085923      4.000000
 -0.170681  0.329800  0.086048      4.000000
 -0.085278  0.329800  0.086173      4.000000
  0.000253  0.000000  0.172596      2.000000
  0.085656  0.000000  0.172722      2.000000
  0.171060  0.000000  0.172847      2.000000
  0.256464  0.000000  0.172972      2.000000
  0.341868  0.000000  0.173097      2.000000
  0.427272  0.000000  0.173222      2.000000
 -0.341363  0.000000  0.172096      2.000000
 -0.255959  0.000000  0.172221      2.000000
 -0.170555  0.000000  0.172346      2.000000
 -0.085151  0.000000  0.172471      2.000000
  0.000253  0.082450  0.172596      4.000000
  0.085656  0.082450  0.172722      4.000000
  0.171060  0.082450  0.172847      4.000000
  0.256464  0.082450  0.172972      4.000000
  0.341868  0.082450  0.173097      4.000000
  0.427272  0.082450  0.173222      4.000000
 -0.341363  0.082450  0.172096      4.000000
 -0.255959  0.082450  0.172221      4.000000
 -0.170555  0.082450  0.172346      4.000000
 -0.085151  0.082450  0.172471      4.000000
  0.000253  0.164900  0.172596      4.000000
  0.085656  0.164900  0.172722      4.000000
  0.171060  0.164900  0.172847      4.000000
  0.256464  0.164900  0.172972      4.000000
  0.341868  0.164900  0.173097      4.000000
  0.427272  0.164900  0.173222      4.000000
 -0.341363  0.164900  0.172096      4.000000
 -0.255959  0.164900  0.172221      4.000000
 -0.170555  0.164900  0.172346      4.000000
 -0.085151  0.164900  0.172471      4.000000
  0.000253  0.247350  0.172596      4.000000
  0.085656  0.247350  0.172722      4.000000
  0.171060  0.247350  0.172847      4.000000
  0.256464  0.247350  0.172972      4.000000
  0.341868  0.247350  0.173097      4.000000
  0.427272  0.247350  0.173222      4.000000
 -0.341363  0.247350  0.172096      4.000000
 -0.255959  0.247350  0.172221      4.000000
 -0.170555  0.247350  0.172346      4.000000
 -0.085151  0.247350  0.172471      4.000000
  0.000253  0.329800  0.172596      4.000000
  0.085656  0.329800  0.172722      4.000000
  0.171060  0.329800  0.172847      4.000000
  0.256464  0.329800  0.172972      4.000000
  0.341868  0.329800  0.173097      4.000000
  0.427272  0.329800  0.173222      4.000000
 -0.341363  0.329800  0.172096      4.000000
 -0.255959  0.329800  0.172221      4.000000
 -0.170555  0.329800  0.172346      4.000000
 -0.085151  0.329800  0.172471      4.000000
  0.000379  0.000000  0.258895      2.000000
  0.085783  0.000000  0.259020      2.000000
  0.171186  0.000000  0.259145      2.000000
  0.256590  0.000000  0.259270      2.000000
  0.341994  0.000000  0.259395      2.000000
  0.427398  0.000000  0.259521      2.000000
 -0.341236  0.000000  0.258394      2.000000
 -0.255833  0.000000  0.258519      2.000000
 -0.170429  0.000000  0.258644      2.000000
 -0.085025  0.000000  0.258769      2.000000
  0.000379  0.082450  0.258895      4.000000
  0.085783  0.082450  0.259020      4.000000
  0.171186  0.082450  0.259145      4.000000
  0.256590  0.082450  0.259270      4.000000
  0.341994  0.082450  0.259395      4.000000
  0.427398  0.082450  0.259521      4.000000
 -0.341236  0.082450  0.258394      4.000000
 -0.255833  0.082450  0.258519      4.000000
 -0.170429  0.082450  0.258644      4.000000
 -0.085025  0.082450  0.258769      4.000000
  0.000379  0.164900  0.258895      4.000000
  0.085783  0.164900  0.259020      4.000000
  0.171186  0.164900  0.259145      4.000000
  0.256590  0.164900  0.259270      4.000000
  0.341994  0.164900  0.259395      4.000000
  0.427398  0.164900  0.259521      4.000000
 -0.341236  0.164900  0.258394      4.000000
 -0.255833  0.164900  0.258519      4.000000
 -0.170429  0.164900  0.258644      4.000000
 -0.085025  0.164900  0.258769      4.000000
  0.000379  0.247350  0.258895      4.000000
  0.085783  0.247350  0.259020      4.000000
  0.171186  0.247350  0.259145      4.000000
  0.256590  0.247350  0.259270      4.000000
  0.341994  0.247350  0.259395      4.000000
  0.427398  0.247350  0.259521      4.000000
 -0.341236  0.247350  0.258394      4.000000
 -0.255833  0.247350  0.258519      4.000000
 -0.170429  0.247350  0.258644      4.000000
 -0.085025  0.247350  0.258769      4.000000
  0.000379  0.329800  0.258895      4.000000
  0.085783  0.329800  0.259020      4.000000
  0.171186  0.329800  0.259145      4.000000
  0.256590  0.329800  0.259270      4.000000
  0.341994  0.329800  0.259395      4.000000
  0.427398  0.329800  0.259521      4.000000
 -0.341236  0.329800  0.258394      4.000000
 -0.255833  0.329800  0.258519      4.000000
 -0.170429  0.329800  0.258644      4.000000
 -0.085025  0.329800  0.258769      4.000000
 


--------------------------------------------------------------------------------------------------------




 Dimension of arrays:
   k-points           NKPTS =    180   k-points in BZ     NKDIM =    180   number of bands    NBANDS=    112
   number of dos      NEDOS =   2000   number of ions     NIONS =     12
   non local maximal  LDIM  =      6   non local SUM 2l+1 LMDIM =     18
   total plane-waves  NPLWV =  35840
   max r-space proj   IRMAX =      1   max aug-charges    IRDMAX=   8585
   dimension x,y,z NGX =    28 NGY =   32 NGZ =   40
   dimension x,y,z NGXF=    48 NGYF=   54 NGZF=   70
   support grid    NGXF=    48 NGYF=   54 NGZF=   70
   ions per type =               6   6
   NGX,Y,Z   is equivalent  to a cutoff of  11.54, 11.46, 11.67 a.u.
   NGXF,Y,Z  is equivalent  to a cutoff of  19.79, 19.35, 20.41 a.u.

 SYSTEM =  metalsystem                             
 POSCAR =  CoNiV                                   

 Startparameter for this run:
   NWRITE =      2    write-flag & timer
   PREC   = high      normal or accurate (medium, high low for compatibility)
   ISTART =      0    job   : 0-new  1-cont  2-samecut
   ICHARG =      2    charge: 1-file 2-atom 10-const
   ISPIN  =      2    spin polarized calculation?
   LNONCOLLINEAR =      F non collinear calculations
   LSORBIT =      F    spin-orbit coupling
   INIWAV =      1    electr: 0-lowe 1-rand  2-diag
   LASPH  =      F    aspherical Exc in radial PAW
 Electronic Relaxation 1
   ENCUT  =  459.7 eV  33.78 Ry    5.81 a.u.   7.05  8.11  9.96*2*pi/ulx,y,z
   ENINI  =  459.7     initial cutoff
   ENAUG  =  703.4 eV  augmentation charge cutoff
   NELM   =     60;   NELMIN=  2; NELMDL= -5     # of ELM steps 
   EDIFF  = 0.5E-05   stopping-criterion for ELM
   LREAL  =      F    real-space projection
   NLSPLINE    = F    spline interpolate recip. space projectors
   LCOMPAT=      F    compatible to vasp.4.4
   GGA_COMPAT  = T    GGA compatible to vasp.4.4-vasp.4.6
   LMAXPAW     = -100 max onsite density
   LMAXMIX     =    2 max onsite mixed and CHGCAR
   VOSKOWN=      1    Vosko Wilk Nusair interpolation
   ROPT   =    0.00000   0.00000
 Ionic relaxation
   EDIFFG = 0.5E-04   stopping-criterion for IOM
   NSW    =      1    number of steps for IOM
   NBLOCK =      1;   KBLOCK =      1    inner block; outer block 
   IBRION =     -1    ionic relax: 0-MD 1-quasi-New 2-CG
   NFREE  =      0    steps in history (QN), initial steepest desc. (CG)
   ISIF   =      2    stress and relaxation
   IWAVPR =     10    prediction:  0-non 1-charg 2-wave 3-comb
   ISYM   =      2    0-nonsym 1-usesym 2-fastsym
   LCORR  =      T    Harris-Foulkes like correction to forces

   POTIM  = 0.5000    time-step for ionic-motion
   TEIN   =    0.0    initial temperature
   TEBEG  =    0.0;   TEEND  =   0.0 temperature during run
   SMASS  =  -3.00    Nose mass-parameter (am)
   estimated Nose-frequenzy (Omega)   =  0.10E-29 period in steps = 0.13E+47 mass=  -0.372E-27a.u.
   SCALEE = 1.0000    scale energy and forces
   NPACO  =    256;   APACO  = 10.0  distance and # of slots for P.C.
   PSTRESS=    0.0 pullay stress

  Mass of Ions in am
   POMASS =  58.93 58.69
  Ionic Valenz
   ZVAL   =   9.00 16.00
  Atomic Wigner-Seitz radii
   RWIGS  =  -1.00 -1.00
  virtual crystal weights 
   VCA    =   1.00  1.00
   NELECT =     150.0000    total number of electrons
   NUPDOWN=      -1.0000    fix difference up-down

 DOS related values:
   EMIN   =  10.00;   EMAX   =-10.00  energy-range for DOS
   EFERMI =   0.00;   METHOD = LEGACY      
   ISMEAR =    -5;   SIGMA  =   0.20  broadening in eV -4-tet -1-fermi 0-gaus

 Electronic relaxation 2 (details)
   IALGO  =     38    algorithm
   LDIAG  =      T    sub-space diagonalisation (order eigenvalues)
   LSUBROT=      F    optimize rotation matrix (better conditioning)
   TURBO    =      0    0=normal 1=particle mesh
   IRESTART =      0    0=no restart 2=restart with 2 vectors
   NREBOOT  =      0    no. of reboots
   NMIN     =      0    reboot dimension
   EREF     =   0.00    reference energy to select bands
   IMIX   =      4    mixing-type and parameters
     AMIX     =   0.20;   BMIX     =  0.00
     AMIX_MAG =   0.20;   BMIX_MAG =  0.00
     AMIN     =   0.10
     WC   =   100.;   INIMIX=   1;  MIXPRE=   1;  MAXMIX= -45

 Intra band minimization:
   WEIMIN = 0.0000     energy-eigenvalue tresh-hold
   EBREAK =  0.11E-07  absolut break condition
   DEPER  =   0.30     relativ break condition  

   TIME   =   0.40     timestep for ELM

  volume/ion in A,a.u.               =       8.89        59.98
  Fermi-wavevector in a.u.,A,eV,Ry     =   1.834178  3.466093 45.772819  3.364207
  Thomas-Fermi vector in A             =   2.887850
 
 Write flags
   LWAVE        =      F    write WAVECAR
   LDOWNSAMPLE  =      F    k-point downsampling of WAVECAR
   LCHARG       =      T    write CHGCAR
   LVTOT        =      F    write LOCPOT, total local potential
   LVHAR        =      F    write LOCPOT, Hartree potential only
   LELF         =      F    write electronic localiz. function (ELF)
   LORBIT       =      0    0 simple, 1 ext, 2 COOP (PROOUT), +10 PAW based schemes


 Dipole corrections
   LMONO  =      F    monopole corrections only (constant potential shift)
   LDIPOL =      F    correct potential (dipole corrections)
   IDIPOL =      0    1-x, 2-y, 3-z, 4-all directions 
   EPSILON=  1.0000000 bulk dielectric constant

 Exchange correlation treatment:
   GGA     =    --    GGA type
   LEXCH   =     2    internal setting for exchange type
   LIBXC   =     F    Libxc                    
   VOSKOWN =     1    Vosko Wilk Nusair interpolation
   LHFCALC =     F    Hartree Fock is set to
   LHFONE  =     F    Hartree Fock one center treatment
   AEXX    =    0.0000 exact exchange contribution

 Linear response parameters
   LEPSILON=     F    determine dielectric tensor
   LRPA    =     F    only Hartree local field effects (RPA)
   LNABLA  =     F    use nabla operator in PAW spheres
   LVEL    =     F    velocity operator in full k-point grid
   CSHIFT  =0.1000    complex shift for real part using Kramers Kronig
   OMEGAMAX=  -1.0    maximum frequency
   DEG_THRESHOLD= 0.2000000E-02 threshold for treating states as degnerate
   RTIME   =   -0.100 relaxation time in fs
  (WPLASMAI=    0.000 imaginary part of plasma frequency in eV, 0.658/RTIME)
   DFIELD  = 0.0000000 0.0000000 0.0000000 field for delta impulse in time
 
  Optional k-point grid parameters
   LKPOINTS_OPT  =     F    use optional k-point grid
   KPOINTS_OPT_MODE=     1    mode for optional k-point grid
 
 Orbital magnetization related:
   ORBITALMAG=     F  switch on orbital magnetization
   LCHIMAG   =     F  perturbation theory with respect to B field
   DQ        =  0.001000  dq finite difference perturbation B field
   LLRAUG    =     F  two centre corrections for induced B field
   LBONE     =     F  B-component reconstruction in AE one-centre
   LVGVCALC  =     T  calculate vGv susceptibility
   LVGVAPPL  =     F  apply vGv susceptibility instead of pGv for G=0

 Random number generation:
   RANDOM_GENERATOR = DEFAULT
   PCG_SEED         = not used


--------------------------------------------------------------------------------------------------------


 Static calculation
 charge density and potential will be updated during run
 spin polarized calculation
 Variant of blocked Davidson
 Davidson routine will perform the subspace rotation
 perform sub-space diagonalisation
    after iterative eigenvector-optimisation
 modified Broyden-mixing scheme, WC =      100.0
 initial mixing is a Kerker type mixing with AMIX =  0.2000 and BMIX =      0.0001
 Hartree-type preconditioning will be used
 using additional bands           37
 reciprocal scheme for non local part
 use partial core corrections
 calculate Harris-corrections to forces 
   (improved forces if not selfconsistent)
 use of overlap-Matrix (Vanderbilt PP)
 Fermi weights with tetrahedron method with Bloechl corrections


--------------------------------------------------------------------------------------------------------


  energy-cutoff  :      459.66
  volume of cell :      106.66
      direct lattice vectors                 reciprocal lattice vectors
     4.032030865  0.000000000 -0.005900153     0.248014507  0.000000000  0.000363611
     0.000000000  4.640529703  0.000000000     0.000000000  0.215492641  0.000000000
    -0.008357208  0.000000000  5.700345283     0.000256708  0.000000000  0.175428346

  length of vectors
     4.032035182  4.640529703  5.700351409     0.248014773  0.215492641  0.175428534


 
 k-points in units of 2pi/SCALE and weight: fcc-kp                                  
   0.00000000  0.00000000  0.00000000       0.002
   0.08540380  0.00000000  0.00012521       0.003
   0.17080759  0.00000000  0.00025042       0.003
   0.25621139  0.00000000  0.00037563       0.003
   0.34161518  0.00000000  0.00050084       0.003
   0.42701898  0.00000000  0.00062605       0.002
   0.00000000  0.08244988  0.00000000       0.003
   0.08540380  0.08244988  0.00012521       0.006
   0.17080759  0.08244988  0.00025042       0.006
   0.25621139  0.08244988  0.00037563       0.006
   0.34161518  0.08244988  0.00050084       0.006
   0.42701898  0.08244988  0.00062605       0.003
   0.00000000  0.16489976  0.00000000       0.003
   0.08540380  0.16489976  0.00012521       0.006
   0.17080759  0.16489976  0.00025042       0.006
   0.25621139  0.16489976  0.00037563       0.006
   0.34161518  0.16489976  0.00050084       0.006
   0.42701898  0.16489976  0.00062605       0.003
   0.00000000  0.24734964  0.00000000       0.003
   0.08540380  0.24734964  0.00012521       0.006
   0.17080759  0.24734964  0.00025042       0.006
   0.25621139  0.24734964  0.00037563       0.006
   0.34161518  0.24734964  0.00050084       0.006
   0.42701898  0.24734964  0.00062605       0.003
   0.00000000  0.32979951  0.00000000       0.003
   0.08540380  0.32979951  0.00012521       0.006
   0.17080759  0.32979951  0.00025042       0.006
   0.25621139  0.32979951  0.00037563       0.006
   0.34161518  0.32979951  0.00050084       0.006
   0.42701898  0.32979951  0.00062605       0.003
   0.00012628  0.00000000  0.08629822       0.003
   0.08553008  0.00000000  0.08642343       0.003
   0.17093387  0.00000000  0.08654863       0.003
   0.25633767  0.00000000  0.08667384       0.003
   0.34174146  0.00000000  0.08679905       0.003
   0.42714526  0.00000000  0.08692426       0.003
  -0.34148890  0.00000000  0.08579738       0.003
  -0.25608510  0.00000000  0.08592259       0.003
  -0.17068131  0.00000000  0.08604780       0.003
  -0.08527751  0.00000000  0.08617301       0.003
   0.00012628  0.08244988  0.08629822       0.006
   0.08553008  0.08244988  0.08642343       0.006
   0.17093387  0.08244988  0.08654863       0.006
   0.25633767  0.08244988  0.08667384       0.006
   0.34174146  0.08244988  0.08679905       0.006
   0.42714526  0.08244988  0.08692426       0.006
  -0.34148890  0.08244988  0.08579738       0.006
  -0.25608510  0.08244988  0.08592259       0.006
  -0.17068131  0.08244988  0.08604780       0.006
  -0.08527751  0.08244988  0.08617301       0.006
   0.00012628  0.16489976  0.08629822       0.006
   0.08553008  0.16489976  0.08642343       0.006
   0.17093387  0.16489976  0.08654863       0.006
   0.25633767  0.16489976  0.08667384       0.006
   0.34174146  0.16489976  0.08679905       0.006
   0.42714526  0.16489976  0.08692426       0.006
  -0.34148890  0.16489976  0.08579738       0.006
  -0.25608510  0.16489976  0.08592259       0.006
  -0.17068131  0.16489976  0.08604780       0.006
  -0.08527751  0.16489976  0.08617301       0.006
   0.00012628  0.24734964  0.08629822       0.006
   0.08553008  0.24734964  0.08642343       0.006
   0.17093387  0.24734964  0.08654863       0.006
   0.25633767  0.24734964  0.08667384       0.006
   0.34174146  0.24734964  0.08679905       0.006
   0.42714526  0.24734964  0.08692426       0.006
  -0.34148890  0.24734964  0.08579738       0.006
  -0.25608510  0.24734964  0.08592259       0.006
  -0.17068131  0.24734964  0.08604780       0.006
  -0.08527751  0.24734964  0.08617301       0.006
   0.00012628  0.32979951  0.08629822       0.006
   0.08553008  0.32979951  0.08642343       0.006
   0.17093387  0.32979951  0.08654863       0.006
   0.25633767  0.32979951  0.08667384       0.006
   0.34174146  0.32979951  0.08679905       0.006
   0.42714526  0.32979951  0.08692426       0.006
  -0.34148890  0.32979951  0.08579738       0.006
  -0.25608510  0.32979951  0.08592259       0.006
  -0.17068131  0.32979951  0.08604780       0.006
  -0.08527751  0.32979951  0.08617301       0.006
   0.00025256  0.00000000  0.17259643       0.003
   0.08565636  0.00000000  0.17272164       0.003
   0.17106015  0.00000000  0.17284685       0.003
   0.25646395  0.00000000  0.17297206       0.003
   0.34186775  0.00000000  0.17309727       0.003
   0.42727154  0.00000000  0.17322248       0.003
  -0.34136262  0.00000000  0.17209559       0.003
  -0.25595882  0.00000000  0.17222080       0.003
  -0.17055503  0.00000000  0.17234601       0.003
  -0.08515123  0.00000000  0.17247122       0.003
   0.00025256  0.08244988  0.17259643       0.006
   0.08565636  0.08244988  0.17272164       0.006
   0.17106015  0.08244988  0.17284685       0.006
   0.25646395  0.08244988  0.17297206       0.006
   0.34186775  0.08244988  0.17309727       0.006
   0.42727154  0.08244988  0.17322248       0.006
  -0.34136262  0.08244988  0.17209559       0.006
  -0.25595882  0.08244988  0.17222080       0.006
  -0.17055503  0.08244988  0.17234601       0.006
  -0.08515123  0.08244988  0.17247122       0.006
   0.00025256  0.16489976  0.17259643       0.006
   0.08565636  0.16489976  0.17272164       0.006
   0.17106015  0.16489976  0.17284685       0.006
   0.25646395  0.16489976  0.17297206       0.006
   0.34186775  0.16489976  0.17309727       0.006
   0.42727154  0.16489976  0.17322248       0.006
  -0.34136262  0.16489976  0.17209559       0.006
  -0.25595882  0.16489976  0.17222080       0.006
  -0.17055503  0.16489976  0.17234601       0.006
  -0.08515123  0.16489976  0.17247122       0.006
   0.00025256  0.24734964  0.17259643       0.006
   0.08565636  0.24734964  0.17272164       0.006
   0.17106015  0.24734964  0.17284685       0.006
   0.25646395  0.24734964  0.17297206       0.006
   0.34186775  0.24734964  0.17309727       0.006
   0.42727154  0.24734964  0.17322248       0.006
  -0.34136262  0.24734964  0.17209559       0.006
  -0.25595882  0.24734964  0.17222080       0.006
  -0.17055503  0.24734964  0.17234601       0.006
  -0.08515123  0.24734964  0.17247122       0.006
   0.00025256  0.32979951  0.17259643       0.006
   0.08565636  0.32979951  0.17272164       0.006
   0.17106015  0.32979951  0.17284685       0.006
   0.25646395  0.32979951  0.17297206       0.006
   0.34186775  0.32979951  0.17309727       0.006
   0.42727154  0.32979951  0.17322248       0.006
  -0.34136262  0.32979951  0.17209559       0.006
  -0.25595882  0.32979951  0.17222080       0.006
  -0.17055503  0.32979951  0.17234601       0.006
  -0.08515123  0.32979951  0.17247122       0.006
   0.00037885  0.00000000  0.25889465       0.003
   0.08578264  0.00000000  0.25901986       0.003
   0.17118644  0.00000000  0.25914507       0.003
   0.25659023  0.00000000  0.25927028       0.003
   0.34199403  0.00000000  0.25939549       0.003
   0.42739782  0.00000000  0.25952069       0.003
  -0.34123634  0.00000000  0.25839381       0.003
  -0.25583254  0.00000000  0.25851902       0.003
  -0.17042874  0.00000000  0.25864423       0.003
  -0.08502495  0.00000000  0.25876944       0.003
   0.00037885  0.08244988  0.25889465       0.006
   0.08578264  0.08244988  0.25901986       0.006
   0.17118644  0.08244988  0.25914507       0.006
   0.25659023  0.08244988  0.25927028       0.006
   0.34199403  0.08244988  0.25939549       0.006
   0.42739782  0.08244988  0.25952069       0.006
  -0.34123634  0.08244988  0.25839381       0.006
  -0.25583254  0.08244988  0.25851902       0.006
  -0.17042874  0.08244988  0.25864423       0.006
  -0.08502495  0.08244988  0.25876944       0.006
   0.00037885  0.16489976  0.25889465       0.006
   0.08578264  0.16489976  0.25901986       0.006
   0.17118644  0.16489976  0.25914507       0.006
   0.25659023  0.16489976  0.25927028       0.006
   0.34199403  0.16489976  0.25939549       0.006
   0.42739782  0.16489976  0.25952069       0.006
  -0.34123634  0.16489976  0.25839381       0.006
  -0.25583254  0.16489976  0.25851902       0.006
  -0.17042874  0.16489976  0.25864423       0.006
  -0.08502495  0.16489976  0.25876944       0.006
   0.00037885  0.24734964  0.25889465       0.006
   0.08578264  0.24734964  0.25901986       0.006
   0.17118644  0.24734964  0.25914507       0.006
   0.25659023  0.24734964  0.25927028       0.006
   0.34199403  0.24734964  0.25939549       0.006
   0.42739782  0.24734964  0.25952069       0.006
  -0.34123634  0.24734964  0.25839381       0.006
  -0.25583254  0.24734964  0.25851902       0.006
  -0.17042874  0.24734964  0.25864423       0.006
  -0.08502495  0.24734964  0.25876944       0.006
   0.00037885  0.32979951  0.25889465       0.006
   0.08578264  0.32979951  0.25901986       0.006
   0.17118644  0.32979951  0.25914507       0.006
   0.25659023  0.32979951  0.25927028       0.006
   0.34199403  0.32979951  0.25939549       0.006
   0.42739782  0.32979951  0.25952069       0.006
  -0.34123634  0.32979951  0.25839381       0.006
  -0.25583254  0.32979951  0.25851902       0.006
  -0.17042874  0.32979951  0.25864423       0.006
  -0.08502495  0.32979951  0.25876944       0.006
 
 k-points in reciprocal lattice and weights: fcc-kp                                  
   0.00000000  0.00000000  0.00000000       0.002
   0.10000000  0.00000000  0.00000000       0.003
   0.20000000  0.00000000  0.00000000       0.003
   0.30000000  0.00000000  0.00000000       0.003
   0.40000000  0.00000000  0.00000000       0.003
   0.50000000  0.00000000  0.00000000       0.002
   0.00000000  0.11111111  0.00000000       0.003
   0.10000000  0.11111111  0.00000000       0.006
   0.20000000  0.11111111  0.00000000       0.006
   0.30000000  0.11111111  0.00000000       0.006
   0.40000000  0.11111111  0.00000000       0.006
   0.50000000  0.11111111  0.00000000       0.003
   0.00000000  0.22222222  0.00000000       0.003
   0.10000000  0.22222222  0.00000000       0.006
   0.20000000  0.22222222  0.00000000       0.006
   0.30000000  0.22222222  0.00000000       0.006
   0.40000000  0.22222222  0.00000000       0.006
   0.50000000  0.22222222  0.00000000       0.003
   0.00000000  0.33333333  0.00000000       0.003
   0.10000000  0.33333333  0.00000000       0.006
   0.20000000  0.33333333  0.00000000       0.006
   0.30000000  0.33333333  0.00000000       0.006
   0.40000000  0.33333333  0.00000000       0.006
   0.50000000  0.33333333  0.00000000       0.003
   0.00000000  0.44444444  0.00000000       0.003
   0.10000000  0.44444444  0.00000000       0.006
   0.20000000  0.44444444  0.00000000       0.006
   0.30000000  0.44444444  0.00000000       0.006
   0.40000000  0.44444444  0.00000000       0.006
   0.50000000  0.44444444  0.00000000       0.003
   0.00000000  0.00000000  0.14285714       0.003
   0.10000000  0.00000000  0.14285714       0.003
   0.20000000  0.00000000  0.14285714       0.003
   0.30000000  0.00000000  0.14285714       0.003
   0.40000000  0.00000000  0.14285714       0.003
   0.50000000  0.00000000  0.14285714       0.003
  -0.40000000  0.00000000  0.14285714       0.003
  -0.30000000  0.00000000  0.14285714       0.003
  -0.20000000  0.00000000  0.14285714       0.003
  -0.10000000  0.00000000  0.14285714       0.003
   0.00000000  0.11111111  0.14285714       0.006
   0.10000000  0.11111111  0.14285714       0.006
   0.20000000  0.11111111  0.14285714       0.006
   0.30000000  0.11111111  0.14285714       0.006
   0.40000000  0.11111111  0.14285714       0.006
   0.50000000  0.11111111  0.14285714       0.006
  -0.40000000  0.11111111  0.14285714       0.006
  -0.30000000  0.11111111  0.14285714       0.006
  -0.20000000  0.11111111  0.14285714       0.006
  -0.10000000  0.11111111  0.14285714       0.006
   0.00000000  0.22222222  0.14285714       0.006
   0.10000000  0.22222222  0.14285714       0.006
   0.20000000  0.22222222  0.14285714       0.006
   0.30000000  0.22222222  0.14285714       0.006
   0.40000000  0.22222222  0.14285714       0.006
   0.50000000  0.22222222  0.14285714       0.006
  -0.40000000  0.22222222  0.14285714       0.006
  -0.30000000  0.22222222  0.14285714       0.006
  -0.20000000  0.22222222  0.14285714       0.006
  -0.10000000  0.22222222  0.14285714       0.006
   0.00000000  0.33333333  0.14285714       0.006
   0.10000000  0.33333333  0.14285714       0.006
   0.20000000  0.33333333  0.14285714       0.006
   0.30000000  0.33333333  0.14285714       0.006
   0.40000000  0.33333333  0.14285714       0.006
   0.50000000  0.33333333  0.14285714       0.006
  -0.40000000  0.33333333  0.14285714       0.006
  -0.30000000  0.33333333  0.14285714       0.006
  -0.20000000  0.33333333  0.14285714       0.006
  -0.10000000  0.33333333  0.14285714       0.006
   0.00000000  0.44444444  0.14285714       0.006
   0.10000000  0.44444444  0.14285714       0.006
   0.20000000  0.44444444  0.14285714       0.006
   0.30000000  0.44444444  0.14285714       0.006
   0.40000000  0.44444444  0.14285714       0.006
   0.50000000  0.44444444  0.14285714       0.006
  -0.40000000  0.44444444  0.14285714       0.006
  -0.30000000  0.44444444  0.14285714       0.006
  -0.20000000  0.44444444  0.14285714       0.006
  -0.10000000  0.44444444  0.14285714       0.006
   0.00000000  0.00000000  0.28571429       0.003
   0.10000000  0.00000000  0.28571429       0.003
   0.20000000  0.00000000  0.28571429       0.003
   0.30000000  0.00000000  0.28571429       0.003
   0.40000000  0.00000000  0.28571429       0.003
   0.50000000  0.00000000  0.28571429       0.003
  -0.40000000  0.00000000  0.28571429       0.003
  -0.30000000  0.00000000  0.28571429       0.003
  -0.20000000  0.00000000  0.28571429       0.003
  -0.10000000  0.00000000  0.28571429       0.003
   0.00000000  0.11111111  0.28571429       0.006
   0.10000000  0.11111111  0.28571429       0.006
   0.20000000  0.11111111  0.28571429       0.006
   0.30000000  0.11111111  0.28571429       0.006
   0.40000000  0.11111111  0.28571429       0.006
   0.50000000  0.11111111  0.28571429       0.006
  -0.40000000  0.11111111  0.28571429       0.006
  -0.30000000  0.11111111  0.28571429       0.006
  -0.20000000  0.11111111  0.28571429       0.006
  -0.10000000  0.11111111  0.28571429       0.006
   0.00000000  0.22222222  0.28571429       0.006
   0.10000000  0.22222222  0.28571429       0.006
   0.20000000  0.22222222  0.28571429       0.006
   0.30000000  0.22222222  0.28571429       0.006
   0.40000000  0.22222222  0.28571429       0.006
   0.50000000  0.22222222  0.28571429       0.006
  -0.40000000  0.22222222  0.28571429       0.006
  -0.30000000  0.22222222  0.28571429       0.006
  -0.20000000  0.22222222  0.28571429       0.006
  -0.10000000  0.22222222  0.28571429       0.006
   0.00000000  0.33333333  0.28571429       0.006
   0.10000000  0.33333333  0.28571429       0.006
   0.20000000  0.33333333  0.28571429       0.006
   0.30000000  0.33333333  0.28571429       0.006
   0.40000000  0.33333333  0.28571429       0.006
   0.50000000  0.33333333  0.28571429       0.006
  -0.40000000  0.33333333  0.28571429       0.006
  -0.30000000  0.33333333  0.28571429       0.006
  -0.20000000  0.33333333  0.28571429       0.006
  -0.10000000  0.33333333  0.28571429       0.006
   0.00000000  0.44444444  0.28571429       0.006
   0.10000000  0.44444444  0.28571429       0.006
   0.20000000  0.44444444  0.28571429       0.006
   0.30000000  0.44444444  0.28571429       0.006
   0.40000000  0.44444444  0.28571429       0.006
   0.50000000  0.44444444  0.28571429       0.006
  -0.40000000  0.44444444  0.28571429       0.006
  -0.30000000  0.44444444  0.28571429       0.006
  -0.20000000  0.44444444  0.28571429       0.006
  -0.10000000  0.44444444  0.28571429       0.006
   0.00000000  0.00000000  0.42857143       0.003
   0.10000000  0.00000000  0.42857143       0.003
   0.20000000  0.00000000  0.42857143       0.003
   0.30000000  0.00000000  0.42857143       0.003
   0.40000000  0.00000000  0.42857143       0.003
   0.50000000  0.00000000  0.42857143       0.003
  -0.40000000  0.00000000  0.42857143       0.003
  -0.30000000  0.00000000  0.42857143       0.003
  -0.20000000  0.00000000  0.42857143       0.003
  -0.10000000  0.00000000  0.42857143       0.003
   0.00000000  0.11111111  0.42857143       0.006
   0.10000000  0.11111111  0.42857143       0.006
   0.20000000  0.11111111  0.42857143       0.006
   0.30000000  0.11111111  0.42857143       0.006
   0.40000000  0.11111111  0.42857143       0.006
   0.50000000  0.11111111  0.42857143       0.006
  -0.40000000  0.11111111  0.42857143       0.006
  -0.30000000  0.11111111  0.42857143       0.006
  -0.20000000  0.11111111  0.42857143       0.006
  -0.10000000  0.11111111  0.42857143       0.006
   0.00000000  0.22222222  0.42857143       0.006
   0.10000000  0.22222222  0.42857143       0.006
   0.20000000  0.22222222  0.42857143       0.006
   0.30000000  0.22222222  0.42857143       0.006
   0.40000000  0.22222222  0.42857143       0.006
   0.50000000  0.22222222  0.42857143       0.006
  -0.40000000  0.22222222  0.42857143       0.006
  -0.30000000  0.22222222  0.42857143       0.006
  -0.20000000  0.22222222  0.42857143       0.006
  -0.10000000  0.22222222  0.42857143       0.006
   0.00000000  0.33333333  0.42857143       0.006
   0.10000000  0.33333333  0.42857143       0.006
   0.20000000  0.33333333  0.42857143       0.006
   0.30000000  0.33333333  0.42857143       0.006
   0.40000000  0.33333333  0.42857143       0.006
   0.50000000  0.33333333  0.42857143       0.006
  -0.40000000  0.33333333  0.42857143       0.006
  -0.30000000  0.33333333  0.42857143       0.006
  -0.20000000  0.33333333  0.42857143       0.006
  -0.10000000  0.33333333  0.42857143       0.006
   0.00000000  0.44444444  0.42857143       0.006
   0.10000000  0.44444444  0.42857143       0.006
   0.20000000  0.44444444  0.42857143       0.006
   0.30000000  0.44444444  0.42857143       0.006
   0.40000000  0.44444444  0.42857143       0.006
   0.50000000  0.44444444  0.42857143       0.006
  -0.40000000  0.44444444  0.42857143       0.006
  -0.30000000  0.44444444  0.42857143       0.006
  -0.20000000  0.44444444  0.42857143       0.006
  -0.10000000  0.44444444  0.42857143       0.006
 
 position of ions in fractional coordinates (direct lattice) 
   0.83379007  0.25000000  0.33612614
   0.83379007  0.75000000  0.33612614
   0.16575296  0.25000000  0.66512268
   0.16575296  0.75000000  0.66512268
   0.66688139  0.00000000  0.66556529
   0.66688139  0.50000000  0.66556529
   0.50047791  0.25000000  0.99946863
   0.50047791  0.75000000  0.99946863
   0.99985136  0.00000000  0.99920469
   0.99985136  0.50000000  0.99920469
   0.33324631  0.00000000  0.33451257
   0.33324631  0.50000000  0.33451257
 
 position of ions in cartesian coordinates  (Angst):
   3.35905823  1.16013243  1.91111558
   3.35905823  3.48039728  1.91111558
   0.66276246  1.16013243  3.79045099
   0.66276246  3.48039728  3.79045099
   2.68332410  0.00000000  3.79001724
   2.68332410  2.32026485  3.79001724
   2.00958959  1.16013243  5.69436342
   2.00958959  3.48039728  5.69436342
   4.02308098  0.00000000  5.68991244
   4.02308098  2.32026485  5.68991244
   1.34086383  0.00000000  1.90487092
   1.34086383  2.32026485  1.90487092
 


--------------------------------------------------------------------------------------------------------


 k-point   1 :   0.0000 0.0000 0.0000  plane waves:    2369
 k-point   2 :   0.1000 0.0000 0.0000  plane waves:    2379
 k-point   3 :   0.2000 0.0000 0.0000  plane waves:    2377
 k-point   4 :   0.3000 0.0000 0.0000  plane waves:    2374
 k-point   5 :   0.4000 0.0000 0.0000  plane waves:    2372
 k-point   6 :   0.5000 0.0000 0.0000  plane waves:    2378
 k-point   7 :   0.0000 0.1111 0.0000  plane waves:    2377
 k-point   8 :   0.1000 0.1111 0.0000  plane waves:    2371
 k-point   9 :   0.2000 0.1111 0.0000  plane waves:    2380
 k-point  10 :   0.3000 0.1111 0.0000  plane waves:    2382
 k-point  11 :   0.4000 0.1111 0.0000  plane waves:    2380
 k-point  12 :   0.5000 0.1111 0.0000  plane waves:    2372
 k-point  13 :   0.0000 0.2222 0.0000  plane waves:    2366
 k-point  14 :   0.1000 0.2222 0.0000  plane waves:    2367
 k-point  15 :   0.2000 0.2222 0.0000  plane waves:    2385
 k-point  16 :   0.3000 0.2222 0.0000  plane waves:    2383
 k-point  17 :   0.4000 0.2222 0.0000  plane waves:    2395
 k-point  18 :   0.5000 0.2222 0.0000  plane waves:    2392
 k-point  19 :   0.0000 0.3333 0.0000  plane waves:    2364
 k-point  20 :   0.1000 0.3333 0.0000  plane waves:    2380
 k-point  21 :   0.2000 0.3333 0.0000  plane waves:    2386
 k-point  22 :   0.3000 0.3333 0.0000  plane waves:    2394
 k-point  23 :   0.4000 0.3333 0.0000  plane waves:    2402
 k-point  24 :   0.5000 0.3333 0.0000  plane waves:    2404
 k-point  25 :   0.0000 0.4444 0.0000  plane waves:    2384
 k-point  26 :   0.1000 0.4444 0.0000  plane waves:    2372
 k-point  27 :   0.2000 0.4444 0.0000  plane waves:    2372
 k-point  28 :   0.3000 0.4444 0.0000  plane waves:    2387
 k-point  29 :   0.4000 0.4444 0.0000  plane waves:    2397
 k-point  30 :   0.5000 0.4444 0.0000  plane waves:    2392
 k-point  31 :   0.0000 0.0000 0.1429  plane waves:    2369
 k-point  32 :   0.1000 0.0000 0.1429  plane waves:    2374
 k-point  33 :   0.2000 0.0000 0.1429  plane waves:    2372
 k-point  34 :   0.3000 0.0000 0.1429  plane waves:    2378
 k-point  35 :   0.4000 0.0000 0.1429  plane waves:    2383
 k-point  36 :   0.5000 0.0000 0.1429  plane waves:    2379
 k-point  37 :  -0.4000 0.0000 0.1429  plane waves:    2381
 k-point  38 :  -0.3000 0.0000 0.1429  plane waves:    2387
 k-point  39 :  -0.2000 0.0000 0.1429  plane waves:    2377
 k-point  40 :  -0.1000 0.0000 0.1429  plane waves:    2373
 k-point  41 :   0.0000 0.1111 0.1429  plane waves:    2379
 k-point  42 :   0.1000 0.1111 0.1429  plane waves:    2373
 k-point  43 :   0.2000 0.1111 0.1429  plane waves:    2377
 k-point  44 :   0.3000 0.1111 0.1429  plane waves:    2380
 k-point  45 :   0.4000 0.1111 0.1429  plane waves:    2392
 k-point  46 :   0.5000 0.1111 0.1429  plane waves:    2384
 k-point  47 :  -0.4000 0.1111 0.1429  plane waves:    2393
 k-point  48 :  -0.3000 0.1111 0.1429  plane waves:    2383
 k-point  49 :  -0.2000 0.1111 0.1429  plane waves:    2380
 k-point  50 :  -0.1000 0.1111 0.1429  plane waves:    2371
 k-point  51 :   0.0000 0.2222 0.1429  plane waves:    2369
 k-point  52 :   0.1000 0.2222 0.1429  plane waves:    2379
 k-point  53 :   0.2000 0.2222 0.1429  plane waves:    2391
 k-point  54 :   0.3000 0.2222 0.1429  plane waves:    2389
 k-point  55 :   0.4000 0.2222 0.1429  plane waves:    2384
 k-point  56 :   0.5000 0.2222 0.1429  plane waves:    2389
 k-point  57 :  -0.4000 0.2222 0.1429  plane waves:    2390
 k-point  58 :  -0.3000 0.2222 0.1429  plane waves:    2388
 k-point  59 :  -0.2000 0.2222 0.1429  plane waves:    2386
 k-point  60 :  -0.1000 0.2222 0.1429  plane waves:    2377
 k-point  61 :   0.0000 0.3333 0.1429  plane waves:    2377
 k-point  62 :   0.1000 0.3333 0.1429  plane waves:    2381
 k-point  63 :   0.2000 0.3333 0.1429  plane waves:    2390
 k-point  64 :   0.3000 0.3333 0.1429  plane waves:    2395
 k-point  65 :   0.4000 0.3333 0.1429  plane waves:    2393
 k-point  66 :   0.5000 0.3333 0.1429  plane waves:    2402
 k-point  67 :  -0.4000 0.3333 0.1429  plane waves:    2394
 k-point  68 :  -0.3000 0.3333 0.1429  plane waves:    2395
 k-point  69 :  -0.2000 0.3333 0.1429  plane waves:    2384
 k-point  70 :  -0.1000 0.3333 0.1429  plane waves:    2381
 k-point  71 :   0.0000 0.4444 0.1429  plane waves:    2382
 k-point  72 :   0.1000 0.4444 0.1429  plane waves:    2391
 k-point  73 :   0.2000 0.4444 0.1429  plane waves:    2385
 k-point  74 :   0.3000 0.4444 0.1429  plane waves:    2396
 k-point  75 :   0.4000 0.4444 0.1429  plane waves:    2395
 k-point  76 :   0.5000 0.4444 0.1429  plane waves:    2399
 k-point  77 :  -0.4000 0.4444 0.1429  plane waves:    2399
 k-point  78 :  -0.3000 0.4444 0.1429  plane waves:    2392
 k-point  79 :  -0.2000 0.4444 0.1429  plane waves:    2384
 k-point  80 :  -0.1000 0.4444 0.1429  plane waves:    2379
 k-point  81 :   0.0000 0.0000 0.2857  plane waves:    2370
 k-point  82 :   0.1000 0.0000 0.2857  plane waves:    2376
 k-point  83 :   0.2000 0.0000 0.2857  plane waves:    2384
 k-point  84 :   0.3000 0.0000 0.2857  plane waves:    2394
 k-point  85 :   0.4000 0.0000 0.2857  plane waves:    2384
 k-point  86 :   0.5000 0.0000 0.2857  plane waves:    2380
 k-point  87 :  -0.4000 0.0000 0.2857  plane waves:    2386
 k-point  88 :  -0.3000 0.0000 0.2857  plane waves:    2390
 k-point  89 :  -0.2000 0.0000 0.2857  plane waves:    2378
 k-point  90 :  -0.1000 0.0000 0.2857  plane waves:    2377
 k-point  91 :   0.0000 0.1111 0.2857  plane waves:    2368
 k-point  92 :   0.1000 0.1111 0.2857  plane waves:    2380
 k-point  93 :   0.2000 0.1111 0.2857  plane waves:    2382
 k-point  94 :   0.3000 0.1111 0.2857  plane waves:    2385
 k-point  95 :   0.4000 0.1111 0.2857  plane waves:    2385
 k-point  96 :   0.5000 0.1111 0.2857  plane waves:    2387
 k-point  97 :  -0.4000 0.1111 0.2857  plane waves:    2387
 k-point  98 :  -0.3000 0.1111 0.2857  plane waves:    2389
 k-point  99 :  -0.2000 0.1111 0.2857  plane waves:    2380
 k-point 100 :  -0.1000 0.1111 0.2857  plane waves:    2382
 k-point 101 :   0.0000 0.2222 0.2857  plane waves:    2384
 k-point 102 :   0.1000 0.2222 0.2857  plane waves:    2382
 k-point 103 :   0.2000 0.2222 0.2857  plane waves:    2388
 k-point 104 :   0.3000 0.2222 0.2857  plane waves:    2393
 k-point 105 :   0.4000 0.2222 0.2857  plane waves:    2395
 k-point 106 :   0.5000 0.2222 0.2857  plane waves:    2391
 k-point 107 :  -0.4000 0.2222 0.2857  plane waves:    2391
 k-point 108 :  -0.3000 0.2222 0.2857  plane waves:    2394
 k-point 109 :  -0.2000 0.2222 0.2857  plane waves:    2386
 k-point 110 :  -0.1000 0.2222 0.2857  plane waves:    2381
 k-point 111 :   0.0000 0.3333 0.2857  plane waves:    2382
 k-point 112 :   0.1000 0.3333 0.2857  plane waves:    2387
 k-point 113 :   0.2000 0.3333 0.2857  plane waves:    2391
 k-point 114 :   0.3000 0.3333 0.2857  plane waves:    2391
 k-point 115 :   0.4000 0.3333 0.2857  plane waves:    2393
 k-point 116 :   0.5000 0.3333 0.2857  plane waves:    2388
 k-point 117 :  -0.4000 0.3333 0.2857  plane waves:    2390
 k-point 118 :  -0.3000 0.3333 0.2857  plane waves:    2390
 k-point 119 :  -0.2000 0.3333 0.2857  plane waves:    2392
 k-point 120 :  -0.1000 0.3333 0.2857  plane waves:    2384
 k-point 121 :   0.0000 0.4444 0.2857  plane waves:    2383
 k-point 122 :   0.1000 0.4444 0.2857  plane waves:    2388
 k-point 123 :   0.2000 0.4444 0.2857  plane waves:    2398
 k-point 124 :   0.3000 0.4444 0.2857  plane waves:    2390
 k-point 125 :   0.4000 0.4444 0.2857  plane waves:    2399
 k-point 126 :   0.5000 0.4444 0.2857  plane waves:    2405
 k-point 127 :  -0.4000 0.4444 0.2857  plane waves:    2395
 k-point 128 :  -0.3000 0.4444 0.2857  plane waves:    2391
 k-point 129 :  -0.2000 0.4444 0.2857  plane waves:    2391
 k-point 130 :  -0.1000 0.4444 0.2857  plane waves:    2387
 k-point 131 :   0.0000 0.0000 0.4286  plane waves:    2390
 k-point 132 :   0.1000 0.0000 0.4286  plane waves:    2384
 k-point 133 :   0.2000 0.0000 0.4286  plane waves:    2387
 k-point 134 :   0.3000 0.0000 0.4286  plane waves:    2395
 k-point 135 :   0.4000 0.0000 0.4286  plane waves:    2395
 k-point 136 :   0.5000 0.0000 0.4286  plane waves:    2410
 k-point 137 :  -0.4000 0.0000 0.4286  plane waves:    2398
 k-point 138 :  -0.3000 0.0000 0.4286  plane waves:    2394
 k-point 139 :  -0.2000 0.0000 0.4286  plane waves:    2383
 k-point 140 :  -0.1000 0.0000 0.4286  plane waves:    2389
 k-point 141 :   0.0000 0.1111 0.4286  plane waves:    2382
 k-point 142 :   0.1000 0.1111 0.4286  plane waves:    2381
 k-point 143 :   0.2000 0.1111 0.4286  plane waves:    2386
 k-point 144 :   0.3000 0.1111 0.4286  plane waves:    2385
 k-point 145 :   0.4000 0.1111 0.4286  plane waves:    2390
 k-point 146 :   0.5000 0.1111 0.4286  plane waves:    2404
 k-point 147 :  -0.4000 0.1111 0.4286  plane waves:    2390
 k-point 148 :  -0.3000 0.1111 0.4286  plane waves:    2388
 k-point 149 :  -0.2000 0.1111 0.4286  plane waves:    2389
 k-point 150 :  -0.1000 0.1111 0.4286  plane waves:    2379
 k-point 151 :   0.0000 0.2222 0.4286  plane waves:    2379
 k-point 152 :   0.1000 0.2222 0.4286  plane waves:    2387
 k-point 153 :   0.2000 0.2222 0.4286  plane waves:    2387
 k-point 154 :   0.3000 0.2222 0.4286  plane waves:    2391
 k-point 155 :   0.4000 0.2222 0.4286  plane waves:    2394
 k-point 156 :   0.5000 0.2222 0.4286  plane waves:    2400
 k-point 157 :  -0.4000 0.2222 0.4286  plane waves:    2398
 k-point 158 :  -0.3000 0.2222 0.4286  plane waves:    2387
 k-point 159 :  -0.2000 0.2222 0.4286  plane waves:    2387
 k-point 160 :  -0.1000 0.2222 0.4286  plane waves:    2385
 k-point 161 :   0.0000 0.3333 0.4286  plane waves:    2376
 k-point 162 :   0.1000 0.3333 0.4286  plane waves:    2385
 k-point 163 :   0.2000 0.3333 0.4286  plane waves:    2387
 k-point 164 :   0.3000 0.3333 0.4286  plane waves:    2389
 k-point 165 :   0.4000 0.3333 0.4286  plane waves:    2392
 k-point 166 :   0.5000 0.3333 0.4286  plane waves:    2392
 k-point 167 :  -0.4000 0.3333 0.4286  plane waves:    2390
 k-point 168 :  -0.3000 0.3333 0.4286  plane waves:    2387
 k-point 169 :  -0.2000 0.3333 0.4286  plane waves:    2390
 k-point 170 :  -0.1000 0.3333 0.4286  plane waves:    2385
 k-point 171 :   0.0000 0.4444 0.4286  plane waves:    2383
 k-point 172 :   0.1000 0.4444 0.4286  plane waves:    2392
 k-point 173 :   0.2000 0.4444 0.4286  plane waves:    2399
 k-point 174 :   0.3000 0.4444 0.4286  plane waves:    2395
 k-point 175 :   0.4000 0.4444 0.4286  plane waves:    2391
 k-point 176 :   0.5000 0.4444 0.4286  plane waves:    2395
 k-point 177 :  -0.4000 0.4444 0.4286  plane waves:    2390
 k-point 178 :  -0.3000 0.4444 0.4286  plane waves:    2393
 k-point 179 :  -0.2000 0.4444 0.4286  plane waves:    2404
 k-point 180 :  -0.1000 0.4444 0.4286  plane waves:    2392

 maximum and minimum number of plane-waves per node :       816      771

 maximum number of plane-waves:      2410
 maximum index in each direction: 
   IXMAX=    7   IYMAX=    8   IZMAX=    9
   IXMIN=   -7   IYMIN=   -8   IZMIN=  -10


 parallel 3D FFT for wavefunctions:
    minimum data exchange during FFTs selected (reduces bandwidth)
 parallel 3D FFT for charge:
    minimum data exchange during FFTs selected (reduces bandwidth)


 total amount of memory used by VASP MPI-rank0   145436. kBytes
=======================================================================

   base      :      30000. kBytes
   nonl-proj :      42041. kBytes
   fftplans  :        656. kBytes
   grid      :       1652. kBytes
   one-center:        124. kBytes
   wavefun   :      70963. kBytes
 
     INWAV:  cpu time      0.0001: real time      0.0007
 Broyden mixing: mesh for mixing (old mesh)
   NGX = 15   NGY = 17   NGZ = 19
  (NGX  = 48   NGY  = 54   NGZ  = 70)
  gives a total of   4845 points

 initial charge density was supplied:
 charge density of overlapping atoms calculated
 number of electron     150.0000000 magnetization      36.0000000
 keeping initial charge density in first step


--------------------------------------------------------------------------------------------------------


 Maximum index for augmentation-charges          334 (set IRDMAX)


--------------------------------------------------------------------------------------------------------


 First call to EWALD:  gamma=   0.374
 Maximum number of real-space cells 3x 3x 2
 Maximum number of reciprocal cells 2x 3x 3

    FEWALD:  cpu time      0.0006: real time      0.0006


--------------------------------------- Ionic step        1  -------------------------------------------




--------------------------------------- Iteration      1(   1)  ---------------------------------------


    POTLOK:  cpu time      0.0029: real time      0.0035
    SETDIJ:  cpu time      0.0037: real time      0.0037
     EDDAV:  cpu time      8.0273: real time      8.0531
 BZINTS: Fermi energy:   29.354825;  150.000000 electrons
         Band energy: 0.103318E+04;  BLOECHL correction:   -0.148669
       DOS:  cpu time      0.5723: real time      0.5735
    --------------------------------------------
      LOOP:  cpu time      8.6062: real time      8.6338

 eigenvalue-minimisations  : 89800
 total energy-change (2. order) : 0.1958980E+04  (-0.7014345E+04)
 number of electron     150.0000000 magnetization      36.0000000
 augmentation part      150.0000000 magnetization      36.0000000

 Free energy of the ion-electron system (eV)
  ---------------------------------------------------
  alpha Z        PSCENC =      1702.25328229
  Ewald energy   TEWEN  =    -19145.21945391
  -Hartree energ DENC   =     -7031.37274696
  -exchange      EXHF   =         0.00000000
  -V(xc)+E(xc)   XCENC  =       671.08307362
  PAW double counting   =     19934.15191062   -21135.41606588
  entropy T*S    EENTRO =         0.00000000
  eigenvalues    EBANDS =      1033.17580385
  atomic energy  EATOM  =     25930.32421885
  Solvation  Ediel_sol  =         0.00000000
  ---------------------------------------------------
  free energy    TOTEN  =      1958.98002249 eV

  energy without entropy =     1958.98002249  energy(sigma->0) =     1958.98002249


--------------------------------------------------------------------------------------------------------




--------------------------------------- Iteration      1(   2)  ---------------------------------------


     EDDAV:  cpu time      7.5087: real time      7.5365
 BZINTS: Fermi energy:   14.239939;  150.000000 electrons
         Band energy:-0.758645E+03;  BLOECHL correction:   -0.061848
       DOS:  cpu time      0.5752: real time      0.5763
    --------------------------------------------
      LOOP:  cpu time      8.0839: real time      8.1128

 eigenvalue-minimisations  : 80640
 total energy-change (2. order) :-0.1791821E+04  (-0.1671576E+04)
 number of electron     150.0000000 magnetization      36.0000000
 augmentation part      150.0000000 magnetization      36.0000000

 Free energy of the ion-electron system (eV)
  ---------------------------------------------------
  alpha Z        PSCENC =      1702.25328229
  Ewald energy   TEWEN  =    -19145.21945391
  -Hartree energ DENC   =     -7031.37274696
  -exchange      EXHF   =         0.00000000
  -V(xc)+E(xc)   XCENC  =       671.08307362
  PAW double counting   =     19934.15191062   -21135.41606588
  entropy T*S    EENTRO =         0.00000000
  eigenvalues    EBANDS =      -758.64472524
  atomic energy  EATOM  =     25930.32421885
  Solvation  Ediel_sol  =         0.00000000
  ---------------------------------------------------
  free energy    TOTEN  =       167.15949339 eV

  energy without entropy =      167.15949339  energy(sigma->0) =      167.15949339


--------------------------------------------------------------------------------------------------------




--------------------------------------- Iteration      1(   3)  ---------------------------------------


     EDDAV:  cpu time      7.5940: real time      7.6220
 BZINTS: Fermi energy:   11.548634;  150.000000 electrons
         Band energy:-0.100598E+04;  BLOECHL correction:   -0.101570
       DOS:  cpu time      0.5759: real time      0.5786
    --------------------------------------------
      LOOP:  cpu time      8.1699: real time      8.2006

 eigenvalue-minimisations  : 82240
 total energy-change (2. order) :-0.2473362E+03  (-0.2055038E+03)
 number of electron     150.0000000 magnetization      36.0000000
 augmentation part      150.0000000 magnetization      36.0000000

 Free energy of the ion-electron system (eV)
  ---------------------------------------------------
  alpha Z        PSCENC =      1702.25328229
  Ewald energy   TEWEN  =    -19145.21945391
  -Hartree energ DENC   =     -7031.37274696
  -exchange      EXHF   =         0.00000000
  -V(xc)+E(xc)   XCENC  =       671.08307362
  PAW double counting   =     19934.15191062   -21135.41606588
  entropy T*S    EENTRO =         0.00000000
  eigenvalues    EBANDS =     -1005.98087650
  atomic energy  EATOM  =     25930.32421885
  Solvation  Ediel_sol  =         0.00000000
  ---------------------------------------------------
  free energy    TOTEN  =       -80.17665787 eV

  energy without entropy =      -80.17665787  energy(sigma->0) =      -80.17665787


--------------------------------------------------------------------------------------------------------




--------------------------------------- Iteration      1(   4)  ---------------------------------------


     EDDAV:  cpu time      8.0363: real time      8.0635
 BZINTS: Fermi energy:   11.458002;  150.000000 electrons
         Band energy:-0.101860E+04;  BLOECHL correction:   -0.106001
       DOS:  cpu time      0.5561: real time      0.5577
    --------------------------------------------
      LOOP:  cpu time      8.5924: real time      8.6211

 eigenvalue-minimisations  : 88536
 total energy-change (2. order) :-0.1261684E+02  (-0.1242859E+02)
 number of electron     150.0000000 magnetization      36.0000000
 augmentation part      150.0000000 magnetization      36.0000000

 Free energy of the ion-electron system (eV)
  ---------------------------------------------------
  alpha Z        PSCENC =      1702.25328229
  Ewald energy   TEWEN  =    -19145.21945391
  -Hartree energ DENC   =     -7031.37274696
  -exchange      EXHF   =         0.00000000
  -V(xc)+E(xc)   XCENC  =       671.08307362
  PAW double counting   =     19934.15191062   -21135.41606588
  entropy T*S    EENTRO =         0.00000000
  eigenvalues    EBANDS =     -1018.59772104
  atomic energy  EATOM  =     25930.32421885
[...]
     22       2.1252      1.00000
     23       4.1982      1.00000
     24       4.2901      1.00000
     25       4.2933      1.00000
     26       4.5345      1.00000
     27       4.5402      1.00000
     28       4.5901      1.00000
     29       4.6268      1.00000
     30       4.6850      1.00000
     31       4.9610      1.00000
     32       5.0907      1.00000
     33       5.1951      1.00000
     34       5.3511      1.00000
     35       5.3940      1.00000
     36       5.4431      1.00000
     37       5.4820      1.00000
     38       5.5479      1.00000
     39       5.5968      1.00000
     40       5.7225      1.00000
     41       5.8130      1.00000
     42       5.8732      1.00000
     43       5.8893      1.00000
     44       6.0446      1.00000
     45       6.1887      1.00000
     46       6.3681      1.00000
     47       6.3983      1.00000
     48       6.5028      1.00000
     49       6.6185      1.00000
     50       6.7473      1.00000
     51       6.9908      1.00000
     52       7.0766      1.00000
     53       7.0830      1.00000
     54       7.1839      1.00000
     55       7.3053      1.00000
     56       7.3205      1.00000
     57       7.3317      1.00000
     58       7.5173      1.00000
     59       7.5957      1.00000
     60       7.8455      1.00000
     61       7.9027      1.00000
     62       7.9714      1.00000
     63       8.0319      1.00000
     64       8.1009      1.00000
     65       8.1657      1.00000
     66       8.2678      1.00000
     67       8.3463      1.00000
     68       8.5255      1.00000
     69       8.6306      1.00000
     70       8.6513      1.04697
     71       8.9591     -0.02041
     72       8.9998      0.00000
     73       9.0410      0.00000
     74       9.1774      0.00000
     75       9.3688      0.00000
     76       9.3706      0.00000
     77       9.5324      0.00000
     78       9.5549      0.00000
     79       9.6643      0.00000
     80       9.6697      0.00000
     81       9.8558      0.00000
     82       9.8703      0.00000
     83      12.4826      0.00000
     84      13.1167      0.00000
     85      13.4143      0.00000
     86      13.4779      0.00000
     87      14.1138      0.00000
     88      14.2283      0.00000
     89      16.0789      0.00000
     90      16.7814      0.00000
     91      17.5852      0.00000
     92      17.7658      0.00000
     93      18.2639      0.00000
     94      18.4895      0.00000
     95      18.5859      0.00000
     96      18.9171      0.00000
     97      19.8670      0.00000
     98      20.5803      0.00000
     99      22.2015      0.00000
    100      22.4701      0.00000
    101      24.0530      0.00000
    102      24.4229      0.00000
    103      24.8784      0.00000
    104      25.3841      0.00000
    105      25.4638      0.00000
    106      26.2029      0.00000
    107      26.2872      0.00000
    108      26.5523      0.00000
    109      27.2795      0.00000
    110      27.3454      0.00000
    111      28.0542      0.00000
    112      28.1294      0.00000


--------------------------------------------------------------------------------------------------------


 soft charge-density along one line, spin component           1
         0         1         2         3         4         5         6         7         8         9
 total charge-density along one line
 
 soft charge-density along one line, spin component           2
         0         1         2         3         4         5         6         7         8         9
 total charge-density along one line
 
 pseudopotential strength for first ion, spin component:           1
 -3.306  -0.011   0.000  -0.000   0.000  -1.450   0.004  -0.000
 -0.011  -3.269  -0.000  -0.000   0.000   0.004  -1.463   0.000
  0.000  -0.000  -3.286  -0.010   0.012  -0.000   0.000  -1.457
 -0.000  -0.000  -0.010  -3.250  -0.014   0.000   0.000   0.003
  0.000   0.000   0.012  -0.014  -3.264  -0.000  -0.000  -0.004
 -1.450   0.004  -0.000   0.000  -0.000   1.529  -0.002   0.000
  0.004  -1.463   0.000   0.000  -0.000  -0.002   1.534  -0.000
 -0.000   0.000  -1.457   0.003  -0.004   0.000  -0.000   1.532
  0.000   0.000   0.003  -1.469   0.004  -0.000  -0.000  -0.001
 -0.000  -0.000  -0.004   0.004  -1.465   0.000   0.000   0.001
  0.000   0.000  -0.002   0.004   0.001   0.000   0.000   0.001
 -0.000  -0.000   0.000  -0.000  -0.000   0.000   0.000  -0.000
 -0.000   0.007  -0.000   0.000  -0.000   0.000  -0.002   0.000
  0.000   0.000   0.009   0.000   0.000   0.000  -0.000  -0.003
  0.000   0.000  -0.000   0.007   0.001  -0.000   0.000  -0.000
  0.000  -0.002   0.000  -0.000   0.000  -0.000   0.001  -0.000
 -0.000  -0.000  -0.003  -0.000  -0.000   0.000   0.000   0.001
 -0.000  -0.000   0.000  -0.002  -0.000   0.000   0.000  -0.000
 pseudopotential strength for first ion, spin component:           2
 -2.199   0.011   0.000  -0.000   0.000  -1.864  -0.003  -0.000
  0.011  -2.197  -0.000  -0.000   0.000  -0.003  -1.864   0.000
  0.000  -0.000  -2.212  -0.002  -0.006  -0.000   0.000  -1.859
 -0.000  -0.000  -0.002  -2.205  -0.022   0.000   0.000   0.001
  0.000   0.000  -0.006  -0.022  -2.218  -0.000  -0.000   0.002
 -1.864  -0.003  -0.000   0.000  -0.000   1.681   0.001   0.000
 -0.003  -1.864   0.000   0.000  -0.000   0.001   1.680  -0.000
 -0.000   0.000  -1.859   0.001   0.002   0.000  -0.000   1.679
  0.000   0.000   0.001  -1.861   0.007  -0.000  -0.000  -0.000
 -0.000  -0.000   0.002   0.007  -1.857   0.000   0.000  -0.001
  0.000   0.000   0.000   0.001   0.000   0.000   0.000   0.000
 -0.000  -0.000   0.000  -0.000   0.000   0.000   0.000  -0.000
  0.000   0.003  -0.000   0.000  -0.000  -0.000  -0.001   0.000
  0.000   0.000   0.003   0.000  -0.000   0.000  -0.000  -0.001
  0.000   0.000  -0.000   0.003   0.000  -0.000   0.000   0.000
  0.000  -0.002   0.000  -0.000   0.000   0.000   0.001  -0.000
 -0.000  -0.000  -0.003  -0.000  -0.000   0.000   0.000   0.001
 -0.000  -0.000   0.000  -0.002  -0.000   0.000   0.000  -0.000
 total augmentation occupancy for first ion, spin component:           1
  1.623  -0.020  -0.000   0.000   0.000   0.210  -0.044   0.000   0.000   0.000   0.000   0.000  -0.003   0.000   0.000  -0.000
 -0.020   1.648   0.000   0.000  -0.000  -0.044   0.183   0.000   0.000   0.000   0.000   0.000   0.008   0.000  -0.000   0.000
 -0.000   0.000   1.650  -0.005   0.016   0.000   0.000   0.245   0.000   0.003   0.001  -0.001  -0.000   0.019  -0.001   0.000
  0.000   0.000  -0.005   1.670   0.011   0.000   0.000   0.000   0.177   0.044   0.003   0.002   0.000   0.000   0.010   0.000
  0.000  -0.000   0.016   0.011   1.674   0.000   0.000   0.003   0.044   0.209  -0.013  -0.000   0.000   0.001   0.003   0.000
  0.210  -0.044   0.000   0.000   0.000   0.240  -0.004   0.000   0.000   0.000   0.000   0.000   0.000   0.000   0.000  -0.000
 -0.044   0.183   0.000   0.000   0.000  -0.004   0.231   0.000   0.000  -0.000   0.000   0.000   0.007   0.000   0.000  -0.000
  0.000   0.000   0.245   0.000   0.003   0.000   0.000   0.238   0.001  -0.004   0.002   0.002   0.000   0.007  -0.000   0.000
  0.000   0.000   0.000   0.177   0.044   0.000   0.000   0.001   0.226   0.005   0.001  -0.000   0.000   0.001   0.007   0.000
  0.000   0.000   0.003   0.044   0.209   0.000  -0.000  -0.004   0.005   0.230  -0.003  -0.004   0.000  -0.000   0.001   0.000
  0.000   0.000   0.001   0.003  -0.013   0.000   0.000   0.002   0.001  -0.003   1.580  -0.477   0.000   0.024   0.001   0.000
  0.000   0.000  -0.001   0.002  -0.000   0.000   0.000   0.002  -0.000  -0.004  -0.477   0.189   0.000   0.000  -0.000   0.000
 -0.003   0.008  -0.000   0.000   0.000   0.000   0.007   0.000   0.000   0.000   0.000   0.000   0.310   0.000  -0.000  -0.021
  0.000   0.000   0.019   0.000   0.001   0.000   0.000   0.007   0.001  -0.000   0.024   0.000   0.000   0.309  -0.000   0.000
  0.000  -0.000  -0.001   0.010   0.003   0.000   0.000  -0.000   0.007   0.001   0.001  -0.000  -0.000  -0.000   0.306  -0.000
 -0.000   0.000   0.000   0.000   0.000  -0.000  -0.000   0.000   0.000   0.000   0.000   0.000  -0.021   0.000  -0.000   0.002
  0.000  -0.000   0.000   0.000   0.000   0.000   0.000   0.000  -0.000   0.000   0.000  -0.001  -0.000  -0.021   0.000   0.000
  0.000   0.000  -0.000   0.000   0.000   0.000   0.000   0.000  -0.000   0.000  -0.000   0.000  -0.000   0.000  -0.022   0.000
 total augmentation occupancy for first ion, spin component:           2
  0.273   0.024   0.000   0.000   0.000  -0.183   0.001   0.000   0.000   0.000   0.000   0.000   0.003   0.000   0.000   0.000
  0.024   0.241  -0.000   0.000   0.000   0.000  -0.173  -0.000   0.000   0.000   0.000  -0.000  -0.008  -0.000  -0.000  -0.000
  0.000  -0.000   0.238   0.007  -0.018  -0.000   0.000  -0.180  -0.002   0.002  -0.002  -0.001   0.000  -0.019   0.000   0.000
  0.000   0.000   0.007   0.221  -0.013   0.000   0.000  -0.003  -0.164  -0.004   0.000   0.001   0.000   0.000  -0.010   0.000
  0.000   0.000  -0.018  -0.013   0.217  -0.000   0.000   0.002  -0.004  -0.168   0.012   0.003   0.000  -0.001  -0.002   0.000
 -0.183   0.000  -0.000   0.000  -0.000   0.022   0.001   0.000  -0.000   0.000   0.000   0.000  -0.001   0.000   0.000   0.000
  0.001  -0.173   0.000   0.000   0.000   0.001   0.024   0.000  -0.000  -0.000   0.000   0.000   0.001   0.000   0.000  -0.000
  0.000  -0.000  -0.180  -0.003   0.002   0.000   0.000   0.023   0.001   0.002  -0.001  -0.000   0.000   0.003  -0.000   0.000
  0.000   0.000  -0.002  -0.164  -0.004  -0.000  -0.000   0.001   0.024   0.000  -0.000  -0.000   0.000   0.000   0.002   0.000
  0.000   0.000   0.002  -0.004  -0.168   0.000  -0.000   0.002   0.000   0.024  -0.001   0.001   0.000   0.001   0.001  -0.000
  0.000   0.000  -0.002   0.000   0.012   0.000   0.000  -0.001  -0.000  -0.001   0.001   0.058   0.000  -0.007  -0.000   0.000
  0.000  -0.000  -0.001   0.001   0.003   0.000   0.000  -0.000  -0.000   0.001   0.058  -0.035   0.000  -0.000  -0.000   0.000
  0.003  -0.008   0.000   0.000   0.000  -0.001   0.001   0.000   0.000   0.000   0.000   0.000  -0.009   0.000  -0.000   0.002
  0.000  -0.000  -0.019   0.000  -0.001   0.000   0.000   0.003   0.000   0.001  -0.007  -0.000   0.000  -0.009   0.000   0.000
  0.000  -0.000   0.000  -0.010  -0.002   0.000   0.000  -0.000   0.002   0.001  -0.000  -0.000  -0.000   0.000  -0.009   0.000
  0.000  -0.000   0.000   0.000   0.000   0.000  -0.000   0.000   0.000  -0.000   0.000   0.000   0.002   0.000   0.000  -0.000
  0.000   0.000  -0.000   0.000  -0.000   0.000   0.000  -0.000  -0.000  -0.000  -0.000   0.000   0.000   0.002   0.000   0.000
  0.000   0.000  -0.000  -0.000  -0.000   0.000   0.000   0.000  -0.000  -0.000   0.000   0.000   0.000   0.000   0.002   0.000


------------------------ aborting loop because EDIFF is reached ----------------------------------------


    CHARGE:  cpu time      0.1832: real time      0.1836
    FORLOC:  cpu time      0.0003: real time      0.0003
    FORNL :  cpu time      0.7567: real time      0.7587
    STRESS:  cpu time      2.3689: real time      2.3761
    FORCOR:  cpu time      0.0012: real time      0.0013
    FORHAR:  cpu time      0.0006: real time      0.0006
    MIXING:  cpu time      0.0004: real time      0.0004
    OFIELD:  cpu time      0.0001: real time      0.0001

  FORCE on cell =-STRESS in cart. coord.  units (eV):
  Direction    XX          YY          ZZ          XY          YZ          ZX
  --------------------------------------------------------------------------------------
  Alpha Z  1702.25328  1702.25328  1702.25328
  Ewald   -6042.53023 -5670.32076 -7432.38777     0.00000    -0.00000    -5.53824
  Hartree  2559.09859  2896.62242  1242.72559    -0.00000    -0.00000    -4.44292
  E(xc)    -977.56519  -977.65237  -977.47446     0.00000     0.00000     0.00401
  Local     285.18964  -425.35581  2992.85934     0.00000     0.00000     9.96384
  n-local  -686.60887  -686.82885  -686.03025     0.37329    -0.98292     0.12268
  augment  1342.39254  1343.13692  1341.10412    -0.00000     0.00000    -0.01644
  Kinetic  1845.80114  1846.35645  1844.86841    -0.76335    -0.13324    -0.08440
  Fock        0.00000     0.00000     0.00000     0.00000     0.00000     0.00000
  -------------------------------------------------------------------------------------
  Total      28.03089    28.21129    27.91826     0.00000     0.00000     0.00854
  in kB     421.07143   423.78143   419.37960     0.00000     0.00000     0.12831
  external pressure =      421.41 kB  Pullay stress =        0.00 kB


 VOLUME and BASIS-vectors are now :
 -----------------------------------------------------------------------------
  energy-cutoff  :      459.66
  volume of cell :      106.66
      direct lattice vectors                 reciprocal lattice vectors
     4.032030865  0.000000000 -0.005900153     0.248014507  0.000000000  0.000363611
     0.000000000  4.640529703  0.000000000     0.000000000  0.215492641  0.000000000
    -0.008357208  0.000000000  5.700345283     0.000256708  0.000000000  0.175428346

  length of vectors
     4.032035182  4.640529703  5.700351409     0.248014773  0.215492641  0.175428534


 FORCES acting on ions
    electron-ion (+dipol)            ewald-force                    non-local-force                 convergence-correction
 -----------------------------------------------------------------------------------------------
   0.157E+01 0.195E-11 -.372E+03   -.165E+01 0.568E-13 0.372E+03   0.860E-01 -.407E-18 0.181E+00   -.541E-02 0.107E-12 -.196E+00
   0.157E+01 -.145E-11 -.372E+03   -.165E+01 0.568E-13 0.372E+03   0.860E-01 0.213E-18 0.181E+00   -.541E-02 0.499E-13 -.196E+00
   0.544E+02 -.381E-13 0.158E+03   -.544E+02 0.000E+00 -.158E+03   -.796E-01 -.185E-18 -.196E+00   0.233E-01 0.674E-13 0.156E+00
   0.544E+02 0.534E-12 0.158E+03   -.544E+02 0.000E+00 -.158E+03   -.796E-01 -.183E-18 -.196E+00   0.233E-01 -.333E-13 0.156E+00
   -.537E+02 -.710E-13 0.207E+03   0.537E+02 -.396E-14 -.207E+03   0.611E-01 -.102E-18 -.123E+00   -.227E-01 0.302E-13 0.171E+00
   -.537E+02 0.360E-12 0.207E+03   0.537E+02 0.223E-14 -.207E+03   0.611E-01 0.405E-18 -.123E+00   -.227E-01 0.596E-13 0.171E+00
   -.962E+02 0.534E-11 0.379E+03   0.963E+02 0.568E-13 -.379E+03   -.867E-01 0.233E-18 0.105E+00   -.309E-01 0.771E-12 0.739E-01
   -.962E+02 0.528E-12 0.379E+03   0.963E+02 0.114E-12 -.379E+03   -.867E-01 -.253E-18 0.105E+00   -.309E-01 0.284E-12 0.739E-01
   0.968E+02 -.150E-12 0.298E+03   -.970E+02 -.806E-14 -.298E+03   0.895E-01 -.153E-17 -.106E+00   0.304E-01 0.336E-12 0.541E-01
   0.968E+02 -.124E-10 0.298E+03   -.970E+02 0.262E-13 -.298E+03   0.895E-01 -.140E-17 -.106E+00   0.304E-01 0.180E-12 0.541E-01
   -.299E+01 0.162E-13 -.670E+03   0.305E+01 -.271E-13 0.670E+03   -.653E-01 -.387E-18 0.171E+00   0.947E-02 0.616E-12 -.364E+00
   -.299E+01 0.261E-11 -.670E+03   0.305E+01 0.735E-14 0.670E+03   -.653E-01 -.368E-18 0.171E+00   0.947E-02 0.504E-12 -.364E+00
 -----------------------------------------------------------------------------------------------
   -.187E-01 -.282E-11 0.147E+00   -.102E-13 0.281E-12 -.227E-12   0.102E-01 -.396E-17 0.649E-01   0.839E-02 0.297E-11 -.209E+00
 
 
 POSITION                                       TOTAL-FORCE (eV/Angst)
 -----------------------------------------------------------------------------------
      3.35906      1.16013      1.91112        -0.000275      0.000000      0.019022
      3.35906      3.48040      1.91112        -0.000275     -0.000000      0.019022
      0.66276      1.16013      3.79045        -0.001000     -0.000000      0.003449
      0.66276      3.48040      3.79045        -0.001000     -0.000000      0.003449
      2.68332      0.00000      3.79002        -0.002277     -0.000000     -0.021845
      2.68332      2.32026      3.79002        -0.002277     -0.000000     -0.021845
      2.00959      1.16013      5.69436         0.002140      0.000000      0.006091
      2.00959      3.48040      5.69436         0.002140      0.000000      0.006091
      4.02308      0.00000      5.68991        -0.005828      0.000000     -0.007842
      4.02308      2.32026      5.68991        -0.005828     -0.000000     -0.007842
      1.34086      0.00000      1.90487         0.007240     -0.000000      0.001124
      1.34086      2.32026      1.90487         0.007240     -0.000000      0.001124
 -----------------------------------------------------------------------------------
    total drift:                               -0.000091      0.000000      0.003242


--------------------------------------------------------------------------------------------------------



  FREE ENERGIE OF THE ION-ELECTRON SYSTEM (eV)
  ---------------------------------------------------
  free  energy   TOTEN  =       -86.13646413 eV

  energy  without entropy=      -86.13646413  energy(sigma->0) =      -86.13646413
 


--------------------------------------------------------------------------------------------------------


    POTLOK:  cpu time      0.0040: real time      0.0041


--------------------------------------------------------------------------------------------------------


 stress matrix after NEB project (eV)
     28.03089      0.00000      0.00854
      0.00000     28.21129      0.00000
      0.00854      0.00000     27.91826
  FORCES: max atom, RMS     0.021964    0.013216
  FORCE total and by dimension    0.045783    0.021845
  Stress total and by dimension   48.590503   28.211292
     LOOP+:  cpu time    204.1299: real time    204.8373
 -----------------------------------------------------------------------------
|                                                                             |
|           W    W    AA    RRRRR   N    N  II  N    N   GGGG   !!!           |
|           W    W   A  A   R    R  NN   N  II  NN   N  G    G  !!!           |
|           W    W  A    A  R    R  N N  N  II  N N  N  G       !!!           |
|           W WW W  AAAAAA  RRRRR   N  N N  II  N  N N  G  GGG   !            |
|           WW  WW  A    A  R   R   N   NN  II  N   NN  G    G                |
|           W    W  A    A  R    R  N    N  II  N    N   GGGG   !!!           |
|                                                                             |
|     Tetrahedron method does not include variations of the Fermi             |
|     occupations, so forces and stress will be inaccurate. We suggest        |
|     using a different smearing scheme ISMEAR = 1 or 2 for metals in         |
|     relaxations.                                                            |
|                                                                             |
 -----------------------------------------------------------------------------

    4ORBIT:  cpu time      0.0000: real time      0.0000
 BZINTS: Fermi energy:    8.887822;  150.000000 electrons
         Band energy:-0.129398E+04;  BLOECHL correction:   -0.054990

 total amount of memory used by VASP MPI-rank0   145436. kBytes
=======================================================================

   base      :      30000. kBytes
   nonl-proj :      42041. kBytes
   fftplans  :        656. kBytes
   grid      :       1652. kBytes
   one-center:        124. kBytes
   wavefun   :      70963. kBytes
 
  
  
 General timing and accounting informations for this job:
 ========================================================
  
                  Total CPU time used (sec):      208.392
                            User time (sec):      202.228
                          System time (sec):        6.164
                         Elapsed time (sec):      209.097
  
                   Maximum memory used (kb):      248416.
                   Average memory used (kb):          N/A
  
                          Minor page faults:        18750
                          Major page faults:          411
                 Voluntary context switches:          527
