 vasp.6.4.3 19Mar24 (build Mar 26 2024 14:05:37) complex                        
  
 executed on             LinuxIFC date 2025.01.03  05:03:11
 running   64 mpi-ranks, on    1 nodes
 distrk:  each k-point on   64 cores,    1 groups
 distr:  one band on NCORE=   1 cores,   64 groups


--------------------------------------------------------------------------------------------------------


 INCAR:
   ALGO = Normal
   EDIFF = 1e-06
   EDIFFG = -0.01
   ENCUT = 520
   GGA = Pe
   IBRION = -1
   ISIF = 4
   ISMEAR = -5
   LCHARG = False
   LREAL = False
   LWAVE = False
   NELM = 200
   NSW = 0
   PREC = Accurate
   SIGMA = 0.2

 POTCAR:    PAW_PBE Al 04Jan2001                  
 -----------------------------------------------------------------------------
|                                                                             |
|           W    W    AA    RRRRR   N    N  II  N    N   GGGG   !!!           |
|           W    W   A  A   R    R  NN   N  II  NN   N  G    G  !!!           |
|           W    W  A    A  R    R  N N  N  II  N N  N  G       !!!           |
|           W WW W  AAAAAA  RRRRR   N  N N  II  N  N N  G  GGG   !            |
|           WW  WW  A    A  R   R   N   NN  II  N   NN  G    G                |
|           W    W  A    A  R    R  N    N  II  N    N   GGGG   !!!           |
|                                                                             |
|     For optimal performance we recommend to set                             |
|       NCORE = 2 up to number-of-cores-per-socket                            |
|     NCORE specifies how many cores store one orbital (NPAR=cpu/NCORE).      |
|     This setting can greatly improve the performance of VASP for DFT.       |
|     The default, NCORE=1 might be grossly inefficient on modern             |
|     multi-core architectures or massively parallel machines. Do your        |
|     own testing! More info at https://www.vasp.at/wiki/index.php/NCORE      |
|     Unfortunately you need to use the default for GW and RPA                |
|     calculations (for HF NCORE is supported but not extensively tested      |
|     yet).                                                                   |
|                                                                             |
 -----------------------------------------------------------------------------

 POTCAR:    PAW_PBE Al 04Jan2001                  
   SHA256 =  17880443556af62b473fe41b62a467bd001ad55d2cabe504a3f22e34d4e9db96 Al/POTCAR             
   COPYR  = (c) Copyright 04Jan2001 Georg Kresse                                                    
   COPYR  = This file is part of the software VASP. Any use, copying, and all other rights are regul
   COPYR  = If you do not have a valid VASP license, you may not use, copy or distribute this file. 
   VRHFIN =Al: s2p1                                                                                 
   LEXCH  = PE                                                                                      
   EATOM  =    53.5387 eV,    3.9350 Ry                                                             
                                                                                                    
   TITEL  = PAW_PBE Al 04Jan2001                                                                    
   LULTRA =        F    use ultrasoft PP ?                                                          
   IUNSCR =        1    unscreen: 0-lin 1-nonlin 2-no                                               
   RPACOR =    1.500    partial core radius                                                         
   POMASS =   26.981; ZVAL   =    3.000    mass and valenz                                          
   RCORE  =    1.900    outmost cutoff radius                                                       
   RWIGS  =    2.650; RWIGS  =    1.402    wigner-seitz radius (au A)                               
   ENMAX  =  240.300; ENMIN  =  180.225 eV                                                          
   ICORE  =        2    local potential                                                             
   LCOR   =        T    correct aug charges                                                         
   LPAW   =        T    paw PP                                                                      
   EAUG   =  291.052                                                                                
   DEXC   =    0.000                                                                                
   RMAX   =    1.939    core radius for proj-oper                                                   
   RAUG   =    1.300    factor for augmentation sphere                                              
   RDEP   =    1.966    radius for radial grids                                                     
   RDEPT  =    1.856    core radius for aug-charge                                                  
                                                                                                    
   Atomic configuration                                                                             
    6 entries                                                                                       
     n  l   j            E        occ.                                                              
     1  0  0.50     -1511.1048   2.0000                                                             
     2  0  0.50      -108.1629   2.0000                                                             
     2  1  1.50       -69.6402   6.0000                                                             
     3  0  0.50        -7.7528   2.0000                                                             
     3  1  1.50        -2.7121   1.0000                                                             
     3  2  2.50        -2.7212   0.0000                                                             
   Description                                                                                      
     l       E           TYP  RCUT    TYP  RCUT                                                     
     0     -7.7528455     23  1.900                                                                 
     0     -3.3096929     23  1.900                                                                 
     1     -2.7120682     23  1.900                                                                 
     1     13.6058260     23  1.900                                                                 
     2     -2.7211652      7  1.900                                                                 
  local pseudopotential read in
  partial core-charges read in
  partial kinetic energy density read in
  atomic valenz-charges read in
  non local Contribution for L=           0  read in
    real space projection operators read in
  non local Contribution for L=           0  read in
    real space projection operators read in
  non local Contribution for L=           1  read in
    real space projection operators read in
  non local Contribution for L=           1  read in
    real space projection operators read in
    PAW grid and wavefunctions read in
 
   number of l-projection  operators is LMAX  =           4
   number of lm-projection operators is LMMAX =           8
 
  PAW_PBE Al 04Jan2001                  :
 energy of atom  1       EATOM=  -53.5387
 kinetic energy error for atom=    0.0002 (will be added to EATOM!!)
 
 
 POSCAR: Al4
  positions in direct lattice
  velocities in cartesian coordinates


 exchange-correlation table for PE
   RHO(1)=    0.500       N(1)  =     2000
   RHO(2)=  100.500       N(2)  =     4000
 


--------------------------------------------------------------------------------------------------------


 ion  position               nearest neighbor table
   1  0.000  0.000  0.000-   2 2.86   3 2.86   2 2.86   3 2.86   2 2.86   4 2.86   2 2.86   3 2.86
                             4 2.86   3 2.86   4 2.86   4 2.86
   2  0.000  0.500  0.500-   1 2.86   4 2.86   1 2.86   4 2.86   1 2.86   3 2.86   1 2.86   3 2.86
                             4 2.86   4 2.86   3 2.86   3 2.86
   3  0.500  0.000  0.500-   1 2.86   4 2.86   1 2.86   4 2.86   2 2.86   4 2.86   4 2.86   1 2.86
                             2 2.86   1 2.86   2 2.86   2 2.86
   4  0.500  0.500  0.000-   2 2.86   3 2.86   2 2.86   3 2.86   1 2.86   3 2.86   3 2.86   1 2.86
                             2 2.86   2 2.86   1 2.86   1 2.86
 
  LATTYP: Found a simple cubic cell.
 ALAT       =     4.0412400206
  
  Lattice vectors:
  
 A1 = (   4.0412400206,   0.0000000000,   0.0000000000)
 A2 = (   0.0000000000,   4.0412400206,   0.0000000000)
 A3 = (   0.0000000000,   0.0000000000,   4.0412400206)


Analysis of symmetry for initial positions (statically):
=====================================================================
 Subroutine PRICEL returns following result:
 
  LATTYP: Found a face centered cubic cell.
 ALAT       =     4.0412400206
  
  Lattice vectors:
  
 A1 = (   2.0206200103,  -2.0206200103,   0.0000000000)
 A2 = (   2.0206200103,   0.0000000000,   2.0206200103)
 A3 = (  -0.0000000000,  -2.0206200103,   2.0206200103)
 
   4 primitive cells build up your supercell.
 

 Routine SETGRP: Setting up the symmetry group for a 
 simple cubic supercell.


 Subroutine GETGRP returns: Found 48 space group operations
 (whereof 48 operations were pure point group operations)
 out of a pool of 48 trial point group operations.


The static configuration has the point symmetry O_h .


Analysis of symmetry for dynamics (positions and initial velocities):
=====================================================================
 Subroutine PRICEL returns following result:
 
  LATTYP: Found a face centered cubic cell.
 ALAT       =     4.0412400206
  
  Lattice vectors:
  
 A1 = (   2.0206200103,  -2.0206200103,   0.0000000000)
 A2 = (   2.0206200103,   0.0000000000,   2.0206200103)
 A3 = (  -0.0000000000,  -2.0206200103,   2.0206200103)
 
   4 primitive cells build up your supercell.
 

 Routine SETGRP: Setting up the symmetry group for a 
 simple cubic supercell.


 Subroutine GETGRP returns: Found 48 space group operations
 (whereof 48 operations were pure point group operations)
 out of a pool of 48 trial point group operations.


The dynamic configuration has the point symmetry O_h .


 Subroutine INISYM returns: Found 48 space group operations
 (whereof 48 operations are pure point group operations),
 and found     4 'primitive' translations


----------------------------------------------------------------------------------------

                                     Primitive cell                                     

  volume of cell :      16.5000

  direct lattice vectors                    reciprocal lattice vectors
     2.020620010 -2.020620010  0.000000000     0.247448802 -0.247448802 -0.247448802
     2.020620010  0.000000000  2.020620010     0.247448802  0.247448802  0.247448802
    -0.000000000 -2.020620010  2.020620010    -0.247448802 -0.247448802  0.247448802

  length of vectors
     2.857588223  2.857588223  2.857588223     0.428593897  0.428593897  0.428593897

  position of ions in fractional coordinates (direct lattice)
     0.000000000  0.000000000  0.000000000

  ion indices of the primitive-cell ions
   primitive index   ion index
                 1           1

----------------------------------------------------------------------------------------

 
 
 KPOINTS: pymatgen with grid density = 4001 / numb

Automatic generation of k-mesh.
 Grid dimensions read from file:
 generate k-points for:   10   10   10

 Generating k-lattice:

  Cartesian coordinates                     Fractional coordinates (reciprocal lattice)
     0.024744880 -0.000000000  0.000000000     0.100000000  0.000000000  0.000000000
     0.000000000  0.024744880  0.000000000     0.000000000  0.100000000  0.000000000
    -0.000000000 -0.000000000  0.024744880    -0.000000000 -0.000000000  0.100000000

  Length of vectors
     0.024744880  0.024744880  0.024744880

  Shift w.r.t. Gamma in fractional coordinates (k-lattice)
     0.000000000  0.000000000  0.000000000

 TETIRR: Found    492 inequivalent tetrahedra from     6000
 
 Subroutine IBZKPT returns following result:
 ===========================================
 
 Found     56 irreducible k-points:
 
 Following reciprocal coordinates:
            Coordinates               Weight
  0.000000  0.000000  0.000000      1.000000
  0.100000  0.000000  0.000000      6.000000
  0.200000  0.000000  0.000000      6.000000
  0.300000  0.000000  0.000000      6.000000
  0.400000  0.000000  0.000000      6.000000
  0.500000  0.000000  0.000000      3.000000
  0.100000  0.100000  0.000000     12.000000
  0.200000  0.100000  0.000000     24.000000
  0.300000  0.100000  0.000000     24.000000
  0.400000  0.100000  0.000000     24.000000
  0.500000  0.100000  0.000000     12.000000
  0.200000  0.200000  0.000000     12.000000
  0.300000  0.200000  0.000000     24.000000
  0.400000  0.200000  0.000000     24.000000
  0.500000  0.200000  0.000000     12.000000
  0.300000  0.300000  0.000000     12.000000
  0.400000  0.300000  0.000000     24.000000
  0.500000  0.300000  0.000000     12.000000
  0.400000  0.400000  0.000000     12.000000
  0.500000  0.400000  0.000000     12.000000
  0.500000  0.500000  0.000000      3.000000
  0.100000  0.100000  0.100000      8.000000
  0.200000  0.100000  0.100000     24.000000
  0.300000  0.100000  0.100000     24.000000
  0.400000  0.100000  0.100000     24.000000
  0.500000  0.100000  0.100000     12.000000
  0.200000  0.200000  0.100000     24.000000
  0.300000  0.200000  0.100000     48.000000
  0.400000  0.200000  0.100000     48.000000
  0.500000  0.200000  0.100000     24.000000
  0.300000  0.300000  0.100000     24.000000
  0.400000  0.300000  0.100000     48.000000
  0.500000  0.300000  0.100000     24.000000
  0.400000  0.400000  0.100000     24.000000
  0.500000  0.400000  0.100000     24.000000
  0.500000  0.500000  0.100000      6.000000
  0.200000  0.200000  0.200000      8.000000
  0.300000  0.200000  0.200000     24.000000
  0.400000  0.200000  0.200000     24.000000
  0.500000  0.200000  0.200000     12.000000
  0.300000  0.300000  0.200000     24.000000
  0.400000  0.300000  0.200000     48.000000
  0.500000  0.300000  0.200000     24.000000
  0.400000  0.400000  0.200000     24.000000
  0.500000  0.400000  0.200000     24.000000
  0.500000  0.500000  0.200000      6.000000
  0.300000  0.300000  0.300000      8.000000
  0.400000  0.300000  0.300000     24.000000
  0.500000  0.300000  0.300000     12.000000
  0.400000  0.400000  0.300000     24.000000
  0.500000  0.400000  0.300000     24.000000
  0.500000  0.500000  0.300000      6.000000
  0.400000  0.400000  0.400000      8.000000
  0.500000  0.400000  0.400000     12.000000
  0.500000  0.500000  0.400000      6.000000
  0.500000  0.500000  0.500000      1.000000
 
 Following cartesian coordinates:
            Coordinates               Weight
  0.000000  0.000000  0.000000      1.000000
  0.024745  0.000000  0.000000      6.000000
  0.049490  0.000000  0.000000      6.000000
  0.074235  0.000000  0.000000      6.000000
  0.098980  0.000000  0.000000      6.000000
  0.123724  0.000000  0.000000      3.000000
  0.024745  0.024745  0.000000     12.000000
  0.049490  0.024745  0.000000     24.000000
  0.074235  0.024745  0.000000     24.000000
  0.098980  0.024745  0.000000     24.000000
  0.123724  0.024745  0.000000     12.000000
  0.049490  0.049490  0.000000     12.000000
  0.074235  0.049490  0.000000     24.000000
  0.098980  0.049490  0.000000     24.000000
  0.123724  0.049490  0.000000     12.000000
  0.074235  0.074235  0.000000     12.000000
  0.098980  0.074235  0.000000     24.000000
  0.123724  0.074235  0.000000     12.000000
  0.098980  0.098980  0.000000     12.000000
  0.123724  0.098980  0.000000     12.000000
  0.123724  0.123724  0.000000      3.000000
  0.024745  0.024745  0.024745      8.000000
  0.049490  0.024745  0.024745     24.000000
  0.074235  0.024745  0.024745     24.000000
  0.098980  0.024745  0.024745     24.000000
  0.123724  0.024745  0.024745     12.000000
  0.049490  0.049490  0.024745     24.000000
  0.074235  0.049490  0.024745     48.000000
  0.098980  0.049490  0.024745     48.000000
  0.123724  0.049490  0.024745     24.000000
  0.074235  0.074235  0.024745     24.000000
  0.098980  0.074235  0.024745     48.000000
  0.123724  0.074235  0.024745     24.000000
  0.098980  0.098980  0.024745     24.000000
  0.123724  0.098980  0.024745     24.000000
  0.123724  0.123724  0.024745      6.000000
  0.049490  0.049490  0.049490      8.000000
  0.074235  0.049490  0.049490     24.000000
  0.098980  0.049490  0.049490     24.000000
  0.123724  0.049490  0.049490     12.000000
  0.074235  0.074235  0.049490     24.000000
  0.098980  0.074235  0.049490     48.000000
  0.123724  0.074235  0.049490     24.000000
  0.098980  0.098980  0.049490     24.000000
  0.123724  0.098980  0.049490     24.000000
  0.123724  0.123724  0.049490      6.000000
  0.074235  0.074235  0.074235      8.000000
  0.098980  0.074235  0.074235     24.000000
  0.123724  0.074235  0.074235     12.000000
  0.098980  0.098980  0.074235     24.000000
  0.123724  0.098980  0.074235     24.000000
  0.123724  0.123724  0.074235      6.000000
  0.098980  0.098980  0.098980      8.000000
  0.123724  0.098980  0.098980     12.000000
  0.123724  0.123724  0.098980      6.000000
  0.123724  0.123724  0.123724      1.000000
 


--------------------------------------------------------------------------------------------------------




 Dimension of arrays:
   k-points           NKPTS =     56   k-points in BZ     NKDIM =     56   number of bands    NBANDS=     64
   number of dos      NEDOS =    301   number of ions     NIONS =      4
   non local maximal  LDIM  =      4   non local SUM 2l+1 LMDIM =      8
   total plane-waves  NPLWV =  27000
   max r-space proj   IRMAX =      1   max aug-charges    IRDMAX=  16119
   dimension x,y,z NGX =    30 NGY =   30 NGZ =   30
   dimension x,y,z NGXF=    60 NGYF=   60 NGZF=   60
   support grid    NGXF=    60 NGYF=   60 NGZF=   60
   ions per type =               4
   NGX,Y,Z   is equivalent  to a cutoff of  12.34, 12.34, 12.34 a.u.
   NGXF,Y,Z  is equivalent  to a cutoff of  24.68, 24.68, 24.68 a.u.

 SYSTEM =  unknown system                          
 POSCAR =  Al4                                     

 Startparameter for this run:
   NWRITE =      2    write-flag & timer
   PREC   = accura    normal or accurate (medium, high low for compatibility)
   ISTART =      0    job   : 0-new  1-cont  2-samecut
   ICHARG =      2    charge: 1-file 2-atom 10-const
   ISPIN  =      1    spin polarized calculation?
   LNONCOLLINEAR =      F non collinear calculations
   LSORBIT =      F    spin-orbit coupling
   INIWAV =      1    electr: 0-lowe 1-rand  2-diag
   LASPH  =      F    aspherical Exc in radial PAW
 Electronic Relaxation 1
   ENCUT  =  520.0 eV  38.22 Ry    6.18 a.u.   7.51  7.51  7.51*2*pi/ulx,y,z
   ENINI  =  520.0     initial cutoff
   ENAUG  =  291.1 eV  augmentation charge cutoff
   NELM   =    200;   NELMIN=  2; NELMDL=  0     # of ELM steps 
   EDIFF  = 0.1E-05   stopping-criterion for ELM
   LREAL  =      F    real-space projection
   NLSPLINE    = F    spline interpolate recip. space projectors
   LCOMPAT=      F    compatible to vasp.4.4
   GGA_COMPAT  = T    GGA compatible to vasp.4.4-vasp.4.6
   LMAXPAW     = -100 max onsite density
   LMAXMIX     =    2 max onsite mixed and CHGCAR
   VOSKOWN=      0    Vosko Wilk Nusair interpolation
   ROPT   =    0.00000
 Ionic relaxation
   EDIFFG = -.1E-01   stopping-criterion for IOM
   NSW    =      0    number of steps for IOM
   NBLOCK =      1;   KBLOCK =      1    inner block; outer block 
   IBRION =     -1    ionic relax: 0-MD 1-quasi-New 2-CG
   NFREE  =      0    steps in history (QN), initial steepest desc. (CG)
   ISIF   =      4    stress and relaxation
   IWAVPR =     10    prediction:  0-non 1-charg 2-wave 3-comb
   ISYM   =      2    0-nonsym 1-usesym 2-fastsym
   LCORR  =      T    Harris-Foulkes like correction to forces

   POTIM  = 0.5000    time-step for ionic-motion
   TEIN   =    0.0    initial temperature
   TEBEG  =    0.0;   TEEND  =   0.0 temperature during run
   SMASS  =  -3.00    Nose mass-parameter (am)
   estimated Nose-frequenzy (Omega)   =  0.10E-29 period in steps = 0.13E+47 mass=  -0.373E-27a.u.
   SCALEE = 1.0000    scale energy and forces
   NPACO  =    256;   APACO  = 10.0  distance and # of slots for P.C.
   PSTRESS=    0.0 pullay stress

  Mass of Ions in am
   POMASS =  26.98
  Ionic Valenz
   ZVAL   =   3.00
  Atomic Wigner-Seitz radii
   RWIGS  =  -1.00
  virtual crystal weights 
   VCA    =   1.00
   NELECT =      12.0000    total number of electrons
   NUPDOWN=      -1.0000    fix difference up-down

 DOS related values:
   EMIN   =  10.00;   EMAX   =-10.00  energy-range for DOS
   EFERMI =   0.00;   METHOD = LEGACY      
   ISMEAR =    -5;   SIGMA  =   0.20  broadening in eV -4-tet -1-fermi 0-gaus

 Electronic relaxation 2 (details)
   IALGO  =     38    algorithm
   LDIAG  =      T    sub-space diagonalisation (order eigenvalues)
   LSUBROT=      F    optimize rotation matrix (better conditioning)
   TURBO    =      0    0=normal 1=particle mesh
   IRESTART =      0    0=no restart 2=restart with 2 vectors
   NREBOOT  =      0    no. of reboots
   NMIN     =      0    reboot dimension
   EREF     =   0.00    reference energy to select bands
   IMIX   =      4    mixing-type and parameters
     AMIX     =   0.40;   BMIX     =  1.00
     AMIX_MAG =   1.60;   BMIX_MAG =  1.00
     AMIN     =   0.10
     WC   =   100.;   INIMIX=   1;  MIXPRE=   1;  MAXMIX= -45

 Intra band minimization:
   WEIMIN = 0.0000     energy-eigenvalue tresh-hold
   EBREAK =  0.39E-08  absolut break condition
   DEPER  =   0.30     relativ break condition  

   TIME   =   0.40     timestep for ELM

  volume/ion in A,a.u.               =      16.50       111.35
  Fermi-wavevector in a.u.,A,eV,Ry     =   0.927443  1.752613 11.703060  0.860151
  Thomas-Fermi vector in A             =   2.053513
 
 Write flags
   LWAVE        =      F    write WAVECAR
   LDOWNSAMPLE  =      F    k-point downsampling of WAVECAR
   LCHARG       =      F    write CHGCAR
   LVTOT        =      F    write LOCPOT, total local potential
   LVHAR        =      F    write LOCPOT, Hartree potential only
   WRT_POTENTIAL= false  ! write potential to hdf5 file
   LELF         =      F    write electronic localiz. function (ELF)
   LORBIT       =      0    0 simple, 1 ext, 2 COOP (PROOUT), +10 PAW based schemes


 Dipole corrections
   LMONO      =      F    monopole corrections only (constant potential shift)
   LDIPOL     =      F    correct potential (dipole corrections)
   IDIPOL     =      0    1-x, 2-y, 3-z, 4-all directions 
   EPSILON    =  1.0000000 bulk dielectric constant
   LVACPOTAV  =      F  vacuum potentials using an averaging scheme for the charge density
   VACPOTFLAT =  0.1000000 required flatness to determine vacuum potential
 Exchange correlation treatment:
   GGA     = PE    functional components
   XC_C    = 1    coefficients multiplying the functional components
   LIBXC   =     F    Libxc                    
   VOSKOWN =     0    Vosko Wilk Nusair interpolation
   LHFCALC =     F    Hartree Fock is set to
   LHFONE  =     F    Hartree Fock one center treatment
   AEXX    =    0.0000 exact exchange contribution

 Parameters of functionals:
   PE:
     No parameter
 
 Van der Waals corrections
   IVDW    =     0    specifies the selected vdW correction

 Linear response parameters
   LEPSILON=     F    determine dielectric tensor
   LRPA    =     F    only Hartree local field effects (RPA)
   LNABLA  =     F    use nabla operator in PAW spheres
   LVEL    =     F    velocity operator in full k-point grid
   CSHIFT  =0.1000    complex shift for real part using Kramers Kronig
   OMEGAMAX=  -1.0    maximum frequency
   DEG_THRESHOLD= 0.2000000E-02 threshold for treating states as degnerate
   RTIME   =   -0.100 relaxation time in fs
  (WPLASMAI=    0.000 imaginary part of plasma frequency in eV, 0.658/RTIME)
   DFIELD  = 0.0000000 0.0000000 0.0000000 field for delta impulse in time
 
  Optional k-point grid parameters
   LKPOINTS_OPT  =     F    use optional k-point grid
   KPOINTS_OPT_MODE=     1    mode for optional k-point grid
 
 Orbital magnetization related:
   ORBITALMAG=     F  switch on orbital magnetization
   LCHIMAG   =     F  perturbation theory with respect to B field
   DQ        =  0.001000  dq finite difference perturbation B field
   LLRAUG    =     F  two centre corrections for induced B field
   LBONE     =     F  B-component reconstruction in AE one-centre
   LVGVCALC  =     T  calculate vGv susceptibility
   LVGVAPPL  =     F  apply vGv susceptibility instead of pGv for G=0

 Random number generation:
   RANDOM_GENERATOR = DEFAULT
   PCG_SEED         = not used


--------------------------------------------------------------------------------------------------------


 Static calculation
 charge density and potential will be updated during run
 non-spin polarized calculation
 Variant of blocked Davidson
 Davidson routine will perform the subspace rotation
 perform sub-space diagonalisation
    after iterative eigenvector-optimisation
 modified Broyden-mixing scheme, WC =      100.0
 initial mixing is a Kerker type mixing with AMIX =  0.4000 and BMIX =      1.0000
 Hartree-type preconditioning will be used
 using additional bands           58
 reciprocal scheme for non local part
 use partial core corrections
 calculate Harris-corrections to forces 
   (improved forces if not selfconsistent)
 use gradient corrections 
 use of overlap-Matrix (Vanderbilt PP)
 Fermi weights with tetrahedron method with Bloechl corrections


--------------------------------------------------------------------------------------------------------


  energy-cutoff  :      520.00
  volume of cell :       66.00
      direct lattice vectors                 reciprocal lattice vectors
     4.041240021  0.000000000  0.000000000     0.247448802 -0.000000000  0.000000000
     0.000000000  4.041240021  0.000000000     0.000000000  0.247448802  0.000000000
     0.000000000  0.000000000  4.041240021    -0.000000000 -0.000000000  0.247448802

  length of vectors
     4.041240021  4.041240021  4.041240021     0.247448802  0.247448802  0.247448802


 
 k-points in units of 2pi/SCALE and weight: pymatgen with grid density = 4001 / numb
   0.00000000  0.00000000  0.00000000       0.001
   0.02474488  0.00000000  0.00000000       0.006
   0.04948976  0.00000000  0.00000000       0.006
   0.07423464  0.00000000  0.00000000       0.006
   0.09897952  0.00000000  0.00000000       0.006
   0.12372440  0.00000000  0.00000000       0.003
   0.02474488  0.02474488  0.00000000       0.012
   0.04948976  0.02474488  0.00000000       0.024
   0.07423464  0.02474488  0.00000000       0.024
   0.09897952  0.02474488  0.00000000       0.024
   0.12372440  0.02474488  0.00000000       0.012
   0.04948976  0.04948976  0.00000000       0.012
   0.07423464  0.04948976  0.00000000       0.024
   0.09897952  0.04948976  0.00000000       0.024
   0.12372440  0.04948976  0.00000000       0.012
   0.07423464  0.07423464  0.00000000       0.012
   0.09897952  0.07423464  0.00000000       0.024
   0.12372440  0.07423464  0.00000000       0.012
   0.09897952  0.09897952  0.00000000       0.012
   0.12372440  0.09897952  0.00000000       0.012
   0.12372440  0.12372440  0.00000000       0.003
   0.02474488  0.02474488  0.02474488       0.008
   0.04948976  0.02474488  0.02474488       0.024
   0.07423464  0.02474488  0.02474488       0.024
   0.09897952  0.02474488  0.02474488       0.024
   0.12372440  0.02474488  0.02474488       0.012
   0.04948976  0.04948976  0.02474488       0.024
   0.07423464  0.04948976  0.02474488       0.048
   0.09897952  0.04948976  0.02474488       0.048
   0.12372440  0.04948976  0.02474488       0.024
   0.07423464  0.07423464  0.02474488       0.024
   0.09897952  0.07423464  0.02474488       0.048
   0.12372440  0.07423464  0.02474488       0.024
   0.09897952  0.09897952  0.02474488       0.024
   0.12372440  0.09897952  0.02474488       0.024
   0.12372440  0.12372440  0.02474488       0.006
   0.04948976  0.04948976  0.04948976       0.008
   0.07423464  0.04948976  0.04948976       0.024
   0.09897952  0.04948976  0.04948976       0.024
   0.12372440  0.04948976  0.04948976       0.012
   0.07423464  0.07423464  0.04948976       0.024
   0.09897952  0.07423464  0.04948976       0.048
   0.12372440  0.07423464  0.04948976       0.024
   0.09897952  0.09897952  0.04948976       0.024
   0.12372440  0.09897952  0.04948976       0.024
   0.12372440  0.12372440  0.04948976       0.006
   0.07423464  0.07423464  0.07423464       0.008
   0.09897952  0.07423464  0.07423464       0.024
   0.12372440  0.07423464  0.07423464       0.012
   0.09897952  0.09897952  0.07423464       0.024
   0.12372440  0.09897952  0.07423464       0.024
   0.12372440  0.12372440  0.07423464       0.006
   0.09897952  0.09897952  0.09897952       0.008
   0.12372440  0.09897952  0.09897952       0.012
   0.12372440  0.12372440  0.09897952       0.006
   0.12372440  0.12372440  0.12372440       0.001
 
 k-points in reciprocal lattice and weights: pymatgen with grid density = 4001 / numb
   0.00000000  0.00000000  0.00000000       0.001
   0.10000000  0.00000000  0.00000000       0.006
   0.20000000  0.00000000  0.00000000       0.006
   0.30000000  0.00000000  0.00000000       0.006
   0.40000000  0.00000000  0.00000000       0.006
   0.50000000  0.00000000  0.00000000       0.003
   0.10000000  0.10000000  0.00000000       0.012
   0.20000000  0.10000000  0.00000000       0.024
   0.30000000  0.10000000  0.00000000       0.024
   0.40000000  0.10000000  0.00000000       0.024
   0.50000000  0.10000000  0.00000000       0.012
   0.20000000  0.20000000  0.00000000       0.012
   0.30000000  0.20000000  0.00000000       0.024
   0.40000000  0.20000000  0.00000000       0.024
   0.50000000  0.20000000  0.00000000       0.012
   0.30000000  0.30000000  0.00000000       0.012
   0.40000000  0.30000000  0.00000000       0.024
   0.50000000  0.30000000  0.00000000       0.012
   0.40000000  0.40000000  0.00000000       0.012
   0.50000000  0.40000000  0.00000000       0.012
   0.50000000  0.50000000  0.00000000       0.003
   0.10000000  0.10000000  0.10000000       0.008
   0.20000000  0.10000000  0.10000000       0.024
   0.30000000  0.10000000  0.10000000       0.024
   0.40000000  0.10000000  0.10000000       0.024
   0.50000000  0.10000000  0.10000000       0.012
   0.20000000  0.20000000  0.10000000       0.024
   0.30000000  0.20000000  0.10000000       0.048
   0.40000000  0.20000000  0.10000000       0.048
   0.50000000  0.20000000  0.10000000       0.024
   0.30000000  0.30000000  0.10000000       0.024
   0.40000000  0.30000000  0.10000000       0.048
   0.50000000  0.30000000  0.10000000       0.024
   0.40000000  0.40000000  0.10000000       0.024
   0.50000000  0.40000000  0.10000000       0.024
   0.50000000  0.50000000  0.10000000       0.006
   0.20000000  0.20000000  0.20000000       0.008
   0.30000000  0.20000000  0.20000000       0.024
   0.40000000  0.20000000  0.20000000       0.024
   0.50000000  0.20000000  0.20000000       0.012
   0.30000000  0.30000000  0.20000000       0.024
   0.40000000  0.30000000  0.20000000       0.048
   0.50000000  0.30000000  0.20000000       0.024
   0.40000000  0.40000000  0.20000000       0.024
   0.50000000  0.40000000  0.20000000       0.024
   0.50000000  0.50000000  0.20000000       0.006
   0.30000000  0.30000000  0.30000000       0.008
   0.40000000  0.30000000  0.30000000       0.024
   0.50000000  0.30000000  0.30000000       0.012
   0.40000000  0.40000000  0.30000000       0.024
   0.50000000  0.40000000  0.30000000       0.024
   0.50000000  0.50000000  0.30000000       0.006
   0.40000000  0.40000000  0.40000000       0.008
   0.50000000  0.40000000  0.40000000       0.012
   0.50000000  0.50000000  0.40000000       0.006
   0.50000000  0.50000000  0.50000000       0.001
 
 position of ions in fractional coordinates (direct lattice) 
   0.00000000  0.00000000  0.00000000
   0.00000000  0.50000000  0.50000000
   0.50000000  0.00000000  0.50000000
   0.50000000  0.50000000  0.00000000
 
 position of ions in cartesian coordinates  (Angst):
   0.00000000  0.00000000  0.00000000
   0.00000000  2.02062001  2.02062001
   2.02062001  0.00000000  2.02062001
   2.02062001  2.02062001  0.00000000
 


--------------------------------------------------------------------------------------------------------


 k-point     1 :   0.0000 0.0000 0.0000  plane waves:    1791
 k-point     2 :   0.1000 0.0000 0.0000  plane waves:    1791
 k-point     3 :   0.2000 0.0000 0.0000  plane waves:    1795
 k-point     4 :   0.3000 0.0000 0.0000  plane waves:    1783
 k-point     5 :   0.4000 0.0000 0.0000  plane waves:    1779
 k-point     6 :   0.5000 0.0000 0.0000  plane waves:    1800
 k-point     7 :   0.1000 0.1000 0.0000  plane waves:    1793
 k-point     8 :   0.2000 0.1000 0.0000  plane waves:    1802
 k-point     9 :   0.3000 0.1000 0.0000  plane waves:    1777
 k-point    10 :   0.4000 0.1000 0.0000  plane waves:    1778
 k-point    11 :   0.5000 0.1000 0.0000  plane waves:    1788
 k-point    12 :   0.2000 0.2000 0.0000  plane waves:    1773
 k-point    13 :   0.3000 0.2000 0.0000  plane waves:    1785
 k-point    14 :   0.4000 0.2000 0.0000  plane waves:    1793
 k-point    15 :   0.5000 0.2000 0.0000  plane waves:    1774
 k-point    16 :   0.3000 0.3000 0.0000  plane waves:    1785
 k-point    17 :   0.4000 0.3000 0.0000  plane waves:    1787
 k-point    18 :   0.5000 0.3000 0.0000  plane waves:    1768
 k-point    19 :   0.4000 0.4000 0.0000  plane waves:    1756
 k-point    20 :   0.5000 0.4000 0.0000  plane waves:    1760
 k-point    21 :   0.5000 0.5000 0.0000  plane waves:    1740
 k-point    22 :   0.1000 0.1000 0.1000  plane waves:    1806
 k-point    23 :   0.2000 0.1000 0.1000  plane waves:    1793
 k-point    24 :   0.3000 0.1000 0.1000  plane waves:    1769
 k-point    25 :   0.4000 0.1000 0.1000  plane waves:    1778
 k-point    26 :   0.5000 0.1000 0.1000  plane waves:    1786
 k-point    27 :   0.2000 0.2000 0.1000  plane waves:    1781
 k-point    28 :   0.3000 0.2000 0.1000  plane waves:    1784
 k-point    29 :   0.4000 0.2000 0.1000  plane waves:    1781
 k-point    30 :   0.5000 0.2000 0.1000  plane waves:    1770
 k-point    31 :   0.3000 0.3000 0.1000  plane waves:    1781
 k-point    32 :   0.4000 0.3000 0.1000  plane waves:    1781
 k-point    33 :   0.5000 0.3000 0.1000  plane waves:    1764
 k-point    34 :   0.4000 0.4000 0.1000  plane waves:    1772
 k-point    35 :   0.5000 0.4000 0.1000  plane waves:    1768
 k-point    36 :   0.5000 0.5000 0.1000  plane waves:    1744
 k-point    37 :   0.2000 0.2000 0.2000  plane waves:    1776
 k-point    38 :   0.3000 0.2000 0.2000  plane waves:    1776
 k-point    39 :   0.4000 0.2000 0.2000  plane waves:    1777
 k-point    40 :   0.5000 0.2000 0.2000  plane waves:    1770
 k-point    41 :   0.3000 0.3000 0.2000  plane waves:    1783
 k-point    42 :   0.4000 0.3000 0.2000  plane waves:    1769
 k-point    43 :   0.5000 0.3000 0.2000  plane waves:    1770
 k-point    44 :   0.4000 0.4000 0.2000  plane waves:    1769
 k-point    45 :   0.5000 0.4000 0.2000  plane waves:    1776
 k-point    46 :   0.5000 0.5000 0.2000  plane waves:    1768
 k-point    47 :   0.3000 0.3000 0.3000  plane waves:    1785
 k-point    48 :   0.4000 0.3000 0.3000  plane waves:    1770
 k-point    49 :   0.5000 0.3000 0.3000  plane waves:    1784
 k-point    50 :   0.4000 0.4000 0.3000  plane waves:    1768
 k-point    51 :   0.5000 0.4000 0.3000  plane waves:    1770
 k-point    52 :   0.5000 0.5000 0.3000  plane waves:    1780
 k-point    53 :   0.4000 0.4000 0.4000  plane waves:    1766
 k-point    54 :   0.5000 0.4000 0.4000  plane waves:    1776
 k-point    55 :   0.5000 0.5000 0.4000  plane waves:    1788
 k-point    56 :   0.5000 0.5000 0.5000  plane waves:    1736

 maximum and minimum number of plane-waves per node :      1806     1736

 maximum number of plane-waves:      1806
 maximum index in each direction: 
   IXMAX=    7   IYMAX=    7   IZMAX=    7
   IXMIN=   -8   IYMIN=   -7   IZMIN=   -7


 serial   3D FFT for wavefunctions
 parallel 3D FFT for charge:
    minimum data exchange during FFTs selected (reduces bandwidth)


 total amount of memory used by VASP MPI-rank0    40028. kBytes
=======================================================================

   base      :      30000. kBytes
   nonl-proj :       6770. kBytes
   fftplans  :        255. kBytes
   grid      :       1271. kBytes
   one-center:         12. kBytes
   wavefun   :       1720. kBytes
 
     INWAV:  cpu time      0.0000: real time      0.0000
 Broyden mixing: mesh for mixing (old mesh)
   NGX = 15   NGY = 15   NGZ = 15
  (NGX  = 60   NGY  = 60   NGZ  = 60)
  gives a total of   3375 points

 initial charge density was supplied:
 charge density of overlapping atoms calculated
 number of electron      12.0000000 magnetization 
 keeping initial charge density in first step


--------------------------------------------------------------------------------------------------------


 Maximum index for augmentation-charges          749 (set IRDMAX)


--------------------------------------------------------------------------------------------------------


 First call to EWALD:  gamma=   0.439
 Maximum number of real-space cells 3x 3x 3
 Maximum number of reciprocal cells 3x 3x 3

    FEWALD:  cpu time      0.0030: real time      0.0030


--------------------------------------- Ionic step        1  -------------------------------------------




--------------------------------------- Iteration      1(   1)  ---------------------------------------


    POTLOK:  cpu time      0.0101: real time      0.0121
    SETDIJ:  cpu time      0.0037: real time      0.0040
     EDDAV:  cpu time      2.6998: real time      2.7165
 BZINTS: Fermi energy:    8.572957;   12.000000 electrons
         Band energy: 0.470932E+02;  BLOECHL correction:   -0.231750
       DOS:  cpu time      0.0149: real time      0.0151
    --------------------------------------------
      LOOP:  cpu time      2.7285: real time      2.7477

 eigenvalue-minimisations  :  7168
 total energy-change (2. order) :-0.1117651E+02  (-0.4600244E+03)
 number of electron      12.0000000 magnetization 
 augmentation part       12.0000000 magnetization 

 Free energy of the ion-electron system (eV)
  ---------------------------------------------------
  alpha Z        PSCENC =        -0.81425695
  Ewald energy   TEWEN  =      -294.06288455
  -Hartree energ DENC   =        -0.40559619
  -exchange      EXHF   =         0.00000000
  -V(xc)+E(xc)   XCENC  =      -104.95897631
  PAW double counting   =       264.80062850     -136.98248303
  entropy T*S    EENTRO =         0.00000000
  eigenvalues    EBANDS =        47.09323329
  atomic energy  EATOM  =       214.15382826
  Solvation  Ediel_sol  =         0.00000000
  ---------------------------------------------------
  free energy    TOTEN  =       -11.17650698 eV

  energy without entropy =      -11.17650698  energy(sigma->0) =      -11.17650698


--------------------------------------------------------------------------------------------------------




--------------------------------------- Iteration      1(   2)  ---------------------------------------


     EDDAV:  cpu time      5.7380: real time      5.7723
 BZINTS: Fermi energy:    8.004826;   12.000000 electrons
         Band energy: 0.432092E+02;  BLOECHL correction:   -0.239092
       DOS:  cpu time      0.0107: real time      0.0108
    --------------------------------------------
      LOOP:  cpu time      5.7487: real time      5.7831

 eigenvalue-minimisations  : 10816
 total energy-change (2. order) :-0.3884052E+01  (-0.3859836E+01)
 number of electron      12.0000000 magnetization 
 augmentation part       12.0000000 magnetization 

 Free energy of the ion-electron system (eV)
  ---------------------------------------------------
  alpha Z        PSCENC =        -0.81425695
  Ewald energy   TEWEN  =      -294.06288455
  -Hartree energ DENC   =        -0.40559619
  -exchange      EXHF   =         0.00000000
  -V(xc)+E(xc)   XCENC  =      -104.95897631
  PAW double counting   =       264.80062850     -136.98248303
  entropy T*S    EENTRO =         0.00000000
  eigenvalues    EBANDS =        43.20918131
  atomic energy  EATOM  =       214.15382826
  Solvation  Ediel_sol  =         0.00000000
  ---------------------------------------------------
  free energy    TOTEN  =       -15.06055896 eV

  energy without entropy =      -15.06055896  energy(sigma->0) =      -15.06055896


--------------------------------------------------------------------------------------------------------




--------------------------------------- Iteration      1(   3)  ---------------------------------------


     EDDAV:  cpu time      2.7402: real time      2.7565
 BZINTS: Fermi energy:    8.004508;   12.000000 electrons
         Band energy: 0.432073E+02;  BLOECHL correction:   -0.239110
       DOS:  cpu time      0.0106: real time      0.0106
    --------------------------------------------
      LOOP:  cpu time      2.7508: real time      2.7671

 eigenvalue-minimisations  :  7168
 total energy-change (2. order) :-0.1871622E-02  (-0.1854122E-02)
 number of electron      12.0000000 magnetization 
 augmentation part       12.0000000 magnetization 

 Free energy of the ion-electron system (eV)
  ---------------------------------------------------
  alpha Z        PSCENC =        -0.81425695
  Ewald energy   TEWEN  =      -294.06288455
  -Hartree energ DENC   =        -0.40559619
  -exchange      EXHF   =         0.00000000
  -V(xc)+E(xc)   XCENC  =      -104.95897631
  PAW double counting   =       264.80062850     -136.98248303
  entropy T*S    EENTRO =         0.00000000
  eigenvalues    EBANDS =        43.20730969
  atomic energy  EATOM  =       214.15382826
  Solvation  Ediel_sol  =         0.00000000
  ---------------------------------------------------
  free energy    TOTEN  =       -15.06243058 eV

  energy without entropy =      -15.06243058  energy(sigma->0) =      -15.06243058


--------------------------------------------------------------------------------------------------------




--------------------------------------- Iteration      1(   4)  ---------------------------------------


     EDDAV:  cpu time     10.4778: real time     10.5344
 BZINTS: Fermi energy:    8.004508;   12.000000 electrons
         Band energy: 0.432073E+02;  BLOECHL correction:   -0.239110
       DOS:  cpu time      0.0112: real time      0.0113
    --------------------------------------------
      LOOP:  cpu time     10.4890: real time     10.5457

 eigenvalue-minimisations  : 14080
 total energy-change (2. order) :-0.9768053E-06  (-0.9615342E-06)
 number of electron      12.0000000 magnetization 
 augmentation part       12.0000000 magnetization 

 Free energy of the ion-electron system (eV)
  ---------------------------------------------------
  alpha Z        PSCENC =        -0.81425695
  Ewald energy   TEWEN  =      -294.06288455
  -Hartree energ DENC   =        -0.40559619
  -exchange      EXHF   =         0.00000000
  -V(xc)+E(xc)   XCENC  =      -104.95897631
  PAW double counting   =       264.80062850     -136.98248303
  entropy T*S    EENTRO =         0.00000000
  eigenvalues    EBANDS =        43.20730871
  atomic energy  EATOM  =       214.15382826
  Solvation  Ediel_sol  =         0.00000000
  ---------------------------------------------------
  free energy    TOTEN  =       -15.06243156 eV

  energy without entropy =      -15.06243156  energy(sigma->0) =      -15.06243156


--------------------------------------------------------------------------------------------------------




--------------------------------------- Iteration      1(   5)  ---------------------------------------


     EDDAV:  cpu time      2.9530: real time      2.9719
 BZINTS: Fermi energy:    8.004508;   12.000000 electrons
         Band energy: 0.432073E+02;  BLOECHL correction:   -0.239110
       DOS:  cpu time      0.0108: real time      0.0109
    CHARGE:  cpu time      0.0285: real time      0.0289
    MIXING:  cpu time      0.0027: real time      0.0028
    --------------------------------------------
      LOOP:  cpu time      2.9950: real time      3.0145

 eigenvalue-minimisations  :  7168
 total energy-change (2. order) :-0.3470859E-09  (-0.1179236E-11)
 number of electron      12.0000000 magnetization 
 augmentation part       -0.1485242 magnetization 

 Broyden mixing:
  rms(total) = 0.26038E+00    rms(broyden)= 0.26038E+00
  rms(prec ) = 0.47014E+00
  weight for this iteration     100.00

 Free energy of the ion-electron system (eV)
  ---------------------------------------------------
  alpha Z        PSCENC =        -0.81425695
  Ewald energy   TEWEN  =      -294.06288455
  -Hartree energ DENC   =        -0.40559619
  -exchange      EXHF   =         0.00000000
  -V(xc)+E(xc)   XCENC  =      -104.95897631
  PAW double counting   =       264.80062850     -136.98248303
  entropy T*S    EENTRO =         0.00000000
  eigenvalues    EBANDS =        43.20730871
  atomic energy  EATOM  =       214.15382826
  Solvation  Ediel_sol  =         0.00000000
  ---------------------------------------------------
  free energy    TOTEN  =       -15.06243156 eV

  energy without entropy =      -15.06243156  energy(sigma->0) =      -15.06243156


--------------------------------------------------------------------------------------------------------




--------------------------------------- Iteration      1(   6)  ---------------------------------------


    POTLOK:  cpu time      0.0128: real time      0.0132
    SETDIJ:  cpu time      0.0011: real time      0.0011
     EDDAV:  cpu time      6.7691: real time      6.8065
 BZINTS: Fermi energy:    7.991517;   12.000000 electrons
         Band energy: 0.430639E+02;  BLOECHL correction:   -0.239513
       DOS:  cpu time      0.0108: real time      0.0109
    CHARGE:  cpu time      0.0245: real time      0.0246
    MIXING:  cpu time      0.0014: real time      0.0014
    --------------------------------------------
      LOOP:  cpu time      6.8197: real time      6.8577

 eigenvalue-minimisations  : 11456
 total energy-change (2. order) : 0.5200666E-01  (-0.6734489E-03)
 number of electron      12.0000000 magnetization 
 augmentation part       -0.1506828 magnetization 

 Broyden mixing:
  rms(total) = 0.15138E+00    rms(broyden)= 0.15138E+00
  rms(prec ) = 0.28786E+00
  weight for this iteration     100.00

 eigenvalues of (default mixing * dielectric matrix)
  average eigenvalue GAMMA=   2.3344
  2.3344

 Free energy of the ion-electron system (eV)
  ---------------------------------------------------
  alpha Z        PSCENC =        -0.81425695
  Ewald energy   TEWEN  =      -294.06288455
  -Hartree energ DENC   =        -0.33876650
  -exchange      EXHF   =         0.00000000
  -V(xc)+E(xc)   XCENC  =      -104.81828869
  PAW double counting   =       379.17415565     -251.36809501
  entropy T*S    EENTRO =         0.00000000
  eigenvalues    EBANDS =        43.06388290
  atomic energy  EATOM  =       214.15382826
  Solvation  Ediel_sol  =         0.00000000
  ---------------------------------------------------
  free energy    TOTEN  =       -15.01042490 eV

  energy without entropy =      -15.01042490  energy(sigma->0) =      -15.01042490


--------------------------------------------------------------------------------------------------------




--------------------------------------- Iteration      1(   7)  ---------------------------------------


    POTLOK:  cpu time      0.0126: real time      0.0134
    SETDIJ:  cpu time      0.0011: real time      0.0011
     EDDAV:  cpu time      6.6647: real time      6.7065
 BZINTS: Fermi energy:    7.976486;   12.000000 electrons
         Band energy: 0.429119E+02;  BLOECHL correction:   -0.240243
       DOS:  cpu time      0.0108: real time      0.0108
    CHARGE:  cpu time      0.0248: real time      0.0250
    MIXING:  cpu time      0.0009: real time      0.0009
    --------------------------------------------
      LOOP:  cpu time      6.7148: real time      6.7576

 eigenvalue-minimisations  : 11392
 total energy-change (2. order) : 0.3729919E-01  (-0.1912819E-02)
 number of electron      12.0000000 magnetization 
 augmentation part       -0.1547780 magnetization 

 Broyden mixing:
  rms(total) = 0.26905E-01    rms(broyden)= 0.26905E-01
  rms(prec ) = 0.29179E-01
  weight for this iteration     100.00

 eigenvalues of (default mixing * dielectric matrix)
  average eigenvalue GAMMA=   2.8607
  2.8607  2.8607

 Free energy of the ion-electron system (eV)
  ---------------------------------------------------
  alpha Z        PSCENC =        -0.81425695
  Ewald energy   TEWEN  =      -294.06288455
  -Hartree energ DENC   =        -0.39814256
  -exchange      EXHF   =         0.00000000
  -V(xc)+E(xc)   XCENC  =      -104.54382338
  PAW double counting   =       606.13366647     -478.35342474
  entropy T*S    EENTRO =         0.00000000
  eigenvalues    EBANDS =        42.91191174
  atomic energy  EATOM  =       214.15382826
  Solvation  Ediel_sol  =         0.00000000
  ---------------------------------------------------
  free energy    TOTEN  =       -14.97312571 eV

  energy without entropy =      -14.97312571  energy(sigma->0) =      -14.97312571


--------------------------------------------------------------------------------------------------------




--------------------------------------- Iteration      1(   8)  ---------------------------------------


    POTLOK:  cpu time      0.0129: real time      0.0133
    SETDIJ:  cpu time      0.0011: real time      0.0011
     EDDAV:  cpu time      5.1279: real time      5.1606
 BZINTS: Fermi energy:    7.976931;   12.000000 electrons
         Band energy: 0.429195E+02;  BLOECHL correction:   -0.240268
       DOS:  cpu time      0.0107: real time      0.0108
    CHARGE:  cpu time      0.0245: real time      0.0246
    MIXING:  cpu time      0.0003: real time      0.0003
    --------------------------------------------
      LOOP:  cpu time      5.1775: real time      5.2107

 eigenvalue-minimisations  :  9408
 total energy-change (2. order) : 0.9289287E-04  (-0.3676898E-05)
 number of electron      12.0000000 magnetization 
 augmentation part       -0.1550560 magnetization 

 Broyden mixing:
  rms(total) = 0.41414E-02    rms(broyden)= 0.41414E-02
  rms(prec ) = 0.52670E-02
  weight for this iteration     100.00

 eigenvalues of (default mixing * dielectric matrix)
  average eigenvalue GAMMA=   2.1086
  1.0660  2.5298  2.7301

 Free energy of the ion-electron system (eV)
  ---------------------------------------------------
  alpha Z        PSCENC =        -0.81425695
  Ewald energy   TEWEN  =      -294.06288455
  -Hartree energ DENC   =        -0.41254699
  -exchange      EXHF   =         0.00000000
  -V(xc)+E(xc)   XCENC  =      -104.52495056
  PAW double counting   =       554.01000300     -426.24167989
  entropy T*S    EENTRO =         0.00000000
  eigenvalues    EBANDS =        42.91945487
  atomic energy  EATOM  =       214.15382826
  Solvation  Ediel_sol  =         0.00000000
  ---------------------------------------------------
  free energy    TOTEN  =       -14.97303281 eV

  energy without entropy =      -14.97303281  energy(sigma->0) =      -14.97303281


--------------------------------------------------------------------------------------------------------




--------------------------------------- Iteration      1(   9)  ---------------------------------------


    POTLOK:  cpu time      0.0129: real time      0.0134
    SETDIJ:  cpu time      0.0011: real time      0.0011
     EDDAV:  cpu time      9.0401: real time      9.0952
 BZINTS: Fermi energy:    7.976692;   12.000000 electrons
         Band energy: 0.429169E+02;  BLOECHL correction:   -0.240279
       DOS:  cpu time      0.0109: real time      0.0110
    CHARGE:  cpu time      0.0245: real time      0.0246
    MIXING:  cpu time      0.0003: real time      0.0003
    --------------------------------------------
      LOOP:  cpu time      9.0897: real time      9.1456

 eigenvalue-minimisations  : 12800
 total energy-change (2. order) :-0.2740385E-05  (-0.4164063E-06)
 number of electron      12.0000000 magnetization 
 augmentation part       -0.1551060 magnetization 

 Broyden mixing:
  rms(total) = 0.12300E-03    rms(broyden)= 0.12300E-03
  rms(prec ) = 0.16133E-03
  weight for this iteration     100.00

 eigenvalues of (default mixing * dielectric matrix)
  average eigenvalue GAMMA=   2.1559
  0.9959  2.6248  2.6248  2.3780

 Free energy of the ion-electron system (eV)
  ---------------------------------------------------
  alpha Z        PSCENC =        -0.81425695
  Ewald energy   TEWEN  =      -294.06288455
  -Hartree energ DENC   =        -0.41418418
  -exchange      EXHF   =         0.00000000
  -V(xc)+E(xc)   XCENC  =      -104.52142422
  PAW double counting   =       561.21461580     -433.44567948
  entropy T*S    EENTRO =         0.00000000
  eigenvalues    EBANDS =        42.91694977
  atomic energy  EATOM  =       214.15382826
  Solvation  Ediel_sol  =         0.00000000
  ---------------------------------------------------
  free energy    TOTEN  =       -14.97303555 eV

  energy without entropy =      -14.97303555  energy(sigma->0) =      -14.97303555


--------------------------------------------------------------------------------------------------------




--------------------------------------- Iteration      1(  10)  ---------------------------------------


    POTLOK:  cpu time      0.0138: real time      0.0142
    SETDIJ:  cpu time      0.0011: real time      0.0011
     EDDAV:  cpu time      3.9512: real time      3.9767
 BZINTS: Fermi energy:    7.976670;   12.000000 electrons
         Band energy: 0.429167E+02;  BLOECHL correction:   -0.240279
       DOS:  cpu time      0.0106: real time      0.0107
    --------------------------------------------
      LOOP:  cpu time      3.9767: real time      4.0027

 eigenvalue-minimisations  :  8064
 total energy-change (2. order) : 0.9758441E-06  (-0.8567350E-09)
 number of electron      12.0000000 magnetization 
 augmentation part       -0.1551060 magnetization 

 Free energy of the ion-electron system (eV)
  ---------------------------------------------------
  alpha Z        PSCENC =        -0.81425695
  Ewald energy   TEWEN  =      -294.06288455
  -Hartree energ DENC   =        -0.41415757
  -exchange      EXHF   =         0.00000000
  -V(xc)+E(xc)   XCENC  =      -104.52148510
  PAW double counting   =       561.16096893     -433.39171629
  entropy T*S    EENTRO =         0.00000000
  eigenvalues    EBANDS =        42.91666870
  atomic energy  EATOM  =       214.15382826
  Solvation  Ediel_sol  =         0.00000000
  ---------------------------------------------------
  free energy    TOTEN  =       -14.97303458 eV

  energy without entropy =      -14.97303458  energy(sigma->0) =      -14.97303458


--------------------------------------------------------------------------------------------------------




 average (electrostatic) potential at core
  the test charge radii are     1.0406
  (the norm of the test charge is              1.0000)
       1 -72.6291       2 -72.6291       3 -72.6291       4 -72.6291
 
 
 
 E-fermi :   7.9767     XC(G=0): -10.1969     alpha+bet :-14.8764

 val. band max:        8.3322747875   @ k =   0.2000   0.2000   0.2000
 cond. band min:       7.7499982508   @ k =   0.1000   0.1000   0.0000
 fundamental gap:     -0.5822765366
 Fermi energy:         7.9766697484

 k-point     1 :       0.0000    0.0000    0.0000
  band No.  band energies     occupation 
      1      -3.1347      2.00000
      2       5.0759      2.00000
      3       5.0759      2.00000
      4       5.0759      2.00000
      5       6.3992      2.00000
      6       6.3992      2.00000
      7       6.3992      2.00000
      8      13.2575      0.00000
      9      13.2575      0.00000
     10      13.2575      0.00000
     11      13.5942      0.00000
     12      13.5942      0.00000
     13      13.5942      0.00000
     14      13.5942      0.00000
     15      13.5942      0.00000
     16      13.5942      0.00000
     17      17.0683      0.00000
     18      17.0683      0.00000
     19      17.0683      0.00000
     20      20.6188      0.00000
     21      20.6188      0.00000
     22      20.6188      0.00000
     23      22.1106      0.00000
     24      22.1106      0.00000
     25      22.1106      0.00000
     26      24.4651      0.00000
     27      27.4172      0.00000
     28      27.4172      0.00000
     29      30.2859      0.00000
     30      32.6378      0.00000
     31      32.6378      0.00000
     32      32.6378      0.00000
     33      33.4054      0.00000
     34      33.4054      0.00000
     35      33.4054      0.00000
     36      34.9159      0.00000
     37      34.9159      0.00000
     38      34.9159      0.00000
     39      34.9159      0.00000
     40      34.9159      0.00000
     41      34.9159      0.00000
     42      40.5845      0.00000
     43      40.5845      0.00000
     44      40.5845      0.00000
     45      41.2559      0.00000
     46      41.3968      0.00000
     47      41.3968      0.00000
     48      41.3968      0.00000
     49      41.3968      0.00000
     50      41.3968      0.00000
     51      41.3968      0.00000
     52      41.8049      0.00000
     53      41.8049      0.00000
     54      41.8049      0.00000
     55      42.7342      0.00000
     56      42.7342      0.00000
     57      42.7342      0.00000
     58      48.4714      0.00000
     59      48.4714      0.00000
     60      48.4714      0.00000
     61      48.4714      0.00000
     62      48.4714      0.00000
     63      48.4714      0.00000
     64      49.0826      0.00000

 k-point     2 :       0.1000    0.0000    0.0000
  band No.  band energies     occupation 
      1      -3.0440      2.00000
      2       3.9664      2.00000
      3       5.1588      2.00000
      4       5.1588      2.00000
      5       6.4868      2.00319
      6       6.4868      2.07711
      7       7.6656      1.46506
      8      11.8260      0.00000
      9      11.8260      0.00000
     10      12.9967      0.00000
     11      12.9967      0.00000
     12      13.3469      0.00000
     13      13.6711      0.00000
     14      13.6711      0.00000
     15      15.1933      0.00000
     16      15.1933      0.00000
     17      17.1512      0.00000
     18      17.8009      0.00000
     19      17.8009      0.00000
     20      19.7312      0.00000
     21      19.7312      0.00000
     22      19.9802      0.00000
     23      21.8904      0.00000
     24      23.1315      0.00000
     25      23.1315      0.00000
     26      25.2849      0.00000
     27      26.2813      0.00000
     28      27.5012      0.00000
     29      30.2665      0.00000
     30      32.7408      0.00000
     31      32.7408      0.00000
     32      32.9174      0.00000
     33      32.9174      0.00000
     34      33.0617      0.00000
     35      33.7973      0.00000
     36      33.7973      0.00000
     37      33.9711      0.00000
     38      34.6090      0.00000
     39      34.6090      0.00000
     40      34.9355      0.00000
     41      34.9355      0.00000
     42      40.7232      0.00000
     43      40.7282      0.00000
     44      40.7282      0.00000
     45      41.0372      0.00000
     46      41.0372      0.00000
     47      41.1060      0.00000
     48      41.4448      0.00000
     49      41.4448      0.00000
     50      41.5617      0.00000
     51      41.5617      0.00000
     52      41.6356      0.00000
     53      42.2060      0.00000
     54      42.2060      0.00000
     55      43.3707      0.00000
     56      43.5506      0.00000
     57      43.5506      0.00000
     58      46.1524      0.00000
     59      46.1524      0.00000
     60      46.2492      0.00000
     61      47.7120      0.00000
     62      47.7120      0.00000
     63      47.7708      0.00000
     64      47.7708      0.00000

 k-point     3 :       0.2000    0.0000    0.0000
  band No.  band energies     occupation 
      1      -2.7725      2.00000
      2       2.5381      2.00000
      3       5.4078      2.00000
      4       5.4078      2.00000
      5       6.7476      2.02433
      6       6.7476      2.54222
      7       9.5643     -0.15125
      8      10.4073      0.00000
      9      10.4073      0.00000
     10      11.8669      0.00000
     11      11.8669      0.00000
     12      13.6149      0.00000
     13      13.9019      0.00000
     14      13.9019      0.00000
     15      17.1136      0.00000
     16      17.1136      0.00000
     17      17.3977      0.00000
     18      18.4971      0.00000
     19      18.4971      0.00000
     20      18.7758      0.00000
     21      19.3341      0.00000
     22      19.3341      0.00000
     23      21.3196      0.00000
     24      23.9275      0.00000
     25      24.7554      0.00000
     26      24.7554      0.00000
     27      27.0322      0.00000
     28      27.7522      0.00000
     29      30.8640      0.00000
     30      31.4999      0.00000
     31      31.4999      0.00000
     32      31.5892      0.00000
     33      31.5892      0.00000
     34      32.2463      0.00000
     35      33.0583      0.00000
     36      33.0583      0.00000
     37      33.8223      0.00000
     38      33.8223      0.00000
     39      34.9881      0.00000
     40      34.9881      0.00000
     41      36.0899      0.00000
     42      39.1419      0.00000
     43      40.1361      0.00000
     44      40.1361      0.00000
     45      41.1702      0.00000
     46      41.1702      0.00000
     47      41.5028      0.00000
     48      41.5028      0.00000
     49      41.5880      0.00000
     50      41.5880      0.00000
     51      42.4544      0.00000
     52      42.8482      0.00000
     53      42.9811      0.00000
     54      43.0134      0.00000
     55      43.0134      0.00000
     56      43.5717      0.00000
     57      44.2720      0.00000
     58      44.2720      0.00000
     59      44.8004      0.00000
     60      44.8004      0.00000
     61      46.4243      0.00000
     62      46.4243      0.00000
     63      46.6504      0.00000
     64      46.6504      0.00000

 k-point     4 :       0.3000    0.0000    0.0000
  band No.  band energies     occupation 
      1      -2.3211      2.00000
      2       1.2356      2.00000
      3       5.8229      2.00000
      4       5.8229      2.00000
      5       7.1739      2.02981
      6       7.1739      2.54768
      7       9.1548      0.00000
      8       9.1548      0.00000
      9      10.7151      0.00000
     10      10.7151      0.00000
     11      11.6495      0.00000
     12      14.0607      0.00000
     13      14.2868      0.00000
     14      14.2868      0.00000
     15      17.3612      0.00000
     16      17.3612      0.00000
     17      17.5503      0.00000
     18      17.8006      0.00000
     19      19.1985      0.00000
     20      19.1985      0.00000
     21      20.5668      0.00000
     22      21.1469      0.00000
     23      21.1469      0.00000
     24      21.3346      0.00000
     25      26.5049      0.00000
     26      26.5049      0.00000
     27      28.1677      0.00000
     28      28.9218      0.00000
     29      28.9218      0.00000
     30      29.1620      0.00000
     31      29.7572      0.00000
     32      29.7572      0.00000
     33      31.2757      0.00000
     34      31.8750      0.00000
     35      32.7480      0.00000
     36      32.7480      0.00000
     37      33.6185      0.00000
     38      33.6185      0.00000
     39      35.0554      0.00000
     40      35.0554      0.00000
     41      37.5266      0.00000
     42      37.9489      0.00000
     43      39.3531      0.00000
     44      39.3531      0.00000
     45      39.8560      0.00000
     46      39.9316      0.00000
     47      39.9316      0.00000
     48      41.8230      0.00000
     49      41.8230      0.00000
     50      41.9562      0.00000
     51      41.9562      0.00000
     52      43.0296      0.00000
     53      43.2234      0.00000
     54      43.2234      0.00000
     55      44.3126      0.00000
     56      44.3432      0.00000
     57      44.3432      0.00000
     58      44.9675      0.00000
     59      45.2260      0.00000
     60      45.2260      0.00000
     61      45.5734      0.00000
     62      45.5734      0.00000
     63      45.8075      0.00000
     64      45.8075      0.00000

 k-point     5 :       0.4000    0.0000    0.0000
  band No.  band energies     occupation 
      1      -1.6916      2.00000
      2       0.0910      2.00000
      3       6.4047      2.00000
      4       6.4047      2.00000
      5       7.7358      1.99160
      6       7.7358      2.04470
      7       8.0702      0.00000
      8       8.0702      0.00000
      9       9.6958      0.00000
     10       9.6958      0.00000
     11      13.8860      0.00000
     12      14.6825      0.00000
     13      14.8259      0.00000
     14      14.8259      0.00000
     15      16.3653      0.00000
     16      16.3653      0.00000
     17      16.4378      0.00000
     18      18.3466      0.00000
     19      18.7499      0.00000
     20      19.7742      0.00000
     21      21.4392      0.00000
     22      21.4392      0.00000
     23      23.0490      0.00000
     24      23.0490      0.00000
     25      26.3319      0.00000
     26      26.3319      0.00000
     27      27.7694      0.00000
     28      27.7694      0.00000
     29      28.2740      0.00000
     30      28.2740      0.00000
     31      28.7425      0.00000
     32      30.3235      0.00000
     33      31.4589      0.00000
     34      31.4589      0.00000
     35      31.5394      0.00000
     36      33.1069      0.00000
     37      34.4764      0.00000
     38      34.4764      0.00000
     39      35.1117      0.00000
     40      35.1117      0.00000
     41      35.9614      0.00000
     42      36.9000      0.00000
     43      37.3636      0.00000
     44      37.3636      0.00000
     45      39.4783      0.00000
     46      39.9253      0.00000
     47      39.9253      0.00000
     48      42.0353      0.00000
     49      42.1407      0.00000
     50      42.1407      0.00000
     51      42.5054      0.00000
     52      42.5054      0.00000
     53      42.9878      0.00000
     54      42.9878      0.00000
     55      44.1572      0.00000
     56      44.1572      0.00000
     57      44.1851      0.00000
     58      44.1851      0.00000
     59      45.2747      0.00000
     60      45.2747      0.00000
     61      46.5058      0.00000
     62      47.1701      0.00000
     63      47.1701      0.00000
     64      47.8115      0.00000

 k-point     6 :       0.5000    0.0000    0.0000
  band No.  band energies     occupation 
      1      -0.8864      2.00000
      2      -0.8864      2.00000
      3       7.1536      2.00000
      4       7.1536      2.00000
      5       7.1536      2.00000
      6       7.1536      2.00000
      7       8.1699      0.00000
      8       8.1699      0.00000
      9       9.1064      0.00000
     10       9.1064      0.00000
     11      15.4770      0.00000
     12      15.4770      0.00000
     13      15.5191      0.00000
     14      15.5191      0.00000
     15      15.5191      0.00000
     16      15.5191      0.00000
     17      16.2588      0.00000
     18      16.2588      0.00000
     19      19.0149      0.00000
     20      19.0149      0.00000
     21      23.8241      0.00000
     22      23.8241      0.00000
     23      23.8241      0.00000
     24      23.8241      0.00000
     25      24.3722      0.00000
     26      24.3722      0.00000
     27      26.4065      0.00000
     28      26.4065      0.00000
     29      29.4670      0.00000
     30      29.4670      0.00000
     31      29.9566      0.00000
     32      29.9566      0.00000
     33      29.9566      0.00000
     34      29.9566      0.00000
     35      34.1243      0.00000
     36      34.1243      0.00000
     37      34.4805      0.00000
     38      34.4805      0.00000
     39      35.1337      0.00000
     40      35.1337      0.00000
     41      35.7086      0.00000
     42      35.7086      0.00000
     43      35.7086      0.00000
     44      35.7086      0.00000
     45      39.9462      0.00000
     46      39.9462      0.00000
     47      40.8227      0.00000
     48      40.8227      0.00000
     49      42.5107      0.00000
     50      42.5107      0.00000
     51      42.5107      0.00000
     52      42.5107      0.00000
     53      43.3143      0.00000
     54      43.3143      0.00000
     55      43.3143      0.00000
     56      43.3143      0.00000
     57      44.0563      0.00000
     58      44.0563      0.00000
     59      45.0926      0.00000
     60      45.0926      0.00000
     61      48.9540      0.00000
     62      48.9540      0.00000
     63      49.0793      0.00000
     64      49.0793      0.00000

 k-point     7 :       0.1000    0.1000    0.0000
  band No.  band energies     occupation 
      1      -2.9535      2.00000
      2       4.0520      2.00000
      3       4.0520      2.00000
      4       5.2418      2.00000
      5       6.5736      2.03663
      6       7.7500      2.07797
      7       7.7500      0.96085
      8      10.7659      0.00000
      9      11.9099      0.00000
     10      11.9099      0.00000
     11      13.0764      0.00000
     12      13.0764      0.00000
     13      13.7492      0.00000
     14      14.9742      0.00000
     15      15.2755      0.00000
     16      15.2755      0.00000
     17      17.8813      0.00000
     18      17.8813      0.00000
     19      18.4546      0.00000
     20      18.6300      0.00000
     21      19.0475      0.00000
     22      20.7951      0.00000
     23      22.2248      0.00000
     24      22.9878      0.00000
     25      23.3859      0.00000
     26      26.0206      0.00000
     27      26.1995      0.00000
     28      26.8388      0.00000
     29      30.0290      0.00000
     30      32.2640      0.00000
     31      32.2640      0.00000
     32      32.5379      0.00000
     33      32.8488      0.00000
     34      33.6791      0.00000
     35      33.8864      0.00000
     36      34.0051      0.00000
     37      34.0379      0.00000
     38      34.0379      0.00000
     39      34.3913      0.00000
     40      34.6190      0.00000
     41      34.6190      0.00000
     42      39.5956      0.00000
     43      39.9714      0.00000
     44      39.9714      0.00000
     45      41.3047      0.00000
     46      41.3047      0.00000
     47      41.5707      0.00000
     48      41.5707      0.00000
     49      41.6786      0.00000
     50      41.9808      0.00000
     51      42.0841      0.00000
     52      42.0841      0.00000
     53      42.2439      0.00000
     54      42.5307      0.00000
     55      43.5939      0.00000
     56      44.1084      0.00000
     57      44.1084      0.00000
     58      44.8834      0.00000
     59      44.8834      0.00000
     60      46.6473      0.00000
     61      46.6473      0.00000
     62      47.1180      0.00000
     63      47.5908      0.00000
     64      47.7413      0.00000

 k-point     8 :       0.2000    0.1000    0.0000
  band No.  band energies     occupation 
      1      -2.6821      2.00000
      2       2.6250      2.00000
      3       4.3083      2.00000
      4       5.4908      2.00000
      5       6.8303      2.08863
      6       8.0009      0.80685
      7       9.4055     -0.07712
      8       9.6450      0.00000
      9      10.4910      0.00000
     10      11.9516      0.00000
     11      12.1614      0.00000
     12      12.9775      0.00000
     13      13.3158      0.00000
     14      15.5223      0.00000
     15      16.4012      0.00000
     16      17.1114      0.00000
     17      17.1957      0.00000
     18      17.9044      0.00000
     19      18.1202      0.00000
     20      19.4104      0.00000
     21      20.2135      0.00000
     22      20.2399      0.00000
     23      21.8840      0.00000
     24      23.9826      0.00000
     25      24.0983      0.00000
     26      24.6651      0.00000
     27      26.8856      0.00000
     28      27.9273      0.00000
     29      30.3086      0.00000
     30      30.3829      0.00000
     31      31.2042      0.00000
     32      31.4081      0.00000
     33      31.5434      0.00000
     34      32.6464      0.00000
     35      33.1855      0.00000
     36      33.8009      0.00000
     37      33.8674      0.00000
     38      33.9866      0.00000
     39      34.5241      0.00000
     40      34.6395      0.00000
     41      36.4289      0.00000
     42      38.4364      0.00000
     43      38.6806      0.00000
     44      39.2302      0.00000
     45      40.7046      0.00000
     46      41.4917      0.00000
     47      41.5247      0.00000
     48      41.5758      0.00000
     49      41.9670      0.00000
     50      42.4104      0.00000
     51      42.5889      0.00000
     52      42.7851      0.00000
     53      42.9280      0.00000
     54      43.1025      0.00000
     55      43.2016      0.00000
     56      43.8795      0.00000
     57      43.9691      0.00000
     58      43.9958      0.00000
     59      45.3422      0.00000
     60      45.3456      0.00000
     61      45.7167      0.00000
     62      46.9553      0.00000
     63      46.9659      0.00000
     64      48.1362      0.00000

 k-point     9 :       0.3000    0.1000    0.0000
  band No.  band energies     occupation 
      1      -2.2310      2.00000
      2       1.3234      2.00000
      3       4.7345      2.00000
      4       5.9060      2.00000
      5       7.2266      2.04479
      6       8.1980      0.38526
      7       8.4066      0.00000
      8       9.2383      0.00000
      9      10.8109      0.00000
     10      11.7216      0.00000
     11      11.8482      0.00000
     12      12.5801      0.00000
     13      13.7175      0.00000
     14      15.8941      0.00000
     15      15.9334      0.00000
     16      16.7926      0.00000
     17      18.3991      0.00000
     18      18.5113      0.00000
     19      19.1495      0.00000
     20      19.2798      0.00000
     21      21.1014      0.00000
     22      21.2178      0.00000
     23      21.5121      0.00000
     24      22.0934      0.00000
     25      25.8580      0.00000
     26      26.2123      0.00000
     27      27.4620      0.00000
     28      27.9202      0.00000
     29      28.9854      0.00000
     30      29.7111      0.00000
     31      29.9150      0.00000
     32      30.1322      0.00000
     33      30.7643      0.00000
     34      31.1285      0.00000
     35      32.6628      0.00000
     36      33.1050      0.00000
     37      33.7974      0.00000
     38      34.1485      0.00000
     39      34.6454      0.00000
     40      35.3255      0.00000
     41      36.5483      0.00000
     42      38.3190      0.00000
     43      38.3353      0.00000
     44      38.4303      0.00000
     45      38.9036      0.00000
     46      40.9670      0.00000
     47      41.0700      0.00000
     48      41.4020      0.00000
     49      41.5208      0.00000
     50      41.7774      0.00000
     51      42.5706      0.00000
     52      42.8435      0.00000
     53      43.0773      0.00000
     54      43.1151      0.00000
     55      43.2793      0.00000
     56      43.3217      0.00000
     57      44.4244      0.00000
     58      45.1260      0.00000
     59      45.6532      0.00000
     60      45.9938      0.00000
     61      46.1139      0.00000
     62      46.8483      0.00000
     63      47.0368      0.00000
     64      48.6665      0.00000

 k-point    10 :       0.4000    0.1000    0.0000
  band No.  band energies     occupation 
      1      -1.6019      2.00000
      2       0.1795      2.00000
      3       5.3288      2.00000
      4       6.4879      2.00000
      5       6.9780      2.00417
      6       7.9491      1.57979
      7       8.1536      0.00000
      8       8.8783      0.00000
      9       9.8699      0.00000
     10      10.8121      0.00000
     11      13.1648      0.00000
     12      13.8836      0.00000
     13      14.3405      0.00000
     14      14.8253      0.00000
     15      15.7960      0.00000
     16      16.5077      0.00000
     17      18.1305      0.00000
     18      18.8326      0.00000
     19      19.0425      0.00000
     20      20.4424      0.00000
     21      20.5793      0.00000
     22      21.5191      0.00000
     23      23.0918      0.00000
     24      24.0179      0.00000
     25      25.4947      0.00000
     26      26.4045      0.00000
     27      27.3749      0.00000
     28      27.7486      0.00000
     29      27.8050      0.00000
     30      28.6965      0.00000
     31      28.7158      0.00000
     32      29.1347      0.00000
     33      31.2603      0.00000
     34      31.9176      0.00000
     35      32.0112      0.00000
     36      32.0785      0.00000
     37      34.3339      0.00000
     38      34.6047      0.00000
     39      34.7435      0.00000
     40      34.7938      0.00000
     41      36.1722      0.00000
     42      36.4039      0.00000
     43      38.3586      0.00000
     44      38.5350      0.00000
     45      38.7327      0.00000
     46      39.2857      0.00000
     47      39.8321      0.00000
     48      41.3676      0.00000
     49      41.4133      0.00000
     50      41.5343      0.00000
     51      42.0407      0.00000
     52      42.2852      0.00000
     53      43.0828      0.00000
     54      43.1608      0.00000
     55      43.6335      0.00000
     56      44.6739      0.00000
     57      44.7098      0.00000
     58      45.4070      0.00000
     59      45.8995      0.00000
     60      47.0537      0.00000
     61      47.2136      0.00000
     62      47.8612      0.00000
     63      47.9121      0.00000
     64      48.7091      0.00000

 k-point    11 :       0.5000    0.1000    0.0000
  band No.  band energies     occupation 
      1      -0.7972      2.00000
      2      -0.7972      2.00000
      3       6.0862      2.00000
      4       6.0862      2.00000
      5       7.2369      2.00000
      6       7.2369      2.01440
      7       8.6184      0.00000
      8       8.6184      0.00000
      9       9.9657      0.00000
     10       9.9657      0.00000
     11      13.9141      0.00000
     12      13.9141      0.00000
     13      14.9309      0.00000
     14      14.9309      0.00000
     15      16.3658      0.00000
     16      16.3658      0.00000
     17      17.2425      0.00000
     18      17.2425      0.00000
     19      19.6952      0.00000
     20      19.6952      0.00000
     21      22.8498      0.00000
     22      22.8498      0.00000
     23      23.9013      0.00000
     24      23.9013      0.00000
     25      24.9891      0.00000
     26      24.9891      0.00000
     27      26.9158      0.00000
     28      26.9158      0.00000
     29      28.2337      0.00000
     30      28.2337      0.00000
     31      29.5970      0.00000
[...]
     64      49.3225      0.00000

 k-point    52 :       0.5000    0.5000    0.3000
  band No.  band energies     occupation 
      1       2.1153      2.00000
      2       2.1153      2.00000
      3       2.1153      2.00000
      4       2.1153      2.00000
      5       5.5814      2.00000
      6       5.5814      2.00000
      7       5.5814      2.00000
      8       5.5814      2.07024
      9      15.7129      0.00000
     10      15.7129      0.00000
     11      15.7129      0.00000
     12      15.7129      0.00000
     13      18.1830      0.00000
     14      18.1830      0.00000
     15      18.1830      0.00000
     16      18.1830      0.00000
     17      19.9634      0.00000
     18      19.9634      0.00000
     19      19.9634      0.00000
     20      19.9634      0.00000
     21      21.3140      0.00000
     22      21.3140      0.00000
     23      21.3140      0.00000
     24      21.3140      0.00000
     25      24.2228      0.00000
     26      24.2228      0.00000
     27      24.2228      0.00000
     28      24.2228      0.00000
     29      26.4348      0.00000
     30      26.4348      0.00000
     31      26.4348      0.00000
     32      26.4348      0.00000
     33      30.4284      0.00000
     34      30.4284      0.00000
     35      30.4284      0.00000
     36      30.4284      0.00000
     37      31.9323      0.00000
     38      31.9323      0.00000
     39      31.9323      0.00000
     40      31.9323      0.00000
     41      37.9240      0.00000
     42      37.9240      0.00000
     43      37.9240      0.00000
     44      37.9240      0.00000
     45      40.1455      0.00000
     46      40.1455      0.00000
     47      40.1455      0.00000
     48      40.1455      0.00000
     49      41.7391      0.00000
     50      41.7391      0.00000
     51      41.7391      0.00000
     52      41.7391      0.00000
     53      46.6822      0.00000
     54      46.6822      0.00000
     55      46.6822      0.00000
     56      46.6822      0.00000
     57      47.6749      0.00000
     58      47.6749      0.00000
     59      47.6749      0.00000
     60      47.6749      0.00000
     61      49.3531      0.00000
     62      49.3531      0.00000
     63      49.3531      0.00000
     64      49.3531      0.00000

 k-point    53 :       0.4000    0.4000    0.4000
  band No.  band energies     occupation 
      1       1.1516      2.00000
      2       2.8966      2.00000
      3       2.8966      2.00000
      4       2.8966      2.00000
      5       4.6426      2.00000
      6       4.6426      2.00000
      7       4.6426      2.00000
      8       6.3526      2.06515
      9      16.4369      0.00000
     10      16.4369      0.00000
     11      16.4369      0.00000
     12      17.3253      0.00000
     13      17.3253      0.00000
     14      17.3253      0.00000
     15      18.8829      0.00000
     16      18.8829      0.00000
     17      19.0472      0.00000
     18      19.0472      0.00000
     19      19.0472      0.00000
     20      20.4432      0.00000
     21      20.4432      0.00000
     22      22.0117      0.00000
     23      22.0117      0.00000
     24      22.0117      0.00000
     25      22.5217      0.00000
     26      24.3466      0.00000
     27      24.9177      0.00000
     28      24.9177      0.00000
     29      24.9177      0.00000
     30      25.6424      0.00000
     31      25.6424      0.00000
     32      25.6424      0.00000
     33      30.5626      0.00000
     34      30.5626      0.00000
     35      30.5626      0.00000
     36      31.0274      0.00000
     37      31.0274      0.00000
     38      32.8747      0.00000
     39      32.8747      0.00000
     40      32.8747      0.00000
     41      37.7510      0.00000
     42      39.1722      0.00000
     43      39.1722      0.00000
     44      39.1722      0.00000
     45      39.1787      0.00000
     46      39.1787      0.00000
     47      39.1787      0.00000
     48      40.6323      0.00000
     49      40.6323      0.00000
     50      40.6323      0.00000
     51      40.9343      0.00000
     52      40.9343      0.00000
     53      46.5150      0.00000
     54      47.0271      0.00000
     55      47.0271      0.00000
     56      47.0271      0.00000
     57      48.0664      0.00000
     58      48.0664      0.00000
     59      48.1793      0.00000
     60      49.5241      0.00000
     61      49.5241      0.00000
     62      49.5241      0.00000
     63      49.9677      0.00000
     64      49.9677      0.00000

 k-point    54 :       0.5000    0.4000    0.4000
  band No.  band energies     occupation 
      1       1.9408      2.00000
      2       1.9408      2.00000
      3       3.5747      2.00000
      4       3.5747      2.00000
      5       3.7969      2.00000
      6       3.7969      2.00000
      7       5.4131      2.00000
      8       5.4131      2.02170
      9      16.9843      0.00000
     10      16.9843      0.00000
     11      17.1710      0.00000
     12      17.1710      0.00000
     13      18.0265      0.00000
     14      18.0265      0.00000
     15      18.5939      0.00000
     16      18.5939      0.00000
     17      19.3686      0.00000
     18      19.3686      0.00000
     19      20.4046      0.00000
     20      20.4046      0.00000
     21      20.6217      0.00000
     22      20.6217      0.00000
     23      21.1483      0.00000
     24      21.1483      0.00000
     25      23.4732      0.00000
     26      23.4732      0.00000
     27      24.4192      0.00000
     28      24.4192      0.00000
     29      24.6822      0.00000
     30      24.6822      0.00000
     31      25.1038      0.00000
     32      25.1038      0.00000
     33      30.9055      0.00000
     34      30.9055      0.00000
     35      31.7162      0.00000
     36      31.7162      0.00000
     37      32.3645      0.00000
     38      32.3645      0.00000
     39      32.5319      0.00000
     40      32.5319      0.00000
     41      38.7022      0.00000
     42      38.7022      0.00000
     43      38.9732      0.00000
     44      38.9732      0.00000
     45      39.2043      0.00000
     46      39.2043      0.00000
     47      39.3594      0.00000
     48      39.3594      0.00000
     49      40.4032      0.00000
     50      40.4032      0.00000
     51      40.7218      0.00000
     52      40.7218      0.00000
     53      46.4845      0.00000
     54      46.4845      0.00000
     55      46.6550      0.00000
     56      46.6550      0.00000
     57      48.7060      0.00000
     58      48.7060      0.00000
     59      49.0348      0.00000
     60      49.0348      0.00000
     61      50.2276      0.00000
     62      50.2276      0.00000
     63      50.3294      0.00000
     64      50.3294      0.00000

 k-point    55 :       0.5000    0.5000    0.4000
  band No.  band energies     occupation 
      1       2.7239      2.00000
      2       2.7239      2.00000
      3       2.7239      2.00000
      4       2.7239      2.00000
      5       4.4709      2.00000
      6       4.4709      2.00000
      7       4.4709      2.00000
      8       4.4709      2.00000
      9      17.7236      0.00000
     10      17.7236      0.00000
     11      17.7236      0.00000
     12      17.7236      0.00000
     13      18.7302      0.00000
     14      18.7302      0.00000
     15      18.7302      0.00000
     16      18.7302      0.00000
     17      20.0955      0.00000
     18      20.0955      0.00000
     19      20.0955      0.00000
     20      20.0955      0.00000
     21      20.2967      0.00000
     22      20.2967      0.00000
     23      20.2967      0.00000
     24      20.2967      0.00000
     25      23.4442      0.00000
     26      23.4442      0.00000
     27      23.4442      0.00000
     28      23.4442      0.00000
     29      24.2847      0.00000
     30      24.2847      0.00000
     31      24.2847      0.00000
     32      24.2847      0.00000
     33      32.0248      0.00000
     34      32.0248      0.00000
     35      32.0248      0.00000
     36      32.0248      0.00000
     37      32.5622      0.00000
     38      32.5622      0.00000
     39      32.5622      0.00000
     40      32.5622      0.00000
     41      38.5863      0.00000
     42      38.5863      0.00000
     43      38.5863      0.00000
     44      38.5863      0.00000
     45      39.7422      0.00000
     46      39.7422      0.00000
     47      39.7422      0.00000
     48      39.7422      0.00000
     49      39.7440      0.00000
     50      39.7440      0.00000
     51      39.7440      0.00000
     52      39.7440      0.00000
     53      46.1157      0.00000
     54      46.1157      0.00000
     55      46.1157      0.00000
     56      46.1157      0.00000
     57      49.7582      0.00000
     58      49.7582      0.00000
     59      49.7582      0.00000
     60      49.7582      0.00000
     61      50.4603      0.00000
     62      50.4603      0.00000
     63      50.4603      0.00000
     64      50.4603      0.00000

 k-point    56 :       0.5000    0.5000    0.5000
  band No.  band energies     occupation 
      1       3.4070      2.00000
      2       3.4070      2.00000
      3       3.4070      2.00000
      4       3.4070      2.00000
      5       3.6198      2.00000
      6       3.6198      2.00000
      7       3.6198      2.00000
      8       3.6198      2.00000
      9      19.4092      0.00000
     10      19.4092      0.00000
     11      19.4092      0.00000
     12      19.4092      0.00000
     13      19.4092      0.00000
     14      19.4092      0.00000
     15      19.4092      0.00000
     16      19.4092      0.00000
     17      19.4608      0.00000
     18      19.4608      0.00000
     19      19.4608      0.00000
     20      19.4608      0.00000
     21      19.4608      0.00000
     22      19.4608      0.00000
     23      19.4608      0.00000
     24      19.4608      0.00000
     25      23.1273      0.00000
     26      23.1273      0.00000
     27      23.1273      0.00000
     28      23.1273      0.00000
     29      23.2799      0.00000
     30      23.2799      0.00000
     31      23.2799      0.00000
     32      23.2799      0.00000
     33      32.7931      0.00000
     34      32.7931      0.00000
     35      32.7931      0.00000
     36      32.7931      0.00000
     37      32.7931      0.00000
     38      32.7931      0.00000
     39      32.7931      0.00000
     40      32.7931      0.00000
     41      38.8394      0.00000
     42      38.8394      0.00000
     43      38.8394      0.00000
     44      38.8394      0.00000
     45      38.8394      0.00000
     46      38.8394      0.00000
     47      38.8394      0.00000
     48      38.8394      0.00000
     49      39.6470      0.00000
     50      39.6470      0.00000
     51      39.6470      0.00000
     52      39.6470      0.00000
     53      45.5776      0.00000
     54      45.5776      0.00000
     55      45.5776      0.00000
     56      45.5776      0.00000
     57      50.7446      0.00000
     58      50.7446      0.00000
     59      50.7446      0.00000
     60      50.7446      0.00000
     61      51.7210      0.00000
     62      51.7210      0.00000
     63      51.7210      0.00000
     64      51.7210      0.00000


--------------------------------------------------------------------------------------------------------


 soft charge-density along one line, spin component           1
         0         1         2         3         4         5         6         7         8         9
 total charge-density along one line
 
 pseudopotential strength for first ion, spin component:           1
  8.444  14.391   0.000  -0.000   0.000   0.000  -0.000  -0.000
 14.391  24.527   0.000  -0.000   0.000   0.000  -0.000   0.000
  0.000   0.000   1.988   0.000  -0.000   5.731   0.000  -0.000
 -0.000  -0.000   0.000   1.988   0.000   0.000   5.731   0.000
  0.000   0.000  -0.000   0.000   1.988  -0.000   0.000   5.731
  0.000   0.000   5.731   0.000  -0.000  16.436   0.000  -0.000
 -0.000  -0.000   0.000   5.731   0.000   0.000  16.436   0.000
 -0.000   0.000  -0.000   0.000   5.731  -0.000   0.000  16.436
 total augmentation occupancy for first ion, spin component:           1
  3.355  -0.825   0.000  -0.000   0.000  -0.000   0.000   0.000
 -0.825   0.271  -0.000   0.000   0.000   0.000   0.000  -0.000
  0.000  -0.000   1.100   0.000   0.000  -0.070  -0.000  -0.000
 -0.000   0.000   0.000   1.100   0.000  -0.000  -0.070  -0.000
  0.000   0.000   0.000   0.000   1.100  -0.000  -0.000  -0.070
 -0.000   0.000  -0.070  -0.000  -0.000   0.005   0.000   0.000
  0.000   0.000  -0.000  -0.070  -0.000   0.000   0.005   0.000
  0.000  -0.000  -0.000  -0.000  -0.070   0.000   0.000   0.005


------------------------ aborting loop because EDIFF is reached ----------------------------------------


    CHARGE:  cpu time      0.0249: real time      0.0250
    FORLOC:  cpu time      0.0006: real time      0.0007
    FORNL :  cpu time      0.0278: real time      0.0283
    STRESS:  cpu time      0.4251: real time      0.4304
    FORCOR:  cpu time      0.0036: real time      0.0037
    FORHAR:  cpu time      0.0010: real time      0.0011
    MIXING:  cpu time      0.0005: real time      0.0006
    OFIELD:  cpu time      0.0003: real time      0.0003

  FORCE on cell =-STRESS in cart. coord.  units (eV):
  Direction    XX          YY          ZZ          XY          YZ          ZX
  --------------------------------------------------------------------------------------
  Alpha Z    -0.81426    -0.81426    -0.81426
  Ewald     -98.02100   -98.02100   -98.02100    -0.00000     0.00000     0.00000
  Hartree     0.13806     0.13806     0.13806    -0.00000    -0.00000    -0.00000
  E(xc)     -34.25330   -34.25330   -34.25330     0.00000     0.00000     0.00000
  Local       1.40361     1.40361     1.40361     0.00000    -0.00000     0.00000
  n-local    74.38173    75.35246    77.02428     0.25709     0.98404     0.38863
  augment    -4.13716    -4.13716    -4.13716     0.00000     0.00000     0.00000
  Kinetic    57.58445    58.99094    63.58711     1.38397    -8.14080    -1.28244
  Fock        0.00000     0.00000     0.00000     0.00000     0.00000     0.00000
  -------------------------------------------------------------------------------------
  Total      -0.04372    -0.04372    -0.04372     0.00000     0.00000     0.00000
  in kB      -1.06144    -1.06144    -1.06144     0.00000     0.00000     0.00000
  external pressure =       -1.06 kB  Pullay stress =        0.00 kB


 VOLUME and BASIS-vectors are now :
 -----------------------------------------------------------------------------
  energy-cutoff  :      520.00
  volume of cell :       66.00
      direct lattice vectors                 reciprocal lattice vectors
     4.041240021  0.000000000  0.000000000     0.247448802 -0.000000000  0.000000000
     0.000000000  4.041240021  0.000000000     0.000000000  0.247448802  0.000000000
     0.000000000  0.000000000  4.041240021    -0.000000000 -0.000000000  0.247448802

  length of vectors
     4.041240021  4.041240021  4.041240021     0.247448802  0.247448802  0.247448802


 FORCES acting on ions
    electron-ion (+dipol)            ewald-force                    non-local-force                 convergence-correction
 -----------------------------------------------------------------------------------------------
   0.441E-15 0.265E-15 -.995E-15   -.850E-15 -.153E-14 0.594E-16   -.100E-19 0.475E-19 0.784E-20   -.778E-15 0.620E-16 0.802E-16
   -.109E-14 -.326E-14 -.243E-14   -.731E-15 0.816E-15 0.504E-15   -.341E-20 -.285E-19 0.262E-20   -.771E-15 -.554E-16 -.846E-16
   -.275E-14 -.876E-16 0.235E-13   0.899E-15 -.852E-15 0.275E-15   -.138E-19 -.283E-20 0.793E-21   0.732E-15 0.713E-16 -.750E-16
   -.229E-14 -.908E-14 -.183E-13   0.906E-15 0.147E-14 -.635E-15   -.177E-19 -.308E-19 0.174E-19   0.735E-15 -.691E-16 0.825E-16
 -----------------------------------------------------------------------------------------------
   -.569E-14 -.122E-13 0.168E-14   0.224E-15 -.101E-15 0.203E-15   -.449E-19 -.146E-19 0.287E-19   -.819E-16 0.890E-17 0.307E-17
 
 
 POSITION                                       TOTAL-FORCE (eV/Angst)
 -----------------------------------------------------------------------------------
      0.00000      0.00000      0.00000        -0.000000     -0.000000      0.000000
      0.00000      2.02062      2.02062         0.000000     -0.000000     -0.000000
      2.02062      0.00000      2.02062         0.000000     -0.000000      0.000000
      2.02062      2.02062      0.00000         0.000000      0.000000     -0.000000
 -----------------------------------------------------------------------------------
    total drift:                               -0.000000     -0.000000      0.000000


--------------------------------------------------------------------------------------------------------



  FREE ENERGIE OF THE ION-ELECTRON SYSTEM (eV)
  ---------------------------------------------------
  free  energy   TOTEN  =       -14.97303458 eV

  energy  without entropy=      -14.97303458  energy(sigma->0) =      -14.97303458
 


--------------------------------------------------------------------------------------------------------


    POTLOK:  cpu time      0.0067: real time      0.0068


--------------------------------------------------------------------------------------------------------


     LOOP+:  cpu time     57.0002: real time     57.3611
 -----------------------------------------------------------------------------
|                                                                             |
|           W    W    AA    RRRRR   N    N  II  N    N   GGGG   !!!           |
|           W    W   A  A   R    R  NN   N  II  NN   N  G    G  !!!           |
|           W    W  A    A  R    R  N N  N  II  N N  N  G       !!!           |
|           W WW W  AAAAAA  RRRRR   N  N N  II  N  N N  G  GGG   !            |
|           WW  WW  A    A  R   R   N   NN  II  N   NN  G    G                |
|           W    W  A    A  R    R  N    N  II  N    N   GGGG   !!!           |
|                                                                             |
|     Tetrahedron method does not include variations of the Fermi             |
|     occupations, so forces and stress will be inaccurate. We suggest        |
|     using a different smearing scheme ISMEAR = 1 or 2 for metals in         |
|     relaxations.                                                            |
|                                                                             |
 -----------------------------------------------------------------------------

    4ORBIT:  cpu time      0.0000: real time      0.0000
 BZINTS: Fermi energy:    7.976670;   12.000000 electrons
         Band energy: 0.429167E+02;  BLOECHL correction:   -0.240279

 total amount of memory used by VASP MPI-rank0    40028. kBytes
=======================================================================

   base      :      30000. kBytes
   nonl-proj :       6770. kBytes
   fftplans  :        255. kBytes
   grid      :       1271. kBytes
   one-center:         12. kBytes
   wavefun   :       1720. kBytes
 
  
  
 General timing and accounting informations for this job:
 ========================================================
  
                  Total CPU time used (sec):       60.074
                            User time (sec):       57.945
                          System time (sec):        2.129
                         Elapsed time (sec):       62.657
  
                   Maximum memory used (kb):      664540.
                   Average memory used (kb):          N/A
  
                          Minor page faults:       142052
                          Major page faults:          115
                 Voluntary context switches:         4744
