       N       E                     dE             d eps       ncg     rms          rms(c)
DAV:   1     0.198279407125E+04    0.19828E+04   -0.90569E+04 87768   0.210E+03
DAV:   2     0.929224961858E+02   -0.18899E+04   -0.18571E+04 84864   0.601E+02
DAV:   3    -0.943416838898E+02   -0.18726E+03   -0.18106E+03123144   0.189E+02
DAV:   4    -0.104523262484E+03   -0.10182E+02   -0.10130E+02120336   0.458E+01
DAV:   5    -0.104789290225E+03   -0.26603E+00   -0.26566E+00113856   0.690E+00    0.254E+01
RMM:   6    -0.110678472123E+03   -0.58892E+01   -0.12496E+02 84874   0.789E+01    0.358E+01
RMM:   7    -0.962976445340E+02    0.14381E+02   -0.33539E+01 84957   0.458E+01    0.112E+01
RMM:   8    -0.992108352030E+02   -0.29132E+01   -0.76215E+00 94801   0.141E+01    0.261E+01
RMM:   9    -0.957460928038E+02    0.34647E+01   -0.53202E+00 90812   0.131E+01    0.173E+00
RMM:  10    -0.959815436479E+02   -0.23545E+00   -0.19197E+00127424   0.404E+00    0.474E+00
RMM:  11    -0.959303776792E+02    0.51166E-01   -0.27176E-01116958   0.174E+00    0.180E+00
RMM:  12    -0.959234413553E+02    0.69363E-02   -0.15788E-01 87298   0.238E+00    0.194E+00
RMM:  13    -0.959314501039E+02   -0.80087E-02   -0.54589E-02115593   0.744E-01    0.201E+00
RMM:  14    -0.959425031188E+02   -0.11053E-01   -0.74155E-02111252   0.770E-01    0.193E+00
RMM:  15    -0.960662754709E+02   -0.12377E+00   -0.11959E+00140808   0.313E+00    0.208E+00
RMM:  16    -0.960066248613E+02    0.59651E-01   -0.72557E-02117597   0.101E+00    0.208E+00
RMM:  17    -0.962362647508E+02   -0.22964E+00   -0.44486E-01135796   0.188E+00    0.219E+00
RMM:  18    -0.959861101664E+02    0.25015E+00   -0.32317E-01134985   0.183E+00    0.128E+00
RMM:  19    -0.959040026987E+02    0.82107E-01   -0.31749E-01134407   0.136E+00    0.386E-01
RMM:  20    -0.959016481554E+02    0.23545E-02   -0.30450E-02116727   0.439E-01    0.130E-01
RMM:  21    -0.959014498010E+02    0.19835E-03   -0.27770E-03 84017   0.177E-01    0.811E-02
RMM:  22    -0.959012303109E+02    0.21949E-03   -0.31270E-03 87974   0.208E-01    0.470E-02
RMM:  23    -0.959012750733E+02   -0.44762E-04   -0.55356E-04 56845   0.895E-02
   1 F= -.10164594E+03 E0= -.10163191E+03  d E =-.101646E+03  mag=     0.0000
       N       E                     dE             d eps       ncg     rms          rms(c)
DAV:   1    -0.959184009460E+02   -0.17171E-01   -0.19362E+00110256   0.335E+00    0.377E-01
RMM:   2    -0.959282438635E+02   -0.98429E-02   -0.10073E-01 87757   0.158E+00    0.785E-01
RMM:   3    -0.959301385911E+02   -0.18947E-02   -0.36398E-02 98371   0.824E-01    0.638E-01
RMM:   4    -0.959294786391E+02    0.65995E-03   -0.83917E-03 93875   0.477E-01    0.406E-01
RMM:   5    -0.959299216585E+02   -0.44302E-03   -0.28023E-03 81681   0.253E-01    0.537E-01
RMM:   6    -0.959288059190E+02    0.11157E-02   -0.86373E-04 63160   0.176E-01    0.750E-02
RMM:   7    -0.959288496371E+02   -0.43718E-04   -0.10393E-03 67930   0.102E-01
   2 F= -.10167443E+03 E0= -.10166035E+03  d E =-.284883E-01  mag=    -0.0000
       N       E                     dE             d eps       ncg     rms          rms(c)
DAV:   1    -0.959286863590E+02    0.11956E-03   -0.18906E-01 95016   0.106E+00    0.137E-01
RMM:   2    -0.959298169231E+02   -0.11306E-02   -0.98080E-03 79204   0.474E-01    0.320E-01
RMM:   3    -0.959299612296E+02   -0.14431E-03   -0.34388E-03 85449   0.224E-01    0.232E-01
RMM:   4    -0.959301503769E+02   -0.18915E-03   -0.54443E-04 53554   0.103E-01
   3 F= -.10167601E+03 E0= -.10166194E+03  d E =-.300660E-01  mag=     0.0000
       N       E                     dE             d eps       ncg     rms          rms(c)
DAV:   1    -0.960128262948E+02   -0.82865E-01   -0.23858E+00 99336   0.103E+01    0.226E+00
RMM:   2    -0.959825427104E+02    0.30284E-01   -0.35256E-01107566   0.391E+00    0.230E+00
RMM:   3    -0.961259406164E+02   -0.14340E+00   -0.21645E-01 96286   0.319E+00    0.746E+00
RMM:   4    -0.959598149193E+02    0.16613E+00   -0.95375E-02 87225   0.219E+00    0.159E+00
RMM:   5    -0.959756961234E+02   -0.15881E-01   -0.29891E-02101558   0.973E-01    0.211E+00
RMM:   6    -0.959390011161E+02    0.36695E-01   -0.19911E-02 89896   0.898E-01    0.404E-01
RMM:   7    -0.959470358173E+02   -0.80347E-02   -0.11849E-02 94194   0.569E-01    0.113E+00
RMM:   8    -0.959412805587E+02    0.57553E-02   -0.52307E-03 82794   0.489E-01    0.116E-01
RMM:   9    -0.959413323870E+02   -0.51828E-04   -0.27285E-03 87790   0.200E-01    0.887E-02
RMM:  10    -0.959414302726E+02   -0.97886E-04   -0.47456E-04 54006   0.113E-01
   4 F= -.10168605E+03 E0= -.10167178E+03  d E =-.100407E-01  mag=    -0.0000
       N       E                     dE             d eps       ncg     rms          rms(c)
DAV:   1    -0.960585493576E+02   -0.11722E+00   -0.38023E+00 97944   0.130E+01    0.287E+00
RMM:   2    -0.959971328395E+02    0.61417E-01   -0.54686E-01107578   0.491E+00    0.214E+00
RMM:   3    -0.960169205921E+02   -0.19788E-01   -0.30114E-01 90637   0.411E+00    0.419E+00
RMM:   4    -0.960083523056E+02    0.85683E-02   -0.11150E-01 92215   0.222E+00    0.385E+00
RMM:   5    -0.960307631301E+02   -0.22411E-01   -0.11772E-01101690   0.192E+00    0.437E+00
RMM:   6    -0.959493200460E+02    0.81443E-01   -0.53241E-02 89251   0.154E+00    0.688E-01
RMM:   7    -0.959516394391E+02   -0.23194E-02   -0.12789E-02 99920   0.352E-01    0.785E-01
RMM:   8    -0.959509820364E+02    0.65740E-03   -0.13512E-02109696   0.414E-01    0.547E-01
RMM:   9    -0.959487106943E+02    0.22713E-02   -0.19137E-03 79004   0.211E-01    0.339E-01
RMM:  10    -0.959490761250E+02   -0.36543E-03   -0.79111E-04 63261   0.116E-01    0.316E-01
RMM:  11    -0.959476751114E+02    0.14010E-02   -0.88640E-04 64152   0.148E-01    0.212E-01
RMM:  12    -0.959466655119E+02    0.10096E-02   -0.63279E-03114373   0.207E-01    0.521E-02
RMM:  13    -0.959467176966E+02   -0.52185E-04   -0.36994E-04 50912   0.954E-02
   5 F= -.10168988E+03 E0= -.10167541E+03  d E =-.138661E-01  mag=    -0.0000
       N       E                     dE             d eps       ncg     rms          rms(c)
DAV:   1    -0.959249057158E+02    0.21760E-01   -0.93898E-01119832   0.164E+01    0.108E+00
RMM:   2    -0.959797738576E+02   -0.54868E-01   -0.40809E-01118541   0.364E+00    0.281E+00
RMM:   3    -0.959574501886E+02    0.22324E-01   -0.10601E-01 95851   0.222E+00    0.139E+00
RMM:   4    -0.959508142928E+02    0.66359E-02   -0.35196E-02 95712   0.122E+00    0.417E-01
RMM:   5    -0.959506029874E+02    0.21131E-03   -0.99545E-03 98486   0.598E-01    0.699E-01
RMM:   6    -0.959493490942E+02    0.12539E-02   -0.33547E-03 87760   0.279E-01    0.191E-01
RMM:   7    -0.959492129239E+02    0.13617E-03   -0.10006E-03 66499   0.142E-01
   6 F= -.10169167E+03 E0= -.10167726E+03  d E =-.179268E-02  mag=    -0.0000
       N       E                     dE             d eps       ncg     rms          rms(c)
DAV:   1    -0.959489379987E+02    0.41110E-03   -0.19901E-02128904   0.233E+00    0.222E-01
RMM:   2    -0.959510158728E+02   -0.20779E-02   -0.80529E-03110459   0.507E-01    0.610E-01
RMM:   3    -0.959503273037E+02    0.68857E-03   -0.17121E-03 70412   0.297E-01    0.426E-01
RMM:   4    -0.959501206535E+02    0.20665E-03   -0.53601E-04 68781   0.113E-01    0.383E-01
RMM:   5    -0.959494785348E+02    0.64212E-03   -0.12076E-03 63965   0.217E-01    0.303E-01
RMM:   6    -0.959495552655E+02   -0.76731E-04   -0.57949E-04 56701   0.140E-01
   7 F= -.10169211E+03 E0= -.10167768E+03  d E =-.223012E-02  mag=    -0.0000
       N       E                     dE             d eps       ncg     rms          rms(c)
DAV:   1    -0.959814660177E+02   -0.31987E-01   -0.77766E-01 95472   0.480E+00    0.149E+00
RMM:   2    -0.959847006992E+02   -0.32347E-02   -0.12074E-01 93976   0.229E+00    0.252E+00
RMM:   3    -0.959893472647E+02   -0.46466E-02   -0.89834E-02 86318   0.208E+00    0.293E+00
RMM:   4    -0.959608291276E+02    0.28518E-01   -0.48404E-02 88023   0.154E+00    0.161E+00
RMM:   5    -0.959668150613E+02   -0.59859E-02   -0.20060E-02 89453   0.875E-01    0.209E+00
RMM:   6    -0.959567183642E+02    0.10097E-01   -0.94472E-03 85045   0.659E-01    0.101E+00
RMM:   7    -0.959481169844E+02    0.86014E-02   -0.40874E-03 80107   0.397E-01    0.264E-01
RMM:   8    -0.959490633278E+02   -0.94634E-03   -0.21772E-03 83431   0.190E-01    0.296E-01
RMM:   9    -0.959489318076E+02    0.13152E-03   -0.54001E-04 56721   0.120E-01
   8 F= -.10169228E+03 E0= -.10167791E+03  d E =-.178669E-03  mag=     0.0000
       N       E                     dE             d eps       ncg     rms          rms(c)
DAV:   1    -0.959495955072E+02   -0.53218E-03   -0.30971E-02114096   0.960E-01    0.314E-01
