unknown system                          
           1
     4.909683   -4.971321    1.117370
     4.665188    4.823024    0.927252
     1.087722   -0.147443    6.442553
   Fe   Se
     8     8
unknown system                          
           1
     4.909683   -4.971321    1.117370
     4.665188    4.823024    0.927252
     1.087722   -0.147443    6.442553
   Fe   Se
     8     8
Direct configuration=     1
   0.95805676  0.00021274  0.99962517
   0.04194324  0.49978726  0.00037483
   0.45805676  0.00021274  0.99962517
   0.54194324  0.49978726  0.00037483
   0.25000000  0.25000000  0.00000000
   0.25000000  0.75000000  0.00000000
   0.75000000  0.25000000  0.00000000
   0.75000000  0.75000000  0.00000000
   0.26012229  0.05968993  0.73766115
   0.37937336  0.55940584  0.73827997
   0.76012229  0.05968993  0.73766115
   0.87937336  0.55940584  0.73827997
   0.23987771  0.44031007  0.26233885
   0.12062664  0.94059416  0.26172003
   0.73987771  0.44031007  0.26233885
   0.62062664  0.94059416  0.26172003
unknown system                          
           1
     4.909948   -4.972010    1.116190
     4.664801    4.822962    0.925827
     1.086159   -0.147741    6.441633
   Fe   Se
     8     8
Direct configuration=     2
   0.95809128  0.00020978  0.99960673
   0.04190872  0.49979022  0.00039327
   0.45809128  0.00020978  0.99960673
   0.54190872  0.49979022  0.00039327
   0.25000000  0.25000000  0.00000000
   0.25000000  0.75000000  0.00000000
   0.75000000  0.25000000  0.00000000
   0.75000000  0.75000000  0.00000000
   0.26078008  0.06011080  0.73492326
   0.37992844  0.55978725  0.73555204
   0.76078008  0.06011080  0.73492326
   0.87992844  0.55978725  0.73555204
   0.23921992  0.43988920  0.26507674
   0.12007156  0.94021275  0.26444796
   0.73921992  0.43988920  0.26507674
   0.62007156  0.94021275  0.26444796
unknown system                          
           1
     4.910032   -4.972228    1.115816
     4.664679    4.822942    0.925376
     1.085665   -0.147836    6.441342
   Fe   Se
     8     8
Direct configuration=     3
   0.95810221  0.00020884  0.99960090
   0.04189779  0.49979116  0.00039910
   0.45810221  0.00020884  0.99960090
   0.54189779  0.49979116  0.00039910
   0.25000000  0.25000000  0.00000000
   0.25000000  0.75000000  0.00000000
   0.75000000  0.25000000  0.00000000
   0.75000000  0.75000000  0.00000000
   0.26098817  0.06024387  0.73405660
   0.38010402  0.55990783  0.73468853
   0.76098817  0.06024387  0.73405660
   0.88010402  0.55990783  0.73468853
   0.23901183  0.43975613  0.26594340
   0.11989598  0.94009217  0.26531147
   0.73901183  0.43975613  0.26594340
   0.61989598  0.94009217  0.26531147
unknown system                          
           1
     4.922347   -4.984927    1.113996
     4.678431    4.836914    0.922201
     1.092347   -0.149452    6.407896
   Fe   Se
     8     8
Direct configuration=     4
   0.95842990  0.00020189  0.99962301
   0.04157010  0.49979811  0.00037699
   0.45842990  0.00020189  0.99962301
   0.54157010  0.49979811  0.00037699
   0.25000000  0.25000000 -0.00000000
   0.25000000  0.75000000 -0.00000000
   0.75000000  0.25000000 -0.00000000
   0.75000000  0.75000000 -0.00000000
   0.26115227  0.06017507  0.73327150
   0.38014713  0.55984492  0.73385158
   0.76115227  0.06017507  0.73327150
   0.88014713  0.55984492  0.73385158
   0.23884773  0.43982493  0.26672850
   0.11985287  0.94015508  0.26614842
   0.73884773  0.43982493  0.26672850
   0.61985287  0.94015508  0.26614842
unknown system                          
           1
     4.937989   -5.001056    1.111724
     4.695882    4.854646    0.918213
     1.100803   -0.151496    6.365821
   Fe   Se
     8     8
Direct configuration=     5
   0.95884227  0.00019309  0.99965137
   0.04115773  0.49980691  0.00034863
   0.45884227  0.00019309  0.99965137
   0.54115773  0.49980691  0.00034863
   0.25000000  0.25000000 -0.00000000
   0.25000000  0.75000000 -0.00000000
   0.75000000  0.25000000 -0.00000000
   0.75000000  0.75000000 -0.00000000
   0.26136038  0.06008960  0.73227526
   0.38020304  0.55976693  0.73278944
   0.76136038  0.06008960  0.73227526
   0.88020304  0.55976693  0.73278944
   0.23863962  0.43991040  0.26772474
   0.11979696  0.94023307  0.26721056
   0.73863962  0.43991040  0.26772474
   0.61979696  0.94023307  0.26721056
unknown system                          
           1
     4.945918   -5.009697    1.116638
     4.697932    4.856401    0.916824
     1.106649   -0.156457    6.354706
   Fe   Se
     8     8
Direct configuration=     6
   0.95814192  0.00023746  0.99957981
   0.04185808  0.49976254  0.00042019
   0.45814192  0.00023746  0.99957981
   0.54185808  0.49976254  0.00042019
   0.25000000  0.25000000 -0.00000000
   0.25000000  0.75000000 -0.00000000
   0.75000000  0.25000000 -0.00000000
   0.75000000  0.75000000 -0.00000000
   0.26140537  0.05962368  0.73233601
   0.37946718  0.55936967  0.73275292
   0.76140537  0.05962368  0.73233601
   0.87946718  0.55936967  0.73275292
   0.23859463  0.44037632  0.26766399
   0.12053282  0.94063033  0.26724708
   0.73859463  0.44037632  0.26766399
   0.62053282  0.94063033  0.26724708
unknown system                          
           1
     4.944813   -5.008492    1.115953
     4.697646    4.856155    0.917017
     1.105834   -0.155766    6.356254
   Fe   Se
     8     8
Direct configuration=     7
   0.95823934  0.00023129  0.99958975
   0.04176066  0.49976871  0.00041025
   0.45823934  0.00023129  0.99958975
   0.54176066  0.49976871  0.00041025
   0.25000000  0.25000000 -0.00000000
   0.25000000  0.75000000 -0.00000000
   0.75000000  0.25000000 -0.00000000
   0.75000000  0.75000000 -0.00000000
   0.26139912  0.05968857  0.73232755
   0.37956954  0.55942501  0.73275799
   0.76139912  0.05968857  0.73232755
   0.87956954  0.55942501  0.73275799
   0.23860088  0.44031143  0.26767245
   0.12043046  0.94057499  0.26724201
   0.73860088  0.44031143  0.26767245
   0.62043046  0.94057499  0.26724201
unknown system                          
           1
     4.935931   -4.995970    1.108154
     4.695814    4.851419    0.914565
     1.094835   -0.151250    6.370292
   Fe   Se
     8     8
Direct configuration=     8
   0.95827254  0.00015878  0.99970260
   0.04172746  0.49984122  0.00029740
   0.45827254  0.00015878  0.99970260
   0.54172746  0.49984122  0.00029740
   0.25000000  0.25000000 -0.00000000
   0.25000000  0.75000000 -0.00000000
   0.75000000  0.25000000 -0.00000000
   0.75000000  0.75000000 -0.00000000
   0.26129956  0.05942112  0.73234454
   0.37944918  0.55928223  0.73286701
   0.76129956  0.05942112  0.73234454
   0.87944918  0.55928223  0.73286701
   0.23870044  0.44057888  0.26765546
   0.12055082  0.94071777  0.26713299
   0.73870044  0.44057888  0.26765546
   0.62055082  0.94071777  0.26713299
