       N       E                     dE             d eps       ncg     rms          rms(c)
DAV:   1     0.176642181058E+04    0.17664E+04   -0.84482E+04 43040   0.181E+03
DAV:   2     0.565610551786E+01   -0.17608E+04   -0.16708E+04 43008   0.482E+02
DAV:   3    -0.103532796378E+03   -0.10919E+03   -0.10779E+03 50400   0.129E+02
DAV:   4    -0.105089455540E+03   -0.15567E+01   -0.15563E+01 45856   0.154E+01
DAV:   5    -0.105118738760E+03   -0.29283E-01   -0.29283E-01 52992   0.205E+00    0.400E+01
DAV:   6    -0.121047612006E+03   -0.15929E+02   -0.26685E+02 53440   0.694E+01    0.733E+01
DAV:   7    -0.106912978969E+03    0.14135E+02   -0.22468E+02 52480   0.590E+01    0.581E+01
DAV:   8    -0.965969574595E+02    0.10316E+02   -0.15148E+02 51776   0.444E+01    0.316E+01
DAV:   9    -0.105187508545E+03   -0.85906E+01   -0.15975E+02 49984   0.349E+01    0.498E+01
DAV:  10    -0.935348822615E+02    0.11653E+02   -0.32352E+01 49568   0.265E+01    0.222E+01
DAV:  11    -0.932636742653E+02    0.27121E+00   -0.20542E+01 51168   0.159E+01    0.204E+01
DAV:  12    -0.925589901353E+02    0.70468E+00   -0.12065E+01 50688   0.105E+01    0.982E+00
DAV:  13    -0.927170397175E+02   -0.15805E+00   -0.44109E-01 51072   0.245E+00    0.927E+00
DAV:  14    -0.928881136276E+02   -0.17107E+00   -0.24307E-01 52928   0.205E+00    0.779E+00
DAV:  15    -0.932283372905E+02   -0.34022E+00   -0.11014E+00 52544   0.465E+00    0.616E+00
DAV:  16    -0.932861329136E+02   -0.57796E-01   -0.47577E-01 52256   0.243E+00    0.374E+00
DAV:  17    -0.932534864936E+02    0.32646E-01   -0.18425E-01 53088   0.192E+00    0.174E+00
DAV:  18    -0.932585016007E+02   -0.50151E-02   -0.45704E-02 52000   0.101E+00    0.151E+00
DAV:  19    -0.932652607236E+02   -0.67591E-02   -0.25992E-02 51616   0.732E-01    0.920E-01
DAV:  20    -0.932677212359E+02   -0.24605E-02   -0.10510E-02 52096   0.562E-01    0.375E-01
DAV:  21    -0.932687778614E+02   -0.10566E-02   -0.36260E-03 54688   0.245E-01    0.261E-01
DAV:  22    -0.932689177509E+02   -0.13989E-03   -0.89923E-04 51456   0.146E-01    0.168E-01
DAV:  23    -0.932689217317E+02   -0.39809E-05   -0.41849E-04 51584   0.112E-01    0.613E-02
DAV:  24    -0.932689299561E+02   -0.82244E-05   -0.78727E-05 50816   0.399E-02    0.286E-02
DAV:  25    -0.932689338633E+02   -0.39072E-05   -0.35324E-05 53056   0.266E-02    0.272E-02
DAV:  26    -0.932689457421E+02   -0.11879E-04   -0.68911E-06 48480   0.169E-02    0.118E-02
DAV:  27    -0.932689523257E+02   -0.65836E-05   -0.37088E-06 29056   0.904E-03    0.399E-03
DAV:  28    -0.932689551757E+02   -0.28500E-05   -0.74190E-07 27488   0.393E-03    0.140E-03
DAV:  29    -0.932689589396E+02   -0.37639E-05   -0.31988E-07 28128   0.221E-03    0.763E-04
DAV:  30    -0.932689609196E+02   -0.19800E-05   -0.11748E-07 24384   0.130E-03    0.616E-04
DAV:  31    -0.932689631601E+02   -0.22405E-05   -0.98136E-08 25216   0.107E-03    0.350E-04
DAV:  32    -0.932689659271E+02   -0.27670E-05   -0.13165E-07 26368   0.118E-03    0.147E-04
DAV:  33    -0.932689691690E+02   -0.32419E-05   -0.19217E-07 27008   0.144E-03    0.212E-04
DAV:  34    -0.932689720477E+02   -0.28787E-05   -0.16039E-07 24960   0.130E-03    0.169E-04
DAV:  35    -0.932689753789E+02   -0.33312E-05   -0.20454E-07 26464   0.146E-03    0.774E-05
DAV:  36    -0.932689773277E+02   -0.19488E-05   -0.74695E-08 23232   0.809E-04    0.671E-05
DAV:  37    -0.932689781981E+02   -0.87044E-06   -0.18763E-08 22912   0.380E-04
   1 F= -.93268978E+02 E0= -.93268978E+02  d E =0.000000E+00  mag=    13.7982
