 vasp.6.4.3 19Mar24 (build Mar 26 2024 14:05:37) complex                        
  
 executed on             LinuxIFC date 2024.12.17  11:19:12
 running  128 mpi-ranks, on    1 nodes
 distrk:  each k-point on   32 cores,    4 groups
 distr:  one band on NCORE=   1 cores,   32 groups


--------------------------------------------------------------------------------------------------------


 INCAR:
   ALGO = Normal
   EDIFF = 1e-06
   EDIFFG = -0.01
   ENCUT = 520
   GGA = Pe
   IBRION = -1
   ISIF = 4
   ISMEAR = -5
   ISPIN = 2
   KPAR = 4
   LCHARG = True
   LORBIT = 11
   LREAL = False
   LWAVE = False
   MAGMOM = 1*-2.315 2*2.569 2*2.474 1*2.678 1*-2.315 2*2.569 2*0.05 1*0.288
   NELM = 200
   NSW = 0
   PREC = Accurate
   SIGMA = 0.2
   SYMPREC = 9.999999999999999e-05

 POTCAR:    PAW_PBE Fe_pv 02Aug2007               
 POTCAR:    PAW_PBE Pt 04Feb2005                  
 -----------------------------------------------------------------------------
|                                                                             |
|           W    W    AA    RRRRR   N    N  II  N    N   GGGG   !!!           |
|           W    W   A  A   R    R  NN   N  II  NN   N  G    G  !!!           |
|           W    W  A    A  R    R  N N  N  II  N N  N  G       !!!           |
|           W WW W  AAAAAA  RRRRR   N  N N  II  N  N N  G  GGG   !            |
|           WW  WW  A    A  R   R   N   NN  II  N   NN  G    G                |
|           W    W  A    A  R    R  N    N  II  N    N   GGGG   !!!           |
|                                                                             |
|     For optimal performance we recommend to set                             |
|       NCORE = 2 up to number-of-cores-per-socket                            |
|     NCORE specifies how many cores store one orbital (NPAR=cpu/NCORE).      |
|     This setting can greatly improve the performance of VASP for DFT.       |
|     The default, NCORE=1 might be grossly inefficient on modern             |
|     multi-core architectures or massively parallel machines. Do your        |
|     own testing! More info at https://www.vasp.at/wiki/index.php/NCORE      |
|     Unfortunately you need to use the default for GW and RPA                |
|     calculations (for HF NCORE is supported but not extensively tested      |
|     yet).                                                                   |
|                                                                             |
 -----------------------------------------------------------------------------

 POTCAR:    PAW_PBE Fe_pv 02Aug2007               
   SHA256 =  5d22e414b1f82158bf2c7ecb8b97b28fd0923e48cadc1c3bf74d524558f5dd32 Fe_pv/POTCAR          
   COPYR  = (c) Copyright 02Aug2007 Georg Kresse                                                    
   COPYR  = This file is part of the software VASP. Any use, copying, and all other rights are regul
   COPYR  = If you do not have a valid VASP license, you may not use, copy or distribute this file. 
   VRHFIN =Fe:  3pd7s1                                                                              
   LEXCH  = PE                                                                                      
   EATOM  =  2457.4239 eV,  180.6156 Ry                                                             
                                                                                                    
   TITEL  = PAW_PBE Fe_pv 02Aug2007                                                                 
   LULTRA =        F    use ultrasoft PP ?                                                          
   IUNSCR =        1    unscreen: 0-lin 1-nonlin 2-no                                               
   RPACOR =    1.750    partial core radius                                                         
   POMASS =   55.847; ZVAL   =   14.000    mass and valenz                                          
   RCORE  =    2.200    outmost cutoff radius                                                       
   RWIGS  =    2.200; RWIGS  =    1.164    wigner-seitz radius (au A)                               
   ENMAX  =  293.238; ENMIN  =  219.928 eV                                                          
   ICORE  =        3    local potential                                                             
   LCOR   =        T    correct aug charges                                                         
   LPAW   =        T    paw PP                                                                      
   EAUG   =  578.342                                                                                
   DEXC   =    0.000                                                                                
   RMAX   =    2.249    core radius for proj-oper                                                   
   RAUG   =    1.300    factor for augmentation sphere                                              
   RDEP   =    2.296    radius for radial grids                                                     
   RDEPT  =    1.766    core radius for aug-charge                                                  
                                                                                                    
   Atomic configuration                                                                             
    8 entries                                                                                       
     n  l   j            E        occ.                                                              
     1  0  0.50     -6993.8440   2.0000                                                             
     2  0  0.50      -814.6047   2.0000                                                             
     2  1  1.50      -693.3689   6.0000                                                             
     3  0  0.50       -89.4732   2.0000                                                             
     3  1  1.50       -55.6373   6.0000                                                             
     3  2  2.50        -3.8151   7.0000                                                             
     4  0  0.50        -4.2551   1.0000                                                             
     4  3  2.50        -1.3606   0.0000                                                             
   Description                                                                                      
     l       E           TYP  RCUT    TYP  RCUT                                                     
     1    -55.6372668     23  2.000                                                                 
     1     -5.4423304     23  2.000                                                                 
     2     -3.8151096     23  2.200                                                                 
     2     -5.1756922     23  2.200                                                                 
     0     -4.2550951     23  2.200                                                                 
     0     27.2116520     23  2.200                                                                 
     3     -1.3605826     23  2.200                                                                 
  local pseudopotential read in
  partial core-charges read in
  partial kinetic energy density read in
  atomic valenz-charges read in
  non local Contribution for L=           1  read in
    real space projection operators read in
  non local Contribution for L=           1  read in
    real space projection operators read in
  non local Contribution for L=           2  read in
    real space projection operators read in
  non local Contribution for L=           2  read in
    real space projection operators read in
  non local Contribution for L=           0  read in
    real space projection operators read in
  non local Contribution for L=           0  read in
    real space projection operators read in
    PAW grid and wavefunctions read in
 
   number of l-projection  operators is LMAX  =           6
   number of lm-projection operators is LMMAX =          18
 
 POTCAR:    PAW_PBE Pt 04Feb2005                  
   SHA256 =  3ed90460adef76debcff1cfb73ee1349b515b1a3db03439735b44de3a8db7dc8 Pt/POTCAR             
   COPYR  = (c) Copyright 04Feb2005 Georg Kresse                                                    
   COPYR  = This file is part of the software VASP. Any use, copying, and all other rights are regul
   COPYR  = If you do not have a valid VASP license, you may not use, copy or distribute this file. 
   VRHFIN =Pt: s1d9                                                                                 
   LEXCH  = PE                                                                                      
   EATOM  =   729.1176 eV,   53.5886 Ry                                                             
                                                                                                    
   TITEL  = PAW_PBE Pt 04Feb2005                                                                    
   LULTRA =        F    use ultrasoft PP ?                                                          
   IUNSCR =        1    unscreen: 0-lin 1-nonlin 2-no                                               
   RPACOR =    2.330    partial core radius                                                         
   POMASS =  195.080; ZVAL   =   10.000    mass and valenz                                          
   RCORE  =    2.600    outmost cutoff radius                                                       
   RWIGS  =    2.750; RWIGS  =    1.455    wigner-seitz radius (au A)                               
   ENMAX  =  230.283; ENMIN  =  172.712 eV                                                          
   ICORE  =        3    local potential                                                             
   LCOR   =        T    correct aug charges                                                         
   LPAW   =        T    paw PP                                                                      
   EAUG   =  358.966                                                                                
   DEXC   =    0.000                                                                                
   RMAX   =    2.658    core radius for proj-oper                                                   
   RAUG   =    1.300    factor for augmentation sphere                                              
   RDEP   =    2.761    radius for radial grids                                                     
   RDEPT  =    2.203    core radius for aug-charge                                                  
                                                                                                    
   Atomic configuration                                                                             
   16 entries                                                                                       
     n  l   j            E        occ.                                                              
     1  0  0.50    -78401.1885   2.0000                                                             
     2  0  0.50    -13770.7750   2.0000                                                             
     2  1  1.50    -11931.0468   6.0000                                                             
     3  0  0.50     -3234.7234   2.0000                                                             
     3  1  1.50     -2699.2216   6.0000                                                             
     3  2  2.50     -2119.5714  10.0000                                                             
     4  0  0.50      -695.1528   2.0000                                                             
     4  1  1.50      -519.6034   6.0000                                                             
     4  2  2.50      -306.6786  10.0000                                                             
     4  3  3.50       -70.1041  14.0000                                                             
     5  0  0.50      -101.7747   2.0000                                                             
     5  1  1.50       -55.9873   6.0000                                                             
     5  2  2.50        -6.1423   9.0000                                                             
     6  0  0.50        -5.6573   1.0000                                                             
     6  1  1.50        -6.8029   0.0000                                                             
     5  3  2.50        -1.3606   0.0000                                                             
   Description                                                                                      
     l       E           TYP  RCUT    TYP  RCUT                                                     
     2     -6.1423404     23  2.500                                                                 
     2     -7.5029230     23  2.500                                                                 
     0     -5.6573207     23  2.500                                                                 
     0      0.7416693     23  2.500                                                                 
     1     -2.7211652     23  2.600                                                                 
     1     20.4087390     23  2.600                                                                 
     3     -1.3605826     23  2.500                                                                 
  local pseudopotential read in
  partial core-charges read in
  partial kinetic energy density read in
  atomic valenz-charges read in
  non local Contribution for L=           2  read in
    real space projection operators read in
  non local Contribution for L=           2  read in
    real space projection operators read in
  non local Contribution for L=           0  read in
    real space projection operators read in
  non local Contribution for L=           0  read in
    real space projection operators read in
  non local Contribution for L=           1  read in
    real space projection operators read in
  non local Contribution for L=           1  read in
    real space projection operators read in
    PAW grid and wavefunctions read in
 
   number of l-projection  operators is LMAX  =           6
   number of lm-projection operators is LMMAX =          18
 
  PAW_PBE Fe_pv 02Aug2007               :
 energy of atom  1       EATOM=-2457.4239
 kinetic energy error for atom=    0.0062 (will be added to EATOM!!)
  PAW_PBE Pt 04Feb2005                  :
 energy of atom  2       EATOM= -729.1176
 kinetic energy error for atom=    0.0032 (will be added to EATOM!!)
 
 
 POSCAR: Fe9 Pt3
  positions in direct lattice
  velocities in cartesian coordinates


 exchange-correlation table for PE
   RHO(1)=    0.500       N(1)  =     2000
   RHO(2)=  100.500       N(2)  =     4000
 


--------------------------------------------------------------------------------------------------------


 ion  position               nearest neighbor table
   1  0.000  0.500  0.167-  11 2.58  11 2.58  10 2.58  10 2.58   7 2.61   7 2.61   7 2.61   7 2.61
                             4 2.66   4 2.66   5 2.66   5 2.66
   2  0.000  0.500  0.500-   5 2.56   5 2.56   8 2.61   8 2.61   8 2.61   8 2.61   6 2.62   6 2.62
                            12 2.62  12 2.62  11 2.65  11 2.65
   3  0.000  0.500  0.834-   4 2.56   4 2.56   9 2.61   9 2.61   9 2.61   9 2.61  12 2.62  12 2.62
                             6 2.62   6 2.62  10 2.65  10 2.65
   4  0.500  0.500  0.994-   9 2.56   9 2.56   3 2.56   3 2.56  10 2.61  10 2.61  10 2.61  10 2.61
                             1 2.66   1 2.66   7 2.66   7 2.66
   5  0.500  0.500  0.340-   8 2.56   8 2.56   2 2.56   2 2.56  11 2.61  11 2.61  11 2.61  11 2.61
                             1 2.66   1 2.66   7 2.66   7 2.66
   6  0.500  0.500  0.667-  12 2.61  12 2.61  12 2.61  12 2.61   2 2.62   2 2.62   8 2.62   8 2.62
                             3 2.62   3 2.62   9 2.62   9 2.62
   7  0.500  0.000  0.167-  11 2.58  11 2.58  10 2.58  10 2.58   1 2.61   1 2.61   1 2.61   1 2.61
                             4 2.66   4 2.66   5 2.66   5 2.66
   8  0.500  0.000  0.500-   5 2.56   5 2.56   2 2.61   2 2.61   2 2.61   2 2.61   6 2.62   6 2.62
                            12 2.62  12 2.62  11 2.65  11 2.65
   9  0.500  0.000  0.834-   4 2.56   4 2.56   3 2.61   3 2.61   3 2.61   3 2.61  12 2.62  12 2.62
                             6 2.62   6 2.62  10 2.65  10 2.65
  10  0.000  0.000  0.005-   7 2.58   7 2.58   1 2.58   1 2.58   4 2.61   4 2.61   4 2.61   4 2.61
                             9 2.65   9 2.65   3 2.65   3 2.65
  11  0.000  0.000  0.329-   7 2.58   7 2.58   1 2.58   1 2.58   5 2.61   5 2.61   5 2.61   5 2.61
                             8 2.65   8 2.65   2 2.65   2 2.65
  12  0.000  0.000  0.667-   6 2.61   6 2.61   6 2.61   6 2.61   3 2.62   3 2.62   2 2.62   2 2.62
                             9 2.62   9 2.62   8 2.62   8 2.62
 
  LATTYP: Found a simple tetragonal cell.
 ALAT       =     3.6844144922
 C/A-ratio  =     3.0190373433
  
  Lattice vectors:
  
 A1 = (   3.6844144922,   0.0000000000,   0.0000000000)
 A2 = (   0.0000000000,   3.6844400850,   0.0000000000)
 A3 = (   0.0000000000,   0.0000000000,  11.1233849400)


Analysis of symmetry for initial positions (statically):
=====================================================================
 Subroutine PRICEL returns:
 Original cell was already a primitive cell.
 

 Routine SETGRP: Setting up the symmetry group for a 
 simple tetragonal supercell.


 Subroutine GETGRP returns: Found 16 space group operations
 (whereof  8 operations were pure point group operations)
 out of a pool of 16 trial point group operations.


The static configuration has the point symmetry C_4v.
 The point group associated with its full space group is D_4h.


Analysis of symmetry for dynamics (positions and initial velocities):
=====================================================================
 Subroutine PRICEL returns:
 Original cell was already a primitive cell.
 

 Routine SETGRP: Setting up the symmetry group for a 
 simple tetragonal supercell.


 Subroutine GETGRP returns: Found 16 space group operations
 (whereof  8 operations were pure point group operations)
 out of a pool of 16 trial point group operations.


The dynamic configuration has the point symmetry C_4v.
 The point group associated with its full space group is D_4h.


Analysis of structural, dynamic, and magnetic symmetry:
=====================================================================
 Subroutine PRICEL returns:
 Original cell was already a primitive cell.
 

 Routine SETGRP: Setting up the symmetry group for a 
 simple tetragonal supercell.


 Subroutine GETGRP returns: Found 16 space group operations
 (whereof  8 operations were pure point group operations)
 out of a pool of 16 trial point group operations.


The overall configuration has the point symmetry C_4v.
 The point group associated with its full space group is D_4h.


 Subroutine INISYM returns: Found 16 space group operations
 (whereof  8 operations are pure point group operations),
 and found     1 'primitive' translations


----------------------------------------------------------------------------------------

                                     Primitive cell                                     

  volume of cell :     151.0000

  direct lattice vectors                    reciprocal lattice vectors
     3.684414492  0.000000000  0.000000000     0.271413545  0.000000000  0.000000000
     0.000000000  3.684440085  0.000000000     0.000000000  0.271411660  0.000000000
     0.000000000  0.000000000 11.123384940     0.000000000  0.000000000  0.089900692

  length of vectors
     3.684414492  3.684440085 11.123384940     0.271413545  0.271411660  0.089900692

  position of ions in fractional coordinates (direct lattice)
     0.000000000  0.500000000  0.166660318
     0.000000000  0.500000000  0.499633908
     0.000000000  0.500000000  0.833704826
     0.500000000  0.500000000  0.993665365
     0.500000000  0.500000000  0.339681832
     0.500000000  0.500000000  0.666664342
     0.500000000  0.000000000  0.166660235
     0.500000000  0.000000000  0.499625392
     0.500000000  0.000000000  0.833713407
     0.000000000  0.000000000  0.004528636
     0.000000000  0.000000000  0.328790420
     0.000000000  0.000000000  0.666671319

  ion indices of the primitive-cell ions
   primitive index   ion index
                 1           1
                 2           2
                 3           3
                 4           4
                 5           5
                 6           6
                 7           7
                 8           8
                 9           9
                10          10
                11          11
                12          12

----------------------------------------------------------------------------------------

 
 
 KPOINTS: pymatgen with grid density = 8800 / numb

Automatic generation of k-mesh.
 Grid dimensions read from file:
 generate k-points for:   13   13    4

 Generating k-lattice:

  Cartesian coordinates                     Fractional coordinates (reciprocal lattice)
     0.020877965  0.000000000  0.000000000     0.076923077  0.000000000  0.000000000
     0.000000000  0.020877820  0.000000000     0.000000000  0.076923077  0.000000000
     0.000000000  0.000000000  0.022475173     0.000000000  0.000000000  0.250000000

  Length of vectors
     0.020877965  0.020877820  0.022475173

  Shift w.r.t. Gamma in fractional coordinates (k-lattice)
     0.000000000  0.000000000  0.000000000

 TETIRR: Found   1010 inequivalent tetrahedra from     4056
 
 Subroutine IBZKPT returns following result:
 ===========================================
 
 Found     84 irreducible k-points:
 
 Following reciprocal coordinates:
            Coordinates               Weight
  0.000000  0.000000  0.000000      1.000000
  0.076923  0.000000  0.000000      4.000000
  0.153846  0.000000  0.000000      4.000000
  0.230769  0.000000  0.000000      4.000000
  0.307692  0.000000  0.000000      4.000000
  0.384615  0.000000  0.000000      4.000000
  0.461538  0.000000  0.000000      4.000000
  0.076923  0.076923  0.000000      4.000000
  0.153846  0.076923  0.000000      8.000000
  0.230769  0.076923  0.000000      8.000000
  0.307692  0.076923  0.000000      8.000000
  0.384615  0.076923  0.000000      8.000000
  0.461538  0.076923  0.000000      8.000000
  0.153846  0.153846  0.000000      4.000000
  0.230769  0.153846  0.000000      8.000000
  0.307692  0.153846  0.000000      8.000000
  0.384615  0.153846  0.000000      8.000000
  0.461538  0.153846  0.000000      8.000000
  0.230769  0.230769  0.000000      4.000000
  0.307692  0.230769  0.000000      8.000000
  0.384615  0.230769  0.000000      8.000000
  0.461538  0.230769  0.000000      8.000000
  0.307692  0.307692  0.000000      4.000000
  0.384615  0.307692  0.000000      8.000000
  0.461538  0.307692  0.000000      8.000000
  0.384615  0.384615  0.000000      4.000000
  0.461538  0.384615  0.000000      8.000000
  0.461538  0.461538  0.000000      4.000000
  0.000000  0.000000  0.250000      2.000000
  0.076923  0.000000  0.250000      8.000000
  0.153846  0.000000  0.250000      8.000000
  0.230769  0.000000  0.250000      8.000000
  0.307692  0.000000  0.250000      8.000000
  0.384615  0.000000  0.250000      8.000000
  0.461538  0.000000  0.250000      8.000000
  0.076923  0.076923  0.250000      8.000000
  0.153846  0.076923  0.250000     16.000000
  0.230769  0.076923  0.250000     16.000000
  0.307692  0.076923  0.250000     16.000000
  0.384615  0.076923  0.250000     16.000000
  0.461538  0.076923  0.250000     16.000000
  0.153846  0.153846  0.250000      8.000000
  0.230769  0.153846  0.250000     16.000000
  0.307692  0.153846  0.250000     16.000000
  0.384615  0.153846  0.250000     16.000000
  0.461538  0.153846  0.250000     16.000000
  0.230769  0.230769  0.250000      8.000000
  0.307692  0.230769  0.250000     16.000000
  0.384615  0.230769  0.250000     16.000000
  0.461538  0.230769  0.250000     16.000000
  0.307692  0.307692  0.250000      8.000000
  0.384615  0.307692  0.250000     16.000000
  0.461538  0.307692  0.250000     16.000000
  0.384615  0.384615  0.250000      8.000000
  0.461538  0.384615  0.250000     16.000000
  0.461538  0.461538  0.250000      8.000000
  0.000000  0.000000  0.500000      1.000000
  0.076923  0.000000  0.500000      4.000000
  0.153846  0.000000  0.500000      4.000000
  0.230769  0.000000  0.500000      4.000000
  0.307692  0.000000  0.500000      4.000000
  0.384615  0.000000  0.500000      4.000000
  0.461538  0.000000  0.500000      4.000000
  0.076923  0.076923  0.500000      4.000000
  0.153846  0.076923  0.500000      8.000000
  0.230769  0.076923  0.500000      8.000000
  0.307692  0.076923  0.500000      8.000000
  0.384615  0.076923  0.500000      8.000000
  0.461538  0.076923  0.500000      8.000000
  0.153846  0.153846  0.500000      4.000000
  0.230769  0.153846  0.500000      8.000000
  0.307692  0.153846  0.500000      8.000000
  0.384615  0.153846  0.500000      8.000000
  0.461538  0.153846  0.500000      8.000000
  0.230769  0.230769  0.500000      4.000000
  0.307692  0.230769  0.500000      8.000000
  0.384615  0.230769  0.500000      8.000000
  0.461538  0.230769  0.500000      8.000000
  0.307692  0.307692  0.500000      4.000000
  0.384615  0.307692  0.500000      8.000000
  0.461538  0.307692  0.500000      8.000000
  0.384615  0.384615  0.500000      4.000000
  0.461538  0.384615  0.500000      8.000000
  0.461538  0.461538  0.500000      4.000000
 
 Following cartesian coordinates:
            Coordinates               Weight
  0.000000  0.000000  0.000000      1.000000
  0.020878  0.000000  0.000000      4.000000
  0.041756  0.000000  0.000000      4.000000
  0.062634  0.000000  0.000000      4.000000
  0.083512  0.000000  0.000000      4.000000
  0.104390  0.000000  0.000000      4.000000
  0.125268  0.000000  0.000000      4.000000
  0.020878  0.020878  0.000000      4.000000
  0.041756  0.020878  0.000000      8.000000
  0.062634  0.020878  0.000000      8.000000
  0.083512  0.020878  0.000000      8.000000
  0.104390  0.020878  0.000000      8.000000
  0.125268  0.020878  0.000000      8.000000
  0.041756  0.041756  0.000000      4.000000
  0.062634  0.041756  0.000000      8.000000
  0.083512  0.041756  0.000000      8.000000
  0.104390  0.041756  0.000000      8.000000
  0.125268  0.041756  0.000000      8.000000
  0.062634  0.062633  0.000000      4.000000
  0.083512  0.062633  0.000000      8.000000
  0.104390  0.062633  0.000000      8.000000
  0.125268  0.062633  0.000000      8.000000
  0.083512  0.083511  0.000000      4.000000
  0.104390  0.083511  0.000000      8.000000
  0.125268  0.083511  0.000000      8.000000
  0.104390  0.104389  0.000000      4.000000
  0.125268  0.104389  0.000000      8.000000
  0.125268  0.125267  0.000000      4.000000
  0.000000  0.000000  0.022475      2.000000
  0.020878  0.000000  0.022475      8.000000
  0.041756  0.000000  0.022475      8.000000
  0.062634  0.000000  0.022475      8.000000
  0.083512  0.000000  0.022475      8.000000
  0.104390  0.000000  0.022475      8.000000
  0.125268  0.000000  0.022475      8.000000
  0.020878  0.020878  0.022475      8.000000
  0.041756  0.020878  0.022475     16.000000
  0.062634  0.020878  0.022475     16.000000
  0.083512  0.020878  0.022475     16.000000
  0.104390  0.020878  0.022475     16.000000
  0.125268  0.020878  0.022475     16.000000
  0.041756  0.041756  0.022475      8.000000
  0.062634  0.041756  0.022475     16.000000
  0.083512  0.041756  0.022475     16.000000
  0.104390  0.041756  0.022475     16.000000
  0.125268  0.041756  0.022475     16.000000
  0.062634  0.062633  0.022475      8.000000
  0.083512  0.062633  0.022475     16.000000
  0.104390  0.062633  0.022475     16.000000
  0.125268  0.062633  0.022475     16.000000
  0.083512  0.083511  0.022475      8.000000
  0.104390  0.083511  0.022475     16.000000
  0.125268  0.083511  0.022475     16.000000
  0.104390  0.104389  0.022475      8.000000
  0.125268  0.104389  0.022475     16.000000
  0.125268  0.125267  0.022475      8.000000
  0.000000  0.000000  0.044950      1.000000
  0.020878  0.000000  0.044950      4.000000
  0.041756  0.000000  0.044950      4.000000
  0.062634  0.000000  0.044950      4.000000
  0.083512  0.000000  0.044950      4.000000
  0.104390  0.000000  0.044950      4.000000
  0.125268  0.000000  0.044950      4.000000
  0.020878  0.020878  0.044950      4.000000
  0.041756  0.020878  0.044950      8.000000
  0.062634  0.020878  0.044950      8.000000
  0.083512  0.020878  0.044950      8.000000
  0.104390  0.020878  0.044950      8.000000
  0.125268  0.020878  0.044950      8.000000
  0.041756  0.041756  0.044950      4.000000
  0.062634  0.041756  0.044950      8.000000
  0.083512  0.041756  0.044950      8.000000
  0.104390  0.041756  0.044950      8.000000
  0.125268  0.041756  0.044950      8.000000
  0.062634  0.062633  0.044950      4.000000
  0.083512  0.062633  0.044950      8.000000
  0.104390  0.062633  0.044950      8.000000
  0.125268  0.062633  0.044950      8.000000
  0.083512  0.083511  0.044950      4.000000
  0.104390  0.083511  0.044950      8.000000
  0.125268  0.083511  0.044950      8.000000
  0.104390  0.104389  0.044950      4.000000
  0.125268  0.104389  0.044950      8.000000
  0.125268  0.125267  0.044950      4.000000
 


--------------------------------------------------------------------------------------------------------




 Dimension of arrays:
   k-points           NKPTS =     84   k-points in BZ     NKDIM =     84   number of bands    NBANDS=    128
   number of dos      NEDOS =    301   number of ions     NIONS =     12
   non local maximal  LDIM  =      6   non local SUM 2l+1 LMDIM =     18
   total plane-waves  NPLWV =  65856
   max r-space proj   IRMAX =      1   max aug-charges    IRDMAX=  26612
   dimension x,y,z NGX =    28 NGY =   28 NGZ =   84
   dimension x,y,z NGXF=    56 NGYF=   56 NGZF=  168
   support grid    NGXF=    56 NGYF=   56 NGZF=  168
   ions per type =               9   3
   NGX,Y,Z   is equivalent  to a cutoff of  12.63, 12.63, 12.55 a.u.
   NGXF,Y,Z  is equivalent  to a cutoff of  25.27, 25.27, 25.11 a.u.

 SYSTEM =  unknown system                          
 POSCAR =  Fe9 Pt3                                 

 Startparameter for this run:
   NWRITE =      2    write-flag & timer
   PREC   = accura    normal or accurate (medium, high low for compatibility)
   ISTART =      0    job   : 0-new  1-cont  2-samecut
   ICHARG =      2    charge: 1-file 2-atom 10-const
   ISPIN  =      2    spin polarized calculation?
   LNONCOLLINEAR =      F non collinear calculations
   LSORBIT =      F    spin-orbit coupling
   INIWAV =      1    electr: 0-lowe 1-rand  2-diag
   LASPH  =      F    aspherical Exc in radial PAW
 Electronic Relaxation 1
   ENCUT  =  520.0 eV  38.22 Ry    6.18 a.u.   6.85  6.85 20.68*2*pi/ulx,y,z
   ENINI  =  520.0     initial cutoff
   ENAUG  =  578.3 eV  augmentation charge cutoff
   NELM   =    200;   NELMIN=  2; NELMDL=  0     # of ELM steps 
   EDIFF  = 0.1E-05   stopping-criterion for ELM
   LREAL  =      F    real-space projection
   NLSPLINE    = F    spline interpolate recip. space projectors
   LCOMPAT=      F    compatible to vasp.4.4
   GGA_COMPAT  = T    GGA compatible to vasp.4.4-vasp.4.6
   LMAXPAW     = -100 max onsite density
   LMAXMIX     =    2 max onsite mixed and CHGCAR
   VOSKOWN=      0    Vosko Wilk Nusair interpolation
   ROPT   =    0.00000   0.00000
 Ionic relaxation
   EDIFFG = -.1E-01   stopping-criterion for IOM
   NSW    =      0    number of steps for IOM
   NBLOCK =      1;   KBLOCK =      1    inner block; outer block 
   IBRION =     -1    ionic relax: 0-MD 1-quasi-New 2-CG
   NFREE  =      0    steps in history (QN), initial steepest desc. (CG)
   ISIF   =      4    stress and relaxation
   IWAVPR =     10    prediction:  0-non 1-charg 2-wave 3-comb
   ISYM   =      2    0-nonsym 1-usesym 2-fastsym
   LCORR  =      T    Harris-Foulkes like correction to forces

   POTIM  = 0.5000    time-step for ionic-motion
   TEIN   =    0.0    initial temperature
   TEBEG  =    0.0;   TEEND  =   0.0 temperature during run
   SMASS  =  -3.00    Nose mass-parameter (am)
   estimated Nose-frequenzy (Omega)   =  0.10E-29 period in steps = 0.13E+47 mass=  -0.310E-27a.u.
   SCALEE = 1.0000    scale energy and forces
   NPACO  =    256;   APACO  = 10.0  distance and # of slots for P.C.
   PSTRESS=    0.0 pullay stress

  Mass of Ions in am
   POMASS =  55.85195.08
  Ionic Valenz
   ZVAL   =  14.00 10.00
  Atomic Wigner-Seitz radii
   RWIGS  =  -1.00 -1.00
  virtual crystal weights 
   VCA    =   1.00  1.00
   NELECT =     156.0000    total number of electrons
   NUPDOWN=      -1.0000    fix difference up-down

 DOS related values:
   EMIN   =  10.00;   EMAX   =-10.00  energy-range for DOS
   EFERMI =   0.00;   METHOD = LEGACY      
   ISMEAR =    -5;   SIGMA  =   0.20  broadening in eV -4-tet -1-fermi 0-gaus

 Electronic relaxation 2 (details)
   IALGO  =     38    algorithm
   LDIAG  =      T    sub-space diagonalisation (order eigenvalues)
   LSUBROT=      F    optimize rotation matrix (better conditioning)
   TURBO    =      0    0=normal 1=particle mesh
   IRESTART =      0    0=no restart 2=restart with 2 vectors
   NREBOOT  =      0    no. of reboots
   NMIN     =      0    reboot dimension
   EREF     =   0.00    reference energy to select bands
   IMIX   =      4    mixing-type and parameters
     AMIX     =   0.40;   BMIX     =  1.00
     AMIX_MAG =   1.60;   BMIX_MAG =  1.00
     AMIN     =   0.10
     WC   =   100.;   INIMIX=   1;  MIXPRE=   1;  MAXMIX= -45

 Intra band minimization:
   WEIMIN = 0.0000     energy-eigenvalue tresh-hold
   EBREAK =  0.20E-08  absolut break condition
   DEPER  =   0.30     relativ break condition  

   TIME   =   0.40     timestep for ELM

  volume/ion in A,a.u.               =      12.58        84.92
  Fermi-wavevector in a.u.,A,eV,Ry     =   1.654972  3.127444 37.265448  2.738933
  Thomas-Fermi vector in A             =   2.743148
 
 Write flags
   LWAVE        =      F    write WAVECAR
   LDOWNSAMPLE  =      F    k-point downsampling of WAVECAR
   LCHARG       =      T    write CHGCAR
   LVTOT        =      F    write LOCPOT, total local potential
   LVHAR        =      F    write LOCPOT, Hartree potential only
   WRT_POTENTIAL= false  ! write potential to hdf5 file
   LELF         =      F    write electronic localiz. function (ELF)
   LORBIT       =     11    0 simple, 1 ext, 2 COOP (PROOUT), +10 PAW based schemes


 Dipole corrections
   LMONO      =      F    monopole corrections only (constant potential shift)
   LDIPOL     =      F    correct potential (dipole corrections)
   IDIPOL     =      0    1-x, 2-y, 3-z, 4-all directions 
   EPSILON    =  1.0000000 bulk dielectric constant
   LVACPOTAV  =      F  vacuum potentials using an averaging scheme for the charge density
   VACPOTFLAT =  0.1000000 required flatness to determine vacuum potential
 Exchange correlation treatment:
   GGA     = PE    functional components
   XC_C    = 1    coefficients multiplying the functional components
   LIBXC   =     F    Libxc                    
   VOSKOWN =     0    Vosko Wilk Nusair interpolation
   LHFCALC =     F    Hartree Fock is set to
   LHFONE  =     F    Hartree Fock one center treatment
   AEXX    =    0.0000 exact exchange contribution

 Parameters of functionals:
   PE:
     No parameter
 
 Van der Waals corrections
   IVDW    =     0    specifies the selected vdW correction

 Linear response parameters
   LEPSILON=     F    determine dielectric tensor
   LRPA    =     F    only Hartree local field effects (RPA)
   LNABLA  =     F    use nabla operator in PAW spheres
   LVEL    =     F    velocity operator in full k-point grid
   CSHIFT  =0.1000    complex shift for real part using Kramers Kronig
   OMEGAMAX=  -1.0    maximum frequency
   DEG_THRESHOLD= 0.2000000E-02 threshold for treating states as degnerate
   RTIME   =   -0.100 relaxation time in fs
  (WPLASMAI=    0.000 imaginary part of plasma frequency in eV, 0.658/RTIME)
   DFIELD  = 0.0000000 0.0000000 0.0000000 field for delta impulse in time
 
  Optional k-point grid parameters
   LKPOINTS_OPT  =     F    use optional k-point grid
   KPOINTS_OPT_MODE=     1    mode for optional k-point grid
 
 Orbital magnetization related:
   ORBITALMAG=     F  switch on orbital magnetization
   LCHIMAG   =     F  perturbation theory with respect to B field
   DQ        =  0.001000  dq finite difference perturbation B field
   LLRAUG    =     F  two centre corrections for induced B field
   LBONE     =     F  B-component reconstruction in AE one-centre
   LVGVCALC  =     T  calculate vGv susceptibility
   LVGVAPPL  =     F  apply vGv susceptibility instead of pGv for G=0

 Random number generation:
   RANDOM_GENERATOR = DEFAULT
   PCG_SEED         = not used


--------------------------------------------------------------------------------------------------------


 Static calculation
 charge density and potential will be updated during run
 spin polarized calculation
 Variant of blocked Davidson
 Davidson routine will perform the subspace rotation
 perform sub-space diagonalisation
    after iterative eigenvector-optimisation
 modified Broyden-mixing scheme, WC =      100.0
 initial mixing is a Kerker type mixing with AMIX =  0.4000 and BMIX =      1.0000
 Hartree-type preconditioning will be used
 using additional bands           50
 reciprocal scheme for non local part
 use partial core corrections
 calculate Harris-corrections to forces 
   (improved forces if not selfconsistent)
 use gradient corrections 
 use of overlap-Matrix (Vanderbilt PP)
 Fermi weights with tetrahedron method with Bloechl corrections


--------------------------------------------------------------------------------------------------------


  energy-cutoff  :      520.00
  volume of cell :      151.00
      direct lattice vectors                 reciprocal lattice vectors
     3.684414492  0.000000000  0.000000000     0.271413545  0.000000000  0.000000000
     0.000000000  3.684440085  0.000000000     0.000000000  0.271411660  0.000000000
     0.000000000  0.000000000 11.123384940     0.000000000  0.000000000  0.089900692

  length of vectors
     3.684414492  3.684440085 11.123384940     0.271413545  0.271411660  0.089900692


 
 k-points in units of 2pi/SCALE and weight: pymatgen with grid density = 8800 / numb
   0.00000000  0.00000000  0.00000000       0.001
   0.02087797  0.00000000  0.00000000       0.006
   0.04175593  0.00000000  0.00000000       0.006
   0.06263390  0.00000000  0.00000000       0.006
   0.08351186  0.00000000  0.00000000       0.006
   0.10438983  0.00000000  0.00000000       0.006
   0.12526779  0.00000000  0.00000000       0.006
   0.02087797  0.02087782  0.00000000       0.006
   0.04175593  0.02087782  0.00000000       0.012
   0.06263390  0.02087782  0.00000000       0.012
   0.08351186  0.02087782  0.00000000       0.012
   0.10438983  0.02087782  0.00000000       0.012
   0.12526779  0.02087782  0.00000000       0.012
   0.04175593  0.04175564  0.00000000       0.006
   0.06263390  0.04175564  0.00000000       0.012
   0.08351186  0.04175564  0.00000000       0.012
   0.10438983  0.04175564  0.00000000       0.012
   0.12526779  0.04175564  0.00000000       0.012
   0.06263390  0.06263346  0.00000000       0.006
   0.08351186  0.06263346  0.00000000       0.012
   0.10438983  0.06263346  0.00000000       0.012
   0.12526779  0.06263346  0.00000000       0.012
   0.08351186  0.08351128  0.00000000       0.006
   0.10438983  0.08351128  0.00000000       0.012
   0.12526779  0.08351128  0.00000000       0.012
   0.10438983  0.10438910  0.00000000       0.006
   0.12526779  0.10438910  0.00000000       0.012
   0.12526779  0.12526692  0.00000000       0.006
   0.00000000  0.00000000  0.02247517       0.003
   0.02087797  0.00000000  0.02247517       0.012
   0.04175593  0.00000000  0.02247517       0.012
   0.06263390  0.00000000  0.02247517       0.012
   0.08351186  0.00000000  0.02247517       0.012
   0.10438983  0.00000000  0.02247517       0.012
   0.12526779  0.00000000  0.02247517       0.012
   0.02087797  0.02087782  0.02247517       0.012
   0.04175593  0.02087782  0.02247517       0.024
   0.06263390  0.02087782  0.02247517       0.024
   0.08351186  0.02087782  0.02247517       0.024
   0.10438983  0.02087782  0.02247517       0.024
   0.12526779  0.02087782  0.02247517       0.024
   0.04175593  0.04175564  0.02247517       0.012
   0.06263390  0.04175564  0.02247517       0.024
   0.08351186  0.04175564  0.02247517       0.024
   0.10438983  0.04175564  0.02247517       0.024
   0.12526779  0.04175564  0.02247517       0.024
   0.06263390  0.06263346  0.02247517       0.012
   0.08351186  0.06263346  0.02247517       0.024
   0.10438983  0.06263346  0.02247517       0.024
   0.12526779  0.06263346  0.02247517       0.024
   0.08351186  0.08351128  0.02247517       0.012
   0.10438983  0.08351128  0.02247517       0.024
   0.12526779  0.08351128  0.02247517       0.024
   0.10438983  0.10438910  0.02247517       0.012
   0.12526779  0.10438910  0.02247517       0.024
   0.12526779  0.12526692  0.02247517       0.012
   0.00000000  0.00000000  0.04495035       0.001
   0.02087797  0.00000000  0.04495035       0.006
   0.04175593  0.00000000  0.04495035       0.006
   0.06263390  0.00000000  0.04495035       0.006
   0.08351186  0.00000000  0.04495035       0.006
   0.10438983  0.00000000  0.04495035       0.006
   0.12526779  0.00000000  0.04495035       0.006
   0.02087797  0.02087782  0.04495035       0.006
   0.04175593  0.02087782  0.04495035       0.012
   0.06263390  0.02087782  0.04495035       0.012
   0.08351186  0.02087782  0.04495035       0.012
   0.10438983  0.02087782  0.04495035       0.012
   0.12526779  0.02087782  0.04495035       0.012
   0.04175593  0.04175564  0.04495035       0.006
   0.06263390  0.04175564  0.04495035       0.012
   0.08351186  0.04175564  0.04495035       0.012
   0.10438983  0.04175564  0.04495035       0.012
   0.12526779  0.04175564  0.04495035       0.012
   0.06263390  0.06263346  0.04495035       0.006
   0.08351186  0.06263346  0.04495035       0.012
   0.10438983  0.06263346  0.04495035       0.012
   0.12526779  0.06263346  0.04495035       0.012
   0.08351186  0.08351128  0.04495035       0.006
   0.10438983  0.08351128  0.04495035       0.012
   0.12526779  0.08351128  0.04495035       0.012
   0.10438983  0.10438910  0.04495035       0.006
   0.12526779  0.10438910  0.04495035       0.012
   0.12526779  0.12526692  0.04495035       0.006
 
 k-points in reciprocal lattice and weights: pymatgen with grid density = 8800 / numb
   0.00000000  0.00000000  0.00000000       0.001
   0.07692308  0.00000000  0.00000000       0.006
   0.15384615  0.00000000  0.00000000       0.006
   0.23076923  0.00000000  0.00000000       0.006
   0.30769231  0.00000000  0.00000000       0.006
   0.38461538  0.00000000  0.00000000       0.006
   0.46153846  0.00000000  0.00000000       0.006
   0.07692308  0.07692308  0.00000000       0.006
   0.15384615  0.07692308  0.00000000       0.012
   0.23076923  0.07692308  0.00000000       0.012
   0.30769231  0.07692308  0.00000000       0.012
   0.38461538  0.07692308  0.00000000       0.012
   0.46153846  0.07692308  0.00000000       0.012
   0.15384615  0.15384615  0.00000000       0.006
   0.23076923  0.15384615  0.00000000       0.012
   0.30769231  0.15384615  0.00000000       0.012
   0.38461538  0.15384615  0.00000000       0.012
   0.46153846  0.15384615  0.00000000       0.012
   0.23076923  0.23076923  0.00000000       0.006
   0.30769231  0.23076923  0.00000000       0.012
   0.38461538  0.23076923  0.00000000       0.012
   0.46153846  0.23076923  0.00000000       0.012
   0.30769231  0.30769231  0.00000000       0.006
   0.38461538  0.30769231  0.00000000       0.012
   0.46153846  0.30769231  0.00000000       0.012
   0.38461538  0.38461538  0.00000000       0.006
   0.46153846  0.38461538  0.00000000       0.012
   0.46153846  0.46153846  0.00000000       0.006
   0.00000000  0.00000000  0.25000000       0.003
   0.07692308  0.00000000  0.25000000       0.012
   0.15384615  0.00000000  0.25000000       0.012
   0.23076923  0.00000000  0.25000000       0.012
   0.30769231  0.00000000  0.25000000       0.012
   0.38461538  0.00000000  0.25000000       0.012
   0.46153846  0.00000000  0.25000000       0.012
   0.07692308  0.07692308  0.25000000       0.012
   0.15384615  0.07692308  0.25000000       0.024
   0.23076923  0.07692308  0.25000000       0.024
   0.30769231  0.07692308  0.25000000       0.024
   0.38461538  0.07692308  0.25000000       0.024
   0.46153846  0.07692308  0.25000000       0.024
   0.15384615  0.15384615  0.25000000       0.012
   0.23076923  0.15384615  0.25000000       0.024
   0.30769231  0.15384615  0.25000000       0.024
   0.38461538  0.15384615  0.25000000       0.024
   0.46153846  0.15384615  0.25000000       0.024
   0.23076923  0.23076923  0.25000000       0.012
   0.30769231  0.23076923  0.25000000       0.024
   0.38461538  0.23076923  0.25000000       0.024
   0.46153846  0.23076923  0.25000000       0.024
   0.30769231  0.30769231  0.25000000       0.012
   0.38461538  0.30769231  0.25000000       0.024
   0.46153846  0.30769231  0.25000000       0.024
   0.38461538  0.38461538  0.25000000       0.012
   0.46153846  0.38461538  0.25000000       0.024
   0.46153846  0.46153846  0.25000000       0.012
   0.00000000  0.00000000  0.50000000       0.001
   0.07692308  0.00000000  0.50000000       0.006
   0.15384615  0.00000000  0.50000000       0.006
   0.23076923  0.00000000  0.50000000       0.006
   0.30769231  0.00000000  0.50000000       0.006
   0.38461538  0.00000000  0.50000000       0.006
   0.46153846  0.00000000  0.50000000       0.006
   0.07692308  0.07692308  0.50000000       0.006
   0.15384615  0.07692308  0.50000000       0.012
   0.23076923  0.07692308  0.50000000       0.012
   0.30769231  0.07692308  0.50000000       0.012
   0.38461538  0.07692308  0.50000000       0.012
   0.46153846  0.07692308  0.50000000       0.012
   0.15384615  0.15384615  0.50000000       0.006
   0.23076923  0.15384615  0.50000000       0.012
   0.30769231  0.15384615  0.50000000       0.012
   0.38461538  0.15384615  0.50000000       0.012
   0.46153846  0.15384615  0.50000000       0.012
   0.23076923  0.23076923  0.50000000       0.006
   0.30769231  0.23076923  0.50000000       0.012
   0.38461538  0.23076923  0.50000000       0.012
   0.46153846  0.23076923  0.50000000       0.012
   0.30769231  0.30769231  0.50000000       0.006
   0.38461538  0.30769231  0.50000000       0.012
   0.46153846  0.30769231  0.50000000       0.012
   0.38461538  0.38461538  0.50000000       0.006
   0.46153846  0.38461538  0.50000000       0.012
   0.46153846  0.46153846  0.50000000       0.006
 
 position of ions in fractional coordinates (direct lattice) 
   0.00000000  0.50000000  0.16666032
   0.00000000  0.50000000  0.49963391
   0.00000000  0.50000000  0.83370483
   0.50000000  0.50000000  0.99366537
   0.50000000  0.50000000  0.33968183
   0.50000000  0.50000000  0.66666434
   0.50000000  0.00000000  0.16666024
   0.50000000  0.00000000  0.49962539
   0.50000000  0.00000000  0.83371341
   0.00000000  0.00000000  0.00452864
   0.00000000  0.00000000  0.32879042
   0.00000000  0.00000000  0.66667132
 
 position of ions in cartesian coordinates  (Angst):
   0.00000000  1.84222004  1.85382687
   0.00000000  1.84222004  5.55762029
   0.00000000  1.84222004  9.27361970
   1.84220725  1.84222004 11.05292236
   1.84220725  1.84222004  3.77841178
   1.84220725  1.84222004  7.41556410
   1.84220725  0.00000000  1.85382595
   1.84220725  0.00000000  5.55752556
   1.84220725  0.00000000  9.27371516
   0.00000000  0.00000000  0.05037376
   0.00000000  0.00000000  3.65726240
   0.00000000  0.00000000  7.41564171
 


--------------------------------------------------------------------------------------------------------


 k-point     1 :   0.0000 0.0000 0.0000  plane waves:    4049
 k-point     2 :   0.0769 0.0000 0.0000  plane waves:    4053
 k-point     3 :   0.1538 0.0000 0.0000  plane waves:    4052
 k-point     4 :   0.2308 0.0000 0.0000  plane waves:    4054
 k-point     5 :   0.3077 0.0000 0.0000  plane waves:    4064
 k-point     6 :   0.3846 0.0000 0.0000  plane waves:    4068
 k-point     7 :   0.4615 0.0000 0.0000  plane waves:    4078
 k-point     8 :   0.0769 0.0769 0.0000  plane waves:    4061
 k-point     9 :   0.1538 0.0769 0.0000  plane waves:    4051
 k-point    10 :   0.2308 0.0769 0.0000  plane waves:    4048
 k-point    11 :   0.3077 0.0769 0.0000  plane waves:    4066
 k-point    12 :   0.3846 0.0769 0.0000  plane waves:    4065
 k-point    13 :   0.4615 0.0769 0.0000  plane waves:    4070
 k-point    14 :   0.1538 0.1538 0.0000  plane waves:    4061
 k-point    15 :   0.2308 0.1538 0.0000  plane waves:    4059
 k-point    16 :   0.3077 0.1538 0.0000  plane waves:    4064
 k-point    17 :   0.3846 0.1538 0.0000  plane waves:    4065
 k-point    18 :   0.4615 0.1538 0.0000  plane waves:    4060
 k-point    19 :   0.2308 0.2308 0.0000  plane waves:    4066
 k-point    20 :   0.3077 0.2308 0.0000  plane waves:    4074
 k-point    21 :   0.3846 0.2308 0.0000  plane waves:    4071
 k-point    22 :   0.4615 0.2308 0.0000  plane waves:    4081
 k-point    23 :   0.3077 0.3077 0.0000  plane waves:    4080
 k-point    24 :   0.3846 0.3077 0.0000  plane waves:    4080
 k-point    25 :   0.4615 0.3077 0.0000  plane waves:    4067
 k-point    26 :   0.3846 0.3846 0.0000  plane waves:    4094
 k-point    27 :   0.4615 0.3846 0.0000  plane waves:    4087
 k-point    28 :   0.4615 0.4615 0.0000  plane waves:    4098
 k-point    29 :   0.0000 0.0000 0.2500  plane waves:    4069
 k-point    30 :   0.0769 0.0000 0.2500  plane waves:    4068
 k-point    31 :   0.1538 0.0000 0.2500  plane waves:    4057
 k-point    32 :   0.2308 0.0000 0.2500  plane waves:    4056
 k-point    33 :   0.3077 0.0000 0.2500  plane waves:    4053
 k-point    34 :   0.3846 0.0000 0.2500  plane waves:    4064
 k-point    35 :   0.4615 0.0000 0.2500  plane waves:    4065
 k-point    36 :   0.0769 0.0769 0.2500  plane waves:    4056
 k-point    37 :   0.1538 0.0769 0.2500  plane waves:    4055
 k-point    38 :   0.2308 0.0769 0.2500  plane waves:    4050
 k-point    39 :   0.3077 0.0769 0.2500  plane waves:    4064
 k-point    40 :   0.3846 0.0769 0.2500  plane waves:    4067
 k-point    41 :   0.4615 0.0769 0.2500  plane waves:    4064
 k-point    42 :   0.1538 0.1538 0.2500  plane waves:    4043
 k-point    43 :   0.2308 0.1538 0.2500  plane waves:    4059
 k-point    44 :   0.3077 0.1538 0.2500  plane waves:    4057
 k-point    45 :   0.3846 0.1538 0.2500  plane waves:    4066
 k-point    46 :   0.4615 0.1538 0.2500  plane waves:    4062
 k-point    47 :   0.2308 0.2308 0.2500  plane waves:    4070
 k-point    48 :   0.3077 0.2308 0.2500  plane waves:    4074
 k-point    49 :   0.3846 0.2308 0.2500  plane waves:    4072
 k-point    50 :   0.4615 0.2308 0.2500  plane waves:    4076
 k-point    51 :   0.3077 0.3077 0.2500  plane waves:    4071
 k-point    52 :   0.3846 0.3077 0.2500  plane waves:    4079
 k-point    53 :   0.4615 0.3077 0.2500  plane waves:    4083
 k-point    54 :   0.3846 0.3846 0.2500  plane waves:    4079
 k-point    55 :   0.4615 0.3846 0.2500  plane waves:    4080
 k-point    56 :   0.4615 0.4615 0.2500  plane waves:    4076
 k-point    57 :   0.0000 0.0000 0.5000  plane waves:    4098
 k-point    58 :   0.0769 0.0000 0.5000  plane waves:    4072
 k-point    59 :   0.1538 0.0000 0.5000  plane waves:    4048
 k-point    60 :   0.2308 0.0000 0.5000  plane waves:    4058
 k-point    61 :   0.3077 0.0000 0.5000  plane waves:    4058
 k-point    62 :   0.3846 0.0000 0.5000  plane waves:    4052
 k-point    63 :   0.4615 0.0000 0.5000  plane waves:    4060
 k-point    64 :   0.0769 0.0769 0.5000  plane waves:    4054
 k-point    65 :   0.1538 0.0769 0.5000  plane waves:    4054
 k-point    66 :   0.2308 0.0769 0.5000  plane waves:    4058
 k-point    67 :   0.3077 0.0769 0.5000  plane waves:    4056
 k-point    68 :   0.3846 0.0769 0.5000  plane waves:    4052
 k-point    69 :   0.4615 0.0769 0.5000  plane waves:    4050
 k-point    70 :   0.1538 0.1538 0.5000  plane waves:    4048
 k-point    71 :   0.2308 0.1538 0.5000  plane waves:    4058
 k-point    72 :   0.3077 0.1538 0.5000  plane waves:    4066
 k-point    73 :   0.3846 0.1538 0.5000  plane waves:    4062
 k-point    74 :   0.4615 0.1538 0.5000  plane waves:    4064
 k-point    75 :   0.2308 0.2308 0.5000  plane waves:    4062
 k-point    76 :   0.3077 0.2308 0.5000  plane waves:    4064
 k-point    77 :   0.3846 0.2308 0.5000  plane waves:    4080
 k-point    78 :   0.4615 0.2308 0.5000  plane waves:    4068
 k-point    79 :   0.3077 0.3077 0.5000  plane waves:    4058
 k-point    80 :   0.3846 0.3077 0.5000  plane waves:    4070
 k-point    81 :   0.4615 0.3077 0.5000  plane waves:    4080
 k-point    82 :   0.3846 0.3846 0.5000  plane waves:    4080
 k-point    83 :   0.4615 0.3846 0.5000  plane waves:    4086
 k-point    84 :   0.4615 0.4615 0.5000  plane waves:    4086

 maximum and minimum number of plane-waves per node :      4098     4043

 maximum number of plane-waves:      4098
 maximum index in each direction: 
   IXMAX=    6   IYMAX=    6   IZMAX=   20
   IXMIN=   -7   IYMIN=   -7   IZMIN=  -21


 serial   3D FFT for wavefunctions
 parallel 3D FFT for charge:
    minimum data exchange during FFTs selected (reduces bandwidth)


 total amount of memory used by VASP MPI-rank0   185523. kBytes
=======================================================================

   base      :      30000. kBytes
   nonl-proj :     100657. kBytes
   fftplans  :        888. kBytes
   grid      :       6813. kBytes
   one-center:        373. kBytes
   wavefun   :      46792. kBytes
 
     INWAV:  cpu time      0.0000: real time      0.0000
 Broyden mixing: mesh for mixing (old mesh)
   NGX = 13   NGY = 13   NGZ = 41
  (NGX  = 56   NGY  = 56   NGZ  =168)
  gives a total of   6929 points

 initial charge density was supplied:
 charge density of overlapping atoms calculated
 number of electron     156.0000000 magnetization      13.6600000
 keeping initial charge density in first step


--------------------------------------------------------------------------------------------------------


 Maximum index for augmentation-charges         1054 (set IRDMAX)


--------------------------------------------------------------------------------------------------------


 First call to EWALD:  gamma=   0.333
 Maximum number of real-space cells 4x 4x 2
 Maximum number of reciprocal cells 2x 2x 5

    FEWALD:  cpu time      0.0030: real time      0.0031


--------------------------------------- Ionic step        1  -------------------------------------------




--------------------------------------- Iteration      1(   1)  ---------------------------------------


    POTLOK:  cpu time      0.0283: real time      0.0558
    SETDIJ:  cpu time      0.0099: real time      0.0100
     EDDAV:  cpu time      5.8953: real time      5.9407
 BZINTS: Fermi energy:   23.686280;  156.000000 electrons
         Band energy: 0.582918E+03;  BLOECHL correction:   -0.056988
       DOS:  cpu time      0.1290: real time      0.1306
    --------------------------------------------
      LOOP:  cpu time      6.0626: real time      6.1371

 eigenvalue-minimisations  : 43040
 total energy-change (2. order) : 0.1766422E+04  (-0.8448169E+04)
 number of electron     156.0000000 magnetization      13.6600000
 augmentation part      156.0000000 magnetization      13.6600000

 Free energy of the ion-electron system (eV)
  ---------------------------------------------------
  alpha Z        PSCENC =      1127.08695075
  Ewald energy   TEWEN  =    -18284.56792550
  -Hartree energ DENC   =     -5896.89184815
  -exchange      EXHF   =         0.00000000
  -V(xc)+E(xc)   XCENC  =       657.77722455
  PAW double counting   =     20094.79046883   -20818.79398981
  entropy T*S    EENTRO =         0.00000000
  eigenvalues    EBANDS =       582.91798557
  atomic energy  EATOM  =     24304.10294433
  Solvation  Ediel_sol  =         0.00000000
  ---------------------------------------------------
  free energy    TOTEN  =      1766.42181058 eV

  energy without entropy =     1766.42181058  energy(sigma->0) =     1766.42181058


--------------------------------------------------------------------------------------------------------




--------------------------------------- Iteration      1(   2)  ---------------------------------------


     EDDAV:  cpu time      6.0034: real time      6.0600
 BZINTS: Fermi energy:   12.714827;  156.000000 electrons
         Band energy:-0.117785E+04;  BLOECHL correction:   -0.022704
       DOS:  cpu time      0.1288: real time      0.1299
    --------------------------------------------
      LOOP:  cpu time      6.1322: real time      6.1900

 eigenvalue-minimisations  : 43008
 total energy-change (2. order) :-0.1760766E+04  (-0.1670762E+04)
 number of electron     156.0000000 magnetization      13.6600000
 augmentation part      156.0000000 magnetization      13.6600000

 Free energy of the ion-electron system (eV)
  ---------------------------------------------------
  alpha Z        PSCENC =      1127.08695075
  Ewald energy   TEWEN  =    -18284.56792550
  -Hartree energ DENC   =     -5896.89184815
  -exchange      EXHF   =         0.00000000
  -V(xc)+E(xc)   XCENC  =       657.77722455
  PAW double counting   =     20094.79046883   -20818.79398981
  entropy T*S    EENTRO =         0.00000000
  eigenvalues    EBANDS =     -1177.84771949
  atomic energy  EATOM  =     24304.10294433
  Solvation  Ediel_sol  =         0.00000000
  ---------------------------------------------------
  free energy    TOTEN  =         5.65610552 eV

  energy without entropy =        5.65610552  energy(sigma->0) =        5.65610552


--------------------------------------------------------------------------------------------------------




--------------------------------------- Iteration      1(   3)  ---------------------------------------


     EDDAV:  cpu time      6.9053: real time      6.9712
 BZINTS: Fermi energy:   12.137875;  156.000000 electrons
         Band energy:-0.128704E+04;  BLOECHL correction:   -0.032377
       DOS:  cpu time      0.1279: real time      0.1290
    --------------------------------------------
      LOOP:  cpu time      7.0330: real time      7.1001

 eigenvalue-minimisations  : 50400
 total energy-change (2. order) :-0.1091889E+03  (-0.1077851E+03)
 number of electron     156.0000000 magnetization      13.6600000
 augmentation part      156.0000000 magnetization      13.6600000

 Free energy of the ion-electron system (eV)
  ---------------------------------------------------
  alpha Z        PSCENC =      1127.08695075
  Ewald energy   TEWEN  =    -18284.56792550
  -Hartree energ DENC   =     -5896.89184815
  -exchange      EXHF   =         0.00000000
  -V(xc)+E(xc)   XCENC  =       657.77722455
  PAW double counting   =     20094.79046883   -20818.79398981
  entropy T*S    EENTRO =         0.00000000
  eigenvalues    EBANDS =     -1287.03662138
  atomic energy  EATOM  =     24304.10294433
  Solvation  Ediel_sol  =         0.00000000
  ---------------------------------------------------
  free energy    TOTEN  =      -103.53279638 eV

  energy without entropy =     -103.53279638  energy(sigma->0) =     -103.53279638


--------------------------------------------------------------------------------------------------------




--------------------------------------- Iteration      1(   4)  ---------------------------------------


     EDDAV:  cpu time      6.2204: real time      6.2812
 BZINTS: Fermi energy:   12.132884;  156.000000 electrons
         Band energy:-0.128859E+04;  BLOECHL correction:   -0.032352
       DOS:  cpu time      0.1286: real time      0.1297
    --------------------------------------------
      LOOP:  cpu time      6.3491: real time      6.4109

 eigenvalue-minimisations  : 45856
 total energy-change (2. order) :-0.1556659E+01  (-0.1556348E+01)
 number of electron     156.0000000 magnetization      13.6600000
 augmentation part      156.0000000 magnetization      13.6600000

 Free energy of the ion-electron system (eV)
  ---------------------------------------------------
  alpha Z        PSCENC =      1127.08695075
  Ewald energy   TEWEN  =    -18284.56792550
  -Hartree energ DENC   =     -5896.89184815
  -exchange      EXHF   =         0.00000000
  -V(xc)+E(xc)   XCENC  =       657.77722455
  PAW double counting   =     20094.79046883   -20818.79398981
  entropy T*S    EENTRO =         0.00000000
  eigenvalues    EBANDS =     -1288.59328055
  atomic energy  EATOM  =     24304.10294433
  Solvation  Ediel_sol  =         0.00000000
  ---------------------------------------------------
  free energy    TOTEN  =      -105.08945554 eV

  energy without entropy =     -105.08945554  energy(sigma->0) =     -105.08945554


--------------------------------------------------------------------------------------------------------




--------------------------------------- Iteration      1(   5)  ---------------------------------------


     EDDAV:  cpu time      7.4314: real time      7.4947
 BZINTS: Fermi energy:   12.132835;  156.000000 electrons
         Band energy:-0.128862E+04;  BLOECHL correction:   -0.032351
       DOS:  cpu time      0.1308: real time      0.1318
    CHARGE:  cpu time      0.1534: real time      0.1545
    MIXING:  cpu time      0.0084: real time      0.0085
    --------------------------------------------
      LOOP:  cpu time      7.7239: real time      7.7895

 eigenvalue-minimisations  : 52992
 total energy-change (2. order) :-0.2928322E-01  (-0.2928271E-01)
 number of electron     156.0000248 magnetization      12.8634672
 augmentation part       79.2630977 magnetization       9.6154984

 Broyden mixing:
  rms(total) = 0.39983E+01    rms(broyden)= 0.39977E+01
  rms(prec ) = 0.45566E+01
  weight for this iteration     100.00

 Free energy of the ion-electron system (eV)
  ---------------------------------------------------
  alpha Z        PSCENC =      1127.08695075
  Ewald energy   TEWEN  =    -18284.56792550
  -Hartree energ DENC   =     -5896.89184815
  -exchange      EXHF   =         0.00000000
  -V(xc)+E(xc)   XCENC  =       657.77722455
  PAW double counting   =     20094.79046883   -20818.79398981
  entropy T*S    EENTRO =         0.00000000
  eigenvalues    EBANDS =     -1288.62256377
  atomic energy  EATOM  =     24304.10294433
  Solvation  Ediel_sol  =         0.00000000
  ---------------------------------------------------
  free energy    TOTEN  =      -105.11873876 eV

  energy without entropy =     -105.11873876  energy(sigma->0) =     -105.11873876


--------------------------------------------------------------------------------------------------------




--------------------------------------- Iteration      1(   6)  ---------------------------------------


    POTLOK:  cpu time      0.0331: real time      0.0441
    SETDIJ:  cpu time      0.0081: real time      0.0082
     EDDAV:  cpu time      7.5380: real time      7.5920
 BZINTS: Fermi energy:    9.667378;  156.000000 electrons
         Band energy:-0.171957E+04;  BLOECHL correction:   -0.023997
       DOS:  cpu time      0.1391: real time      0.1402
    CHARGE:  cpu time      0.2172: real time      0.2183
    MIXING:  cpu time      0.0051: real time      0.0053
    --------------------------------------------
      LOOP:  cpu time      7.9406: real time      8.0081

 eigenvalue-minimisations  : 53440
 total energy-change (2. order) :-0.1592887E+02  (-0.2668450E+02)
 number of electron     156.0000286 magnetization      12.8610367
 augmentation part       88.0107253 magnetization       9.1306473

 Broyden mixing:
  rms(total) = 0.73329E+01    rms(broyden)= 0.73326E+01
  rms(prec ) = 0.11575E+02
  weight for this iteration     100.00

 eigenvalues of (default mixing * dielectric matrix)
  average eigenvalue GAMMA=   0.2129
  0.2129

 Free energy of the ion-electron system (eV)
  ---------------------------------------------------
  alpha Z        PSCENC =      1127.08695075
  Ewald energy   TEWEN  =    -18284.56792550
  -Hartree energ DENC   =     -5487.06441095
  -exchange      EXHF   =         0.00000000
  -V(xc)+E(xc)   XCENC  =       640.15997270
  PAW double counting   =     20540.06732171   -21241.25982697
  entropy T*S    EENTRO =         0.00000000
  eigenvalues    EBANDS =     -1719.57263808
  atomic energy  EATOM  =     24304.10294433
  Solvation  Ediel_sol  =         0.00000000
  ---------------------------------------------------
  free energy    TOTEN  =      -121.04761201 eV

  energy without entropy =     -121.04761201  energy(sigma->0) =     -121.04761201


--------------------------------------------------------------------------------------------------------




--------------------------------------- Iteration      1(   7)  ---------------------------------------


    POTLOK:  cpu time      0.0320: real time      0.0452
    SETDIJ:  cpu time      0.0081: real time      0.0081
     EDDAV:  cpu time      7.3374: real time      7.3893
 BZINTS: Fermi energy:    9.877630;  156.000000 electrons
         Band energy:-0.164139E+04;  BLOECHL correction:   -0.031977
       DOS:  cpu time      0.1429: real time      0.1439
    CHARGE:  cpu time      0.1490: real time      0.1498
    MIXING:  cpu time      0.0028: real time      0.0029
    --------------------------------------------
      LOOP:  cpu time      7.6721: real time      7.7393

 eigenvalue-minimisations  : 52480
 total energy-change (2. order) : 0.1413463E+02  (-0.2246845E+02)
 number of electron     156.0000284 magnetization      11.9513505
 augmentation part       86.4404409 magnetization      11.0302144

 Broyden mixing:
  rms(total) = 0.58067E+01    rms(broyden)= 0.58062E+01
  rms(prec ) = 0.97306E+01
  weight for this iteration     100.00

 eigenvalues of (default mixing * dielectric matrix)
  average eigenvalue GAMMA=   0.3215
  0.5292  0.1138

 Free energy of the ion-electron system (eV)
  ---------------------------------------------------
  alpha Z        PSCENC =      1127.08695075
  Ewald energy   TEWEN  =    -18284.56792550
  -Hartree energ DENC   =     -5540.13885368
  -exchange      EXHF   =         0.00000000
  -V(xc)+E(xc)   XCENC  =       641.66144115
  PAW double counting   =     20808.07202586   -21521.73958951
  entropy T*S    EENTRO =         0.00000000
  eigenvalues    EBANDS =     -1641.38997237
  atomic energy  EATOM  =     24304.10294433
  Solvation  Ediel_sol  =         0.00000000
  ---------------------------------------------------
  free energy    TOTEN  =      -106.91297897 eV

  energy without entropy =     -106.91297897  energy(sigma->0) =     -106.91297897


--------------------------------------------------------------------------------------------------------




--------------------------------------- Iteration      1(   8)  ---------------------------------------


    POTLOK:  cpu time      0.0433: real time      0.0442
    SETDIJ:  cpu time      0.0081: real time      0.0081
     EDDAV:  cpu time      7.2786: real time      7.3296
 BZINTS: Fermi energy:   10.664220;  156.000000 electrons
         Band energy:-0.151040E+04;  BLOECHL correction:   -0.026391
       DOS:  cpu time      0.1424: real time      0.1439
    CHARGE:  cpu time      0.1474: real time      0.1483
    MIXING:  cpu time      0.0017: real time      0.0017
    --------------------------------------------
      LOOP:  cpu time      7.6214: real time      7.6758

 eigenvalue-minimisations  : 51776
 total energy-change (2. order) : 0.1031602E+02  (-0.1514780E+02)
 number of electron     156.0000267 magnetization      11.4617353
 augmentation part       83.5275430 magnetization       7.8175575

 Broyden mixing:
  rms(total) = 0.31588E+01    rms(broyden)= 0.31581E+01
  rms(prec ) = 0.50370E+01
  weight for this iteration     100.00

 eigenvalues of (default mixing * dielectric matrix)
  average eigenvalue GAMMA=   0.4613
  0.9131  0.3725  0.0983

 Free energy of the ion-electron system (eV)
  ---------------------------------------------------
  alpha Z        PSCENC =      1127.08695075
  Ewald energy   TEWEN  =    -18284.56792550
  -Hartree energ DENC   =     -5637.95429338
  -exchange      EXHF   =         0.00000000
  -V(xc)+E(xc)   XCENC  =       644.24537916
  PAW double counting   =     21377.37179015   -22116.48679963
  entropy T*S    EENTRO =         0.00000000
  eigenvalues    EBANDS =     -1510.39500335
  atomic energy  EATOM  =     24304.10294433
  Solvation  Ediel_sol  =         0.00000000
  ---------------------------------------------------
  free energy    TOTEN  =       -96.59695746 eV

  energy without entropy =      -96.59695746  energy(sigma->0) =      -96.59695746


--------------------------------------------------------------------------------------------------------




--------------------------------------- Iteration      1(   9)  ---------------------------------------


    POTLOK:  cpu time      0.0441: real time      0.0451
    SETDIJ:  cpu time      0.0081: real time      0.0081
     EDDAV:  cpu time      6.9006: real time      6.9497
 BZINTS: Fermi energy:   10.594762;  156.000000 electrons
         Band energy:-0.155076E+04;  BLOECHL correction:   -0.019809
       DOS:  cpu time      0.1419: real time      0.1429
    CHARGE:  cpu time      0.1510: real time      0.1519
    MIXING:  cpu time      0.0017: real time      0.0017
    --------------------------------------------
      LOOP:  cpu time      7.2474: real time      7.2994

 eigenvalue-minimisations  : 49984
 total energy-change (2. order) :-0.8590551E+01  (-0.1597495E+02)
 number of electron     156.0000297 magnetization      11.1179424
 augmentation part       84.2700007 magnetization       8.4537081

 Broyden mixing:
  rms(total) = 0.49762E+01    rms(broyden)= 0.49757E+01
  rms(prec ) = 0.66134E+01
  weight for this iteration     100.00

 eigenvalues of (default mixing * dielectric matrix)
  average eigenvalue GAMMA=   0.4476
  1.1494  0.4120  0.0927  0.1364

 Free energy of the ion-electron system (eV)
  ---------------------------------------------------
  alpha Z        PSCENC =      1127.08695075
  Ewald energy   TEWEN  =    -18284.56792550
  -Hartree energ DENC   =     -5599.76594235
  -exchange      EXHF   =         0.00000000
  -V(xc)+E(xc)   XCENC  =       642.69077425
  PAW double counting   =     21623.93310182   -22367.90937139
  entropy T*S    EENTRO =         0.00000000
  eigenvalues    EBANDS =     -1550.75804045
  atomic energy  EATOM  =     24304.10294433
  Solvation  Ediel_sol  =         0.00000000
  ---------------------------------------------------
  free energy    TOTEN  =      -105.18750854 eV

  energy without entropy =     -105.18750854  energy(sigma->0) =     -105.18750854


--------------------------------------------------------------------------------------------------------




--------------------------------------- Iteration      1(  10)  ---------------------------------------


    POTLOK:  cpu time      0.0311: real time      0.0447
    SETDIJ:  cpu time      0.0084: real time      0.0084
     EDDAV:  cpu time      6.7900: real time      6.8393
 BZINTS: Fermi energy:   10.176754;  156.000000 electrons
         Band energy:-0.156395E+04;  BLOECHL correction:   -0.023201
       DOS:  cpu time      0.1419: real time      0.1430
    CHARGE:  cpu time      0.2429: real time      0.2442
    MIXING:  cpu time      0.0018: real time      0.0019
    --------------------------------------------
      LOOP:  cpu time      7.2162: real time      7.2815

 eigenvalue-minimisations  : 49568
 total energy-change (2. order) : 0.1165263E+02  (-0.3235232E+01)
 number of electron     156.0000287 magnetization      11.1809279
 augmentation part       84.7396240 magnetization       7.9562146

 Broyden mixing:
  rms(total) = 0.22189E+01    rms(broyden)= 0.22183E+01
  rms(prec ) = 0.31224E+01
  weight for this iteration     100.00

 eigenvalues of (default mixing * dielectric matrix)
  average eigenvalue GAMMA=   0.4109
  1.1406  0.3415  0.3415  0.0951  0.1358

 Free energy of the ion-electron system (eV)
  ---------------------------------------------------
  alpha Z        PSCENC =      1127.08695075
  Ewald energy   TEWEN  =    -18284.56792550
  -Hartree energ DENC   =     -5570.78005800
  -exchange      EXHF   =         0.00000000
  -V(xc)+E(xc)   XCENC  =       641.58215505
  PAW double counting   =     21789.62709620   -22536.63507909
  entropy T*S    EENTRO =         0.00000000
  eigenvalues    EBANDS =     -1563.95096602
  atomic energy  EATOM  =     24304.10294433
  Solvation  Ediel_sol  =         0.00000000
  ---------------------------------------------------
  free energy    TOTEN  =       -93.53488226 eV

  energy without entropy =      -93.53488226  energy(sigma->0) =      -93.53488226


--------------------------------------------------------------------------------------------------------




--------------------------------------- Iteration      1(  11)  ---------------------------------------


    POTLOK:  cpu time      0.0447: real time      0.0458
    SETDIJ:  cpu time      0.0080: real time      0.0080
     EDDAV:  cpu time      7.0091: real time      7.0600
 BZINTS: Fermi energy:   10.242270;  156.000000 electrons
         Band energy:-0.156515E+04;  BLOECHL correction:   -0.024792
       DOS:  cpu time      0.1396: real time      0.1407
    CHARGE:  cpu time      0.1524: real time      0.1534
    MIXING:  cpu time      0.0018: real time      0.0019
    --------------------------------------------
      LOOP:  cpu time      7.3557: real time      7.4097

 eigenvalue-minimisations  : 51168
 total energy-change (2. order) : 0.2712080E+00  (-0.2054179E+01)
 number of electron     156.0000284 magnetization      11.1572630
 augmentation part       84.6042133 magnetization       8.8450813

 Broyden mixing:
  rms(total) = 0.20420E+01    rms(broyden)= 0.20415E+01
  rms(prec ) = 0.28010E+01
  weight for this iteration     100.00

 eigenvalues of (default mixing * dielectric matrix)
  average eigenvalue GAMMA=   0.3995
  1.2212  0.4132  0.4132  0.1437  0.0941  0.1114

 Free energy of the ion-electron system (eV)
  ---------------------------------------------------
  alpha Z        PSCENC =      1127.08695075
  Ewald energy   TEWEN  =    -18284.56792550
  -Hartree energ DENC   =     -5568.41061609
  -exchange      EXHF   =         0.00000000
  -V(xc)+E(xc)   XCENC  =       641.71409147
  PAW double counting   =     21821.18460873   -22569.22843523
  entropy T*S    EENTRO =         0.00000000
  eigenvalues    EBANDS =     -1565.14529273
  atomic energy  EATOM  =     24304.10294433
  Solvation  Ediel_sol  =         0.00000000
  ---------------------------------------------------
  free energy    TOTEN  =       -93.26367427 eV

  energy without entropy =      -93.26367427  energy(sigma->0) =      -93.26367427


--------------------------------------------------------------------------------------------------------




--------------------------------------- Iteration      1(  12)  ---------------------------------------


    POTLOK:  cpu time      0.0441: real time      0.0450
    SETDIJ:  cpu time      0.0082: real time      0.0082
     EDDAV:  cpu time      6.9522: real time      7.0018
 BZINTS: Fermi energy:   10.175551;  156.000000 electrons
         Band energy:-0.156314E+04;  BLOECHL correction:   -0.030868
       DOS:  cpu time      0.1409: real time      0.1421
    CHARGE:  cpu time      0.1487: real time      0.1496
    MIXING:  cpu time      0.0018: real time      0.0018
    --------------------------------------------
      LOOP:  cpu time      7.2958: real time      7.3485

 eigenvalue-minimisations  : 50688
 total energy-change (2. order) : 0.7046841E+00  (-0.1206523E+01)
 number of electron     156.0000269 magnetization      11.2944004
 augmentation part       84.6756620 magnetization       8.2380684

 Broyden mixing:
  rms(total) = 0.98221E+00    rms(broyden)= 0.98205E+00
  rms(prec ) = 0.12225E+01
  weight for this iteration     100.00

 eigenvalues of (default mixing * dielectric matrix)
  average eigenvalue GAMMA=   0.4193
  1.1946  0.5383  0.5383  0.3428  0.1344  0.0933  0.0933

 Free energy of the ion-electron system (eV)
  ---------------------------------------------------
  alpha Z        PSCENC =      1127.08695075
  Ewald energy   TEWEN  =    -18284.56792550
  -Hartree energ DENC   =     -5567.22486502
  -exchange      EXHF   =         0.00000000
  -V(xc)+E(xc)   XCENC  =       642.03304266
  PAW double counting   =     21896.31191396   -22647.15723338
  entropy T*S    EENTRO =         0.00000000
  eigenvalues    EBANDS =     -1563.14381794
  atomic energy  EATOM  =     24304.10294433
  Solvation  Ediel_sol  =         0.00000000
  ---------------------------------------------------
  free energy    TOTEN  =       -92.55899014 eV

  energy without entropy =      -92.55899014  energy(sigma->0) =      -92.55899014


--------------------------------------------------------------------------------------------------------




--------------------------------------- Iteration      1(  13)  ---------------------------------------


    POTLOK:  cpu time      0.0441: real time      0.0450
    SETDIJ:  cpu time      0.0079: real time      0.0079
     EDDAV:  cpu time      7.1188: real time      7.1697
 BZINTS: Fermi energy:   10.197377;  156.000000 electrons
         Band energy:-0.156282E+04;  BLOECHL correction:   -0.033359
       DOS:  cpu time      0.1401: real time      0.1414
    CHARGE:  cpu time      0.1508: real time      0.1519
    MIXING:  cpu time      0.0019: real time      0.0020
    --------------------------------------------
      LOOP:  cpu time      7.4636: real time      7.5179

 eigenvalue-minimisations  : 51072
 total energy-change (2. order) :-0.1580496E+00  (-0.4410864E-01)
 number of electron     156.0000261 magnetization      11.5724654
 augmentation part       84.6642650 magnetization       8.5319451

 Broyden mixing:
  rms(total) = 0.92677E+00    rms(broyden)= 0.92674E+00
  rms(prec ) = 0.11427E+01
  weight for this iteration     100.00

 eigenvalues of (default mixing * dielectric matrix)
  average eigenvalue GAMMA=   0.5266
  1.3221  0.8793  0.8793  0.4048  0.4048  0.1328  0.0951  0.0951

 Free energy of the ion-electron system (eV)
  ---------------------------------------------------
  alpha Z        PSCENC =      1127.08695075
  Ewald energy   TEWEN  =    -18284.56792550
  -Hartree energ DENC   =     -5567.34925063
  -exchange      EXHF   =         0.00000000
  -V(xc)+E(xc)   XCENC  =       642.33579868
  PAW double counting   =     21917.22720675   -22668.73620683
  entropy T*S    EENTRO =         0.00000000
  eigenvalues    EBANDS =     -1562.81655729
  atomic energy  EATOM  =     24304.10294433
  Solvation  Ediel_sol  =         0.00000000
  ---------------------------------------------------
  free energy    TOTEN  =       -92.71703972 eV

  energy without entropy =      -92.71703972  energy(sigma->0) =      -92.71703972


--------------------------------------------------------------------------------------------------------




--------------------------------------- Iteration      1(  14)  ---------------------------------------


[...]
    113      25.1466      0.00000
    114      25.4768      0.00000
    115      25.5479      0.00000
    116      25.8564      0.00000
    117      26.0439      0.00000
    118      26.6416      0.00000
    119      26.9774      0.00000
    120      27.9103      0.00000
    121      27.9636      0.00000
    122      27.9720      0.00000
    123      28.4650      0.00000
    124      29.3255      0.00000
    125      29.5388      0.00000
    126      29.8043      0.00000
    127      29.9487      0.00000
    128      30.4854      0.00000


--------------------------------------------------------------------------------------------------------


 soft charge-density along one line, spin component           1
         0         1         2         3         4         5         6         7         8         9
 total charge-density along one line
 
 soft charge-density along one line, spin component           2
         0         1         2         3         4         5         6         7         8         9
 total charge-density along one line
 
 pseudopotential strength for first ion, spin component:           1
-42.867   0.000  -0.000   6.730  -0.000   0.000   0.000   0.001
  0.000 -42.927   0.000  -0.000   6.755  -0.000   0.000   0.000
 -0.000   0.000 -42.830   0.000  -0.000   6.715   0.000   0.000
  6.730  -0.000   0.000   5.876  -0.000   0.000  -0.000  -0.000
 -0.000   6.755  -0.000  -0.000   5.868  -0.000  -0.000  -0.000
  0.000  -0.000   6.715   0.000  -0.000   5.878  -0.000  -0.000
  0.000   0.000   0.000  -0.000  -0.000  -0.000  -0.413   0.000
  0.001   0.000   0.000  -0.000  -0.000  -0.000   0.000  -0.457
 -0.000   0.001  -0.000   0.000  -0.000  -0.000   0.000   0.000
  0.000   0.000   0.001  -0.000  -0.000  -0.000   0.000  -0.000
 -0.000   0.000   0.000   0.000  -0.000   0.000   0.000  -0.000
 -0.000   0.000   0.000   0.000  -0.000  -0.000  -0.953   0.000
  0.001   0.000   0.000  -0.000  -0.000  -0.000   0.000  -0.997
 -0.000   0.001   0.000   0.000  -0.000  -0.000   0.000   0.000
  0.000   0.000   0.001  -0.000  -0.000  -0.000   0.000  -0.000
 -0.000   0.000   0.000   0.000  -0.000   0.000   0.000  -0.000
 -0.000  -0.000  -0.000  -0.000  -0.000  -0.000   0.000  -0.000
 -0.000  -0.000   0.000  -0.000  -0.000   0.000   0.000  -0.000
 pseudopotential strength for first ion, spin component:           2
-44.796   0.000  -0.000   7.543  -0.000   0.000  -0.000   0.001
  0.000 -44.907   0.000  -0.000   7.586  -0.000   0.000   0.000
 -0.000   0.000 -44.690   0.000  -0.000   7.499   0.000   0.000
  7.543  -0.000   0.000   5.645  -0.000   0.000   0.000  -0.000
 -0.000   7.586  -0.000  -0.000   5.636  -0.000  -0.000  -0.000
  0.000  -0.000   7.499   0.000  -0.000   5.655  -0.000  -0.000
 -0.000   0.000   0.000   0.000  -0.000  -0.000  -1.842   0.000
  0.001   0.000   0.000  -0.000  -0.000  -0.000   0.000  -2.013
 -0.000   0.001   0.000   0.000  -0.000  -0.000   0.000   0.000
  0.000   0.000   0.001  -0.000  -0.000  -0.000   0.000  -0.000
 -0.000   0.000  -0.000   0.000  -0.000   0.000   0.000  -0.000
 -0.000   0.000   0.000   0.000  -0.000  -0.000  -2.359   0.000
  0.001   0.000   0.000  -0.000  -0.000  -0.000   0.000  -2.527
 -0.000   0.001   0.000   0.000  -0.000  -0.000   0.000   0.000
  0.000  -0.000   0.001  -0.000   0.000  -0.000   0.000  -0.000
 -0.000   0.000  -0.000   0.000  -0.000   0.000   0.000  -0.000
 -0.000  -0.000   0.000  -0.000  -0.000   0.000   0.000  -0.000
 -0.000  -0.000   0.000  -0.000  -0.000   0.000   0.000  -0.000
 total augmentation occupancy for first ion, spin component:           1
  1.991  -0.000   0.000  -0.027   0.000   0.000  -0.000   0.000   0.000   0.000  -0.000  -0.000   0.000  -0.000   0.000   0.000
 -0.000   1.991   0.000   0.000  -0.028   0.000   0.000   0.000   0.000   0.000  -0.000  -0.000  -0.000  -0.000   0.000   0.000
  0.000   0.000   1.992   0.000   0.000  -0.028   0.000   0.000   0.000  -0.000   0.000   0.000   0.000   0.000  -0.000  -0.000
 -0.027   0.000   0.000   0.203   0.000   0.000   0.000   0.000  -0.000   0.000  -0.000   0.000   0.000  -0.000   0.000   0.000
  0.000  -0.028   0.000   0.000   0.197   0.000  -0.000  -0.000   0.000   0.000  -0.000   0.000  -0.000  -0.000   0.000   0.000
  0.000   0.000  -0.028   0.000   0.000   0.163   0.000   0.000   0.000   0.000  -0.000   0.000   0.000   0.000   0.000   0.000
 -0.000   0.000   0.000   0.000  -0.000   0.000   2.679   0.000   0.000   0.000   0.000  -1.431   0.000   0.000   0.000   0.000
  0.000   0.000   0.000   0.000  -0.000   0.000   0.000   2.631   0.000   0.000  -0.000  -0.000  -1.815   0.000  -0.000   0.000
  0.000   0.000   0.000  -0.000   0.000   0.000   0.000   0.000   3.223   0.000   0.323   0.000  -0.000  -1.806   0.000  -0.279
  0.000   0.000  -0.000   0.000   0.000   0.000   0.000   0.000   0.000   2.434   0.000   0.000   0.000   0.000  -1.349   0.000
 -0.000  -0.000  -0.000   0.000  -0.000  -0.000   0.000  -0.000   0.323   0.000   2.867   0.000  -0.000  -0.271   0.000  -1.634
 -0.000  -0.000   0.000   0.000   0.000   0.000  -1.431  -0.000   0.000   0.000   0.000   1.650   0.000   0.000  -0.000   0.000
  0.000  -0.000   0.000   0.000  -0.000   0.000   0.000  -1.815  -0.000   0.000  -0.000   0.000   2.276   0.000   0.000   0.000
 -0.000  -0.000   0.000  -0.000  -0.000   0.000   0.000   0.000  -1.806   0.000  -0.271   0.000   0.000   1.754   0.000   0.178
  0.000   0.000  -0.000   0.000   0.000   0.000   0.000  -0.000   0.000  -1.349   0.000  -0.000   0.000   0.000   1.512   0.000
  0.000   0.000  -0.000   0.000   0.000   0.000   0.000  -0.000  -0.279   0.000  -1.634   0.000  -0.000   0.178   0.000   1.687
  0.000   0.000   0.000   0.000  -0.000  -0.000   0.000   0.000  -0.146  -0.000   0.264   0.000   0.000   0.089   0.000  -0.241
 -0.000   0.000   0.000   0.000   0.000   0.000   0.000  -0.000   0.014   0.000  -0.011  -0.000  -0.000  -0.006   0.000   0.009
 total augmentation occupancy for first ion, spin component:           2
  0.002   0.000   0.000   0.007   0.000   0.000   0.000  -0.000  -0.000   0.000   0.000   0.000   0.000   0.000   0.000   0.000
  0.000   0.002   0.000   0.000   0.006   0.000   0.000   0.000  -0.000   0.000  -0.000   0.000   0.000  -0.000   0.000  -0.000
  0.000   0.000   0.002   0.000   0.000   0.007   0.000   0.000  -0.000  -0.000   0.000   0.000  -0.000  -0.000  -0.000   0.000
  0.007   0.000   0.000  -0.011   0.000   0.000   0.000  -0.000   0.000   0.000   0.000   0.000   0.000  -0.000   0.000  -0.000
  0.000   0.006   0.000   0.000  -0.012   0.000   0.000   0.000   0.000   0.000  -0.000  -0.000   0.000   0.000   0.000   0.000
  0.000   0.000   0.007   0.000   0.000  -0.011   0.000  -0.000   0.000  -0.000   0.000   0.000   0.000   0.000   0.000  -0.000
  0.000   0.000   0.000   0.000   0.000   0.000  -1.769   0.000   0.000   0.000   0.000   0.816   0.000  -0.000   0.000   0.000
  0.000   0.000   0.000  -0.000   0.000   0.000   0.000  -1.575  -0.000   0.000   0.000   0.000   0.494  -0.000  -0.000   0.000
  0.000  -0.000   0.000   0.000   0.000   0.000   0.000  -0.000  -2.233  -0.000  -0.273   0.000  -0.000   0.995   0.000   0.112
  0.000   0.000  -0.000   0.000   0.000  -0.000   0.000   0.000  -0.000  -1.694   0.000   0.000   0.000   0.000   0.457   0.000
  0.000  -0.000   0.000   0.000  -0.000   0.000   0.000   0.000  -0.273   0.000  -2.056   0.000   0.000   0.120   0.000   0.740
  0.000   0.000   0.000   0.000  -0.000   0.000   0.816   0.000   0.000   0.000   0.000  -0.223   0.000   0.000   0.000   0.000
  0.000   0.000  -0.000   0.000   0.000   0.000   0.000   0.494  -0.000  -0.000   0.000   0.000   0.110   0.000   0.000   0.000
 -0.000  -0.000  -0.000  -0.000   0.000   0.000  -0.000  -0.000   0.995   0.000   0.120   0.000   0.000  -0.335   0.000  -0.064
  0.000   0.000  -0.000   0.000   0.000   0.000   0.000  -0.000   0.000   0.457   0.000   0.000   0.000   0.000   0.139   0.000
  0.000  -0.000  -0.000  -0.000   0.000  -0.000   0.000   0.000   0.112   0.000   0.740   0.000   0.000  -0.064   0.000  -0.064
  0.000   0.000   0.000   0.000  -0.000   0.000   0.000   0.000  -0.010   0.000  -0.058   0.000   0.000  -0.018   0.000   0.022
  0.000   0.000   0.000  -0.000   0.000   0.000   0.000  -0.000  -0.009   0.000   0.002   0.000  -0.000   0.002   0.000   0.000


------------------------ aborting loop because EDIFF is reached ----------------------------------------





 total charge

# of ion       s       p       d       tot
------------------------------------------
    1        0.359   6.351   6.040  12.750
    2        0.356   6.342   6.055  12.753
    3        0.356   6.342   6.055  12.753
    4        0.362   6.347   6.037  12.747
    5        0.362   6.347   6.037  12.747
    6        0.354   6.345   6.036  12.736
    7        0.359   6.351   6.040  12.750
    8        0.356   6.342   6.055  12.753
    9        0.356   6.342   6.055  12.753
   10        0.786   0.732   8.035   9.553
   11        0.786   0.732   8.035   9.553
   12        0.776   0.744   8.044   9.565
--------------------------------------------------
tot          5.566  59.317  78.528 143.412



 magnetization (x)

# of ion       s       p       d       tot
------------------------------------------
    1       -0.019  -0.021  -2.266  -2.306
    2        0.001  -0.013   2.591   2.580
    3        0.001  -0.013   2.591   2.580
    4        0.013   0.024   2.460   2.497
    5        0.013   0.024   2.460   2.497
    6       -0.001  -0.012   2.706   2.693
    7       -0.019  -0.021  -2.266  -2.306
    8        0.001  -0.013   2.591   2.580
    9        0.001  -0.013   2.591   2.580
   10       -0.011  -0.020   0.089   0.058
   11       -0.011  -0.020   0.089   0.058
   12       -0.040  -0.108   0.441   0.293
--------------------------------------------------
tot         -0.071  -0.207  14.080  13.802
 
    CHARGE:  cpu time      0.1467: real time      0.1475
    FORLOC:  cpu time      0.0019: real time      0.0019
    FORNL :  cpu time      0.7078: real time      0.7125
    STRESS:  cpu time      4.3096: real time      4.3451
    FORCOR:  cpu time      0.0208: real time      0.0209
    FORHAR:  cpu time      0.0028: real time      0.0029
    MIXING:  cpu time      0.0103: real time      0.0104
    OFIELD:  cpu time      0.0021: real time      0.0021

  FORCE on cell =-STRESS in cart. coord.  units (eV):
  Direction    XX          YY          ZZ          XY          YZ          ZX
  --------------------------------------------------------------------------------------
  Alpha Z  1127.08695  1127.08695  1127.08695
  Ewald   -6089.95476 -6089.94737 -6104.68794    -0.00000     0.00000    -0.00000
  Hartree  1856.40659  1856.42050  1839.92302    -0.00000    -0.00000    -0.00000
  E(xc)    -944.47948  -944.47959  -944.41089    -0.00000    -0.00000     0.00000
  Local    1125.40304  1125.35970  1163.75989     0.00000    -0.00000    -0.00000
  n-local  -208.21386  -221.48441  -215.36264    14.47877     0.18904     0.21911
  augment  1439.26427  1439.27781  1435.15886     0.00000     0.00000    -0.00000
  Kinetic  1713.67203  1694.96151  1701.57775     3.20836    -0.09010    -0.62552
  Fock        0.00000     0.00000     0.00000     0.00000     0.00000     0.00000
  -------------------------------------------------------------------------------------
  Total       3.19002     3.19007     3.04500     0.00000     0.00000    -0.00000
  in kB      33.84757    33.84804    32.30881     0.00000     0.00000    -0.00000
  external pressure =       33.33 kB  Pullay stress =        0.00 kB


 VOLUME and BASIS-vectors are now :
 -----------------------------------------------------------------------------
  energy-cutoff  :      520.00
  volume of cell :      151.00
      direct lattice vectors                 reciprocal lattice vectors
     3.684414492  0.000000000  0.000000000     0.271413545  0.000000000  0.000000000
     0.000000000  3.684440085  0.000000000     0.000000000  0.271411660  0.000000000
     0.000000000  0.000000000 11.123384940     0.000000000  0.000000000  0.089900692

  length of vectors
     3.684414492  3.684440085 11.123384940     0.271413545  0.271411660  0.089900692


 FORCES acting on ions
    electron-ion (+dipol)            ewald-force                    non-local-force                 convergence-correction
 -----------------------------------------------------------------------------------------------
   -.847E-13 0.100E-11 -.996E-01   -.334E-13 -.566E-14 0.167E+00   -.723E-20 0.159E-20 0.320E-18   -.356E-13 -.336E-13 -.459E-04
   -.919E-13 0.190E-11 -.419E+01   -.338E-13 -.208E-13 0.453E+01   -.230E-18 0.439E-20 -.467E+00   -.270E-13 -.216E-13 0.229E-03
   -.967E-13 0.771E-12 0.413E+01   -.667E-14 0.214E-13 -.467E+01   -.260E-19 0.248E-19 0.467E+00   -.101E-13 -.359E-13 -.183E-03
   0.108E-11 -.358E-12 -.764E+02   -.113E-13 -.330E-13 0.742E+02   0.779E-19 -.134E-19 0.212E+01   -.129E-12 0.162E-13 -.257E-03
   0.108E-11 -.449E-11 0.763E+02   -.544E-13 0.154E-13 -.743E+02   -.107E-18 -.137E-19 -.212E+01   -.129E-12 -.975E-13 0.202E-03
   0.108E-11 -.316E-11 -.520E-01   -.179E-13 0.293E-13 0.361E-02   -.189E-20 0.134E-21 0.388E-18   -.146E-12 -.557E-13 0.571E-04
   0.107E-11 -.269E-13 -.993E-01   0.369E-13 0.383E-13 0.167E+00   -.230E-20 -.198E-20 0.273E-18   -.127E-12 -.615E-14 -.459E-04
   0.107E-11 0.315E-12 -.415E+01   0.333E-13 0.268E-13 0.457E+01   0.107E-17 -.518E-18 -.467E+00   -.165E-12 -.384E-13 0.229E-03
   0.107E-11 -.162E-12 0.409E+01   0.139E-13 0.743E-15 -.470E+01   -.867E-18 0.311E-18 0.467E+00   -.125E-12 0.684E-14 -.183E-03
   -.590E-13 -.218E-12 -.314E+00   -.103E-13 0.236E-13 0.411E+00   0.783E-18 0.289E-18 -.537E-01   0.263E-13 -.100E-13 -.182E-03
   -.508E-13 0.204E-12 0.286E+00   0.415E-13 -.251E-13 -.347E+00   -.602E-19 -.508E-18 0.537E-01   0.247E-13 0.255E-13 0.142E-03
   -.553E-13 -.457E-13 -.151E-01   0.172E-13 -.318E-13 -.359E-01   0.113E-20 0.767E-21 0.101E-18   0.224E-13 0.148E-13 0.392E-04
 -----------------------------------------------------------------------------------------------
   0.601E-11 -.426E-11 -.517E+00   -.251E-13 0.391E-13 0.102E-12   0.634E-18 -.423E-18 -.805E-15   -.820E-12 -.236E-12 0.794E-06
 
 
 POSITION                                       TOTAL-FORCE (eV/Angst)
 -----------------------------------------------------------------------------------
      0.00000      1.84222      1.85383        -0.000000     -0.000000      0.000000
      0.00000      1.84222      5.55762        -0.000000      0.000000      0.009441
      0.00000      1.84222      9.27362        -0.000000     -0.000000     -0.009441
      1.84221      1.84222     11.05292        -0.000000     -0.000000      0.019001
      1.84221      1.84222      3.77841         0.000000     -0.000000     -0.019001
      1.84221      1.84222      7.41556         0.000000      0.000000     -0.000000
      1.84221      0.00000      1.85383         0.000000      0.000000     -0.000000
      1.84221      0.00000      5.55753         0.000000      0.000000      0.009441
      1.84221      0.00000      9.27372        -0.000000     -0.000000     -0.009441
      0.00000      0.00000      0.05037        -0.000000     -0.000000      0.025179
      0.00000      0.00000      3.65726        -0.000000     -0.000000     -0.025179
      0.00000      0.00000      7.41564        -0.000000      0.000000     -0.000000
 -----------------------------------------------------------------------------------
    total drift:                                0.000000     -0.000000     -0.517396


--------------------------------------------------------------------------------------------------------



  FREE ENERGIE OF THE ION-ELECTRON SYSTEM (eV)
  ---------------------------------------------------
  free  energy   TOTEN  =       -93.26897820 eV

  energy  without entropy=      -93.26897820  energy(sigma->0) =      -93.26897820
 


--------------------------------------------------------------------------------------------------------


    POTLOK:  cpu time      0.0371: real time      0.0375


--------------------------------------------------------------------------------------------------------


     LOOP+:  cpu time    247.2685: real time    249.5178
 -----------------------------------------------------------------------------
|                                                                             |
|           W    W    AA    RRRRR   N    N  II  N    N   GGGG   !!!           |
|           W    W   A  A   R    R  NN   N  II  NN   N  G    G  !!!           |
|           W    W  A    A  R    R  N N  N  II  N N  N  G       !!!           |
|           W WW W  AAAAAA  RRRRR   N  N N  II  N  N N  G  GGG   !            |
|           WW  WW  A    A  R   R   N   NN  II  N   NN  G    G                |
|           W    W  A    A  R    R  N    N  II  N    N   GGGG   !!!           |
|                                                                             |
|     Tetrahedron method does not include variations of the Fermi             |
|     occupations, so forces and stress will be inaccurate. We suggest        |
|     using a different smearing scheme ISMEAR = 1 or 2 for metals in         |
|     relaxations.                                                            |
|                                                                             |
 -----------------------------------------------------------------------------

    4ORBIT:  cpu time      0.0000: real time      0.0000



 total charge

# of ion       s       p       d       tot
------------------------------------------
    1        0.359   6.351   6.040  12.750
    2        0.356   6.342   6.055  12.753
    3        0.356   6.342   6.055  12.753
    4        0.362   6.347   6.037  12.747
    5        0.362   6.347   6.037  12.747
    6        0.354   6.345   6.036  12.736
    7        0.359   6.351   6.040  12.750
    8        0.356   6.342   6.055  12.753
    9        0.356   6.342   6.055  12.753
   10        0.786   0.732   8.035   9.553
   11        0.786   0.732   8.035   9.553
   12        0.776   0.744   8.044   9.565
--------------------------------------------------
tot          5.566  59.317  78.528 143.412



 magnetization (x)

# of ion       s       p       d       tot
------------------------------------------
    1       -0.019  -0.021  -2.266  -2.306
    2        0.001  -0.013   2.591   2.580
    3        0.001  -0.013   2.591   2.580
    4        0.013   0.024   2.460   2.497
    5        0.013   0.024   2.460   2.497
    6       -0.001  -0.012   2.706   2.693
    7       -0.019  -0.021  -2.266  -2.306
    8        0.001  -0.013   2.591   2.580
    9        0.001  -0.013   2.591   2.580
   10       -0.011  -0.020   0.089   0.058
   11       -0.011  -0.020   0.089   0.058
   12       -0.040  -0.108   0.441   0.293
--------------------------------------------------
tot         -0.071  -0.207  14.080  13.802
 
 BZINTS: Fermi energy:   10.263579;  156.000000 electrons
         Band energy:-0.156993E+04;  BLOECHL correction:   -0.031799

 total amount of memory used by VASP MPI-rank0   185523. kBytes
=======================================================================

   base      :      30000. kBytes
   nonl-proj :     100657. kBytes
   fftplans  :        888. kBytes
   grid      :       6813. kBytes
   one-center:        373. kBytes
   wavefun   :      46792. kBytes
 
  
  
 General timing and accounting informations for this job:
 ========================================================
  
                  Total CPU time used (sec):      265.880
                            User time (sec):      256.994
                          System time (sec):        8.886
                         Elapsed time (sec):      274.386
  
                   Maximum memory used (kb):      920344.
                   Average memory used (kb):          N/A
  
                          Minor page faults:       232538
                          Major page faults:          193
                 Voluntary context switches:         8157
