  16  16   1   0
  0.1950000E+02  0.7495580E-09  0.7495580E-09  0.5634941E-09  0.5000000E-15
  1.000000000000000E-004
  CAR 
 unknown system                          
     11.53556784    -53.97911060  301      3.78468899      1.00000000
    -53.979  0.0000E+00  0.0000E+00  0.0000E+00  0.0000E+00
    -53.761  0.0000E+00  0.0000E+00  0.0000E+00  0.0000E+00
    -53.542  0.0000E+00  0.0000E+00  0.0000E+00  0.0000E+00
    -53.324  0.0000E+00  0.0000E+00  0.0000E+00  0.0000E+00
    -53.106  0.0000E+00  0.0000E+00  0.0000E+00  0.0000E+00
    -52.887  0.0000E+00  0.0000E+00  0.0000E+00  0.0000E+00
    -52.669  0.0000E+00  0.0000E+00  0.0000E+00  0.0000E+00
    -52.450  0.0000E+00  0.0000E+00  0.0000E+00  0.0000E+00
    -52.232  0.0000E+00  0.0000E+00  0.0000E+00  0.0000E+00
    -52.014  0.0000E+00  0.0000E+00  0.0000E+00  0.0000E+00
    -51.795  0.0000E+00  0.0000E+00  0.0000E+00  0.0000E+00
    -51.577  0.0000E+00  0.0000E+00  0.0000E+00  0.0000E+00
    -51.359  0.0000E+00  0.0000E+00  0.0000E+00  0.0000E+00
    -51.140  0.0000E+00  0.0000E+00  0.0000E+00  0.0000E+00
    -50.922  0.1832E+02  0.1832E+02  0.4000E+01  0.4000E+01
    -50.703  0.3531E+02  0.3531E+02  0.1004E+02  0.1004E+02
    -50.485  0.7850E+01  0.7850E+01  0.1200E+02  0.1200E+02
    -50.267  0.0000E+00  0.0000E+00  0.1200E+02  0.1200E+02
    -50.048  0.0000E+00  0.0000E+00  0.1200E+02  0.1200E+02
    -49.830  0.0000E+00  0.0000E+00  0.1200E+02  0.1200E+02
    -49.611  0.0000E+00  0.0000E+00  0.1200E+02  0.1200E+02
    -49.393  0.0000E+00  0.0000E+00  0.1200E+02  0.1200E+02
    -49.175  0.0000E+00  0.0000E+00  0.1200E+02  0.1200E+02
    -48.956  0.0000E+00  0.0000E+00  0.1200E+02  0.1200E+02
    -48.738  0.0000E+00  0.0000E+00  0.1200E+02  0.1200E+02
    -48.520  0.0000E+00  0.0000E+00  0.1200E+02  0.1200E+02
    -48.301  0.0000E+00  0.0000E+00  0.1200E+02  0.1200E+02
    -48.083  0.2290E+02  0.2290E+02  0.1700E+02  0.1700E+02
    -47.864  0.1542E+02  0.1542E+02  0.1879E+02  0.1879E+02
    -47.646  0.2355E+02  0.2355E+02  0.2400E+02  0.2400E+02
    -47.428  0.0000E+00  0.0000E+00  0.2400E+02  0.2400E+02
    -47.209  0.0000E+00  0.0000E+00  0.2400E+02  0.2400E+02
    -46.991  0.0000E+00  0.0000E+00  0.2400E+02  0.2400E+02
    -46.772  0.0000E+00  0.0000E+00  0.2400E+02  0.2400E+02
    -46.554  0.0000E+00  0.0000E+00  0.2400E+02  0.2400E+02
    -46.336  0.0000E+00  0.0000E+00  0.2400E+02  0.2400E+02
    -46.117  0.0000E+00  0.0000E+00  0.2400E+02  0.2400E+02
    -45.899  0.0000E+00  0.0000E+00  0.2400E+02  0.2400E+02
    -45.681  0.0000E+00  0.0000E+00  0.2400E+02  0.2400E+02
    -45.462  0.0000E+00  0.0000E+00  0.2400E+02  0.2400E+02
    -45.244  0.0000E+00  0.0000E+00  0.2400E+02  0.2400E+02
    -45.025  0.0000E+00  0.0000E+00  0.2400E+02  0.2400E+02
    -44.807  0.0000E+00  0.0000E+00  0.2400E+02  0.2400E+02
    -44.589  0.0000E+00  0.0000E+00  0.2400E+02  0.2400E+02
    -44.370  0.0000E+00  0.0000E+00  0.2400E+02  0.2400E+02
    -44.152  0.0000E+00  0.0000E+00  0.2400E+02  0.2400E+02
    -43.934  0.0000E+00  0.0000E+00  0.2400E+02  0.2400E+02
    -43.715  0.0000E+00  0.0000E+00  0.2400E+02  0.2400E+02
    -43.497  0.0000E+00  0.0000E+00  0.2400E+02  0.2400E+02
    -43.278  0.0000E+00  0.0000E+00  0.2400E+02  0.2400E+02
    -43.060  0.0000E+00  0.0000E+00  0.2400E+02  0.2400E+02
    -42.842  0.0000E+00  0.0000E+00  0.2400E+02  0.2400E+02
    -42.623  0.0000E+00  0.0000E+00  0.2400E+02  0.2400E+02
    -42.405  0.0000E+00  0.0000E+00  0.2400E+02  0.2400E+02
    -42.186  0.0000E+00  0.0000E+00  0.2400E+02  0.2400E+02
    -41.968  0.0000E+00  0.0000E+00  0.2400E+02  0.2400E+02
    -41.750  0.0000E+00  0.0000E+00  0.2400E+02  0.2400E+02
    -41.531  0.0000E+00  0.0000E+00  0.2400E+02  0.2400E+02
    -41.313  0.0000E+00  0.0000E+00  0.2400E+02  0.2400E+02
    -41.095  0.0000E+00  0.0000E+00  0.2400E+02  0.2400E+02
    -40.876  0.0000E+00  0.0000E+00  0.2400E+02  0.2400E+02
    -40.658  0.0000E+00  0.0000E+00  0.2400E+02  0.2400E+02
    -40.439  0.0000E+00  0.0000E+00  0.2400E+02  0.2400E+02
    -40.221  0.0000E+00  0.0000E+00  0.2400E+02  0.2400E+02
    -40.003  0.0000E+00  0.0000E+00  0.2400E+02  0.2400E+02
    -39.784  0.0000E+00  0.0000E+00  0.2400E+02  0.2400E+02
    -39.566  0.0000E+00  0.0000E+00  0.2400E+02  0.2400E+02
    -39.347  0.0000E+00  0.0000E+00  0.2400E+02  0.2400E+02
    -39.129  0.0000E+00  0.0000E+00  0.2400E+02  0.2400E+02
    -38.911  0.0000E+00  0.0000E+00  0.2400E+02  0.2400E+02
    -38.692  0.0000E+00  0.0000E+00  0.2400E+02  0.2400E+02
    -38.474  0.0000E+00  0.0000E+00  0.2400E+02  0.2400E+02
    -38.256  0.0000E+00  0.0000E+00  0.2400E+02  0.2400E+02
    -38.037  0.0000E+00  0.0000E+00  0.2400E+02  0.2400E+02
    -37.819  0.0000E+00  0.0000E+00  0.2400E+02  0.2400E+02
    -37.600  0.0000E+00  0.0000E+00  0.2400E+02  0.2400E+02
    -37.382  0.0000E+00  0.0000E+00  0.2400E+02  0.2400E+02
    -37.164  0.0000E+00  0.0000E+00  0.2400E+02  0.2400E+02
    -36.945  0.0000E+00  0.0000E+00  0.2400E+02  0.2400E+02
    -36.727  0.0000E+00  0.0000E+00  0.2400E+02  0.2400E+02
    -36.509  0.0000E+00  0.0000E+00  0.2400E+02  0.2400E+02
    -36.290  0.0000E+00  0.0000E+00  0.2400E+02  0.2400E+02
    -36.072  0.0000E+00  0.0000E+00  0.2400E+02  0.2400E+02
    -35.853  0.0000E+00  0.0000E+00  0.2400E+02  0.2400E+02
    -35.635  0.0000E+00  0.0000E+00  0.2400E+02  0.2400E+02
    -35.417  0.0000E+00  0.0000E+00  0.2400E+02  0.2400E+02
    -35.198  0.0000E+00  0.0000E+00  0.2400E+02  0.2400E+02
    -34.980  0.0000E+00  0.0000E+00  0.2400E+02  0.2400E+02
    -34.761  0.0000E+00  0.0000E+00  0.2400E+02  0.2400E+02
    -34.543  0.0000E+00  0.0000E+00  0.2400E+02  0.2400E+02
    -34.325  0.0000E+00  0.0000E+00  0.2400E+02  0.2400E+02
    -34.106  0.0000E+00  0.0000E+00  0.2400E+02  0.2400E+02
    -33.888  0.0000E+00  0.0000E+00  0.2400E+02  0.2400E+02
    -33.670  0.0000E+00  0.0000E+00  0.2400E+02  0.2400E+02
    -33.451  0.0000E+00  0.0000E+00  0.2400E+02  0.2400E+02
    -33.233  0.0000E+00  0.0000E+00  0.2400E+02  0.2400E+02
    -33.014  0.0000E+00  0.0000E+00  0.2400E+02  0.2400E+02
    -32.796  0.0000E+00  0.0000E+00  0.2400E+02  0.2400E+02
    -32.578  0.0000E+00  0.0000E+00  0.2400E+02  0.2400E+02
    -32.359  0.0000E+00  0.0000E+00  0.2400E+02  0.2400E+02
    -32.141  0.0000E+00  0.0000E+00  0.2400E+02  0.2400E+02
    -31.923  0.0000E+00  0.0000E+00  0.2400E+02  0.2400E+02
    -31.704  0.0000E+00  0.0000E+00  0.2400E+02  0.2400E+02
    -31.486  0.0000E+00  0.0000E+00  0.2400E+02  0.2400E+02
    -31.267  0.0000E+00  0.0000E+00  0.2400E+02  0.2400E+02
    -31.049  0.0000E+00  0.0000E+00  0.2400E+02  0.2400E+02
    -30.831  0.0000E+00  0.0000E+00  0.2400E+02  0.2400E+02
    -30.612  0.0000E+00  0.0000E+00  0.2400E+02  0.2400E+02
    -30.394  0.0000E+00  0.0000E+00  0.2400E+02  0.2400E+02
    -30.175  0.0000E+00  0.0000E+00  0.2400E+02  0.2400E+02
    -29.957  0.0000E+00  0.0000E+00  0.2400E+02  0.2400E+02
    -29.739  0.0000E+00  0.0000E+00  0.2400E+02  0.2400E+02
    -29.520  0.0000E+00  0.0000E+00  0.2400E+02  0.2400E+02
    -29.302  0.0000E+00  0.0000E+00  0.2400E+02  0.2400E+02
    -29.084  0.0000E+00  0.0000E+00  0.2400E+02  0.2400E+02
    -28.865  0.0000E+00  0.0000E+00  0.2400E+02  0.2400E+02
    -28.647  0.0000E+00  0.0000E+00  0.2400E+02  0.2400E+02
    -28.428  0.0000E+00  0.0000E+00  0.2400E+02  0.2400E+02
    -28.210  0.0000E+00  0.0000E+00  0.2400E+02  0.2400E+02
    -27.992  0.0000E+00  0.0000E+00  0.2400E+02  0.2400E+02
    -27.773  0.0000E+00  0.0000E+00  0.2400E+02  0.2400E+02
    -27.555  0.0000E+00  0.0000E+00  0.2400E+02  0.2400E+02
    -27.336  0.0000E+00  0.0000E+00  0.2400E+02  0.2400E+02
    -27.118  0.0000E+00  0.0000E+00  0.2400E+02  0.2400E+02
    -26.900  0.0000E+00  0.0000E+00  0.2400E+02  0.2400E+02
    -26.681  0.0000E+00  0.0000E+00  0.2400E+02  0.2400E+02
    -26.463  0.0000E+00  0.0000E+00  0.2400E+02  0.2400E+02
    -26.245  0.0000E+00  0.0000E+00  0.2400E+02  0.2400E+02
    -26.026  0.0000E+00  0.0000E+00  0.2400E+02  0.2400E+02
    -25.808  0.0000E+00  0.0000E+00  0.2400E+02  0.2400E+02
    -25.589  0.0000E+00  0.0000E+00  0.2400E+02  0.2400E+02
    -25.371  0.0000E+00  0.0000E+00  0.2400E+02  0.2400E+02
    -25.153  0.0000E+00  0.0000E+00  0.2400E+02  0.2400E+02
    -24.934  0.0000E+00  0.0000E+00  0.2400E+02  0.2400E+02
    -24.716  0.0000E+00  0.0000E+00  0.2400E+02  0.2400E+02
    -24.498  0.0000E+00  0.0000E+00  0.2400E+02  0.2400E+02
    -24.279  0.0000E+00  0.0000E+00  0.2400E+02  0.2400E+02
    -24.061  0.0000E+00  0.0000E+00  0.2400E+02  0.2400E+02
    -23.842  0.0000E+00  0.0000E+00  0.2400E+02  0.2400E+02
    -23.624  0.0000E+00  0.0000E+00  0.2400E+02  0.2400E+02
    -23.406  0.0000E+00  0.0000E+00  0.2400E+02  0.2400E+02
    -23.187  0.0000E+00  0.0000E+00  0.2400E+02  0.2400E+02
    -22.969  0.0000E+00  0.0000E+00  0.2400E+02  0.2400E+02
    -22.750  0.0000E+00  0.0000E+00  0.2400E+02  0.2400E+02
    -22.532  0.0000E+00  0.0000E+00  0.2400E+02  0.2400E+02
    -22.314  0.0000E+00  0.0000E+00  0.2400E+02  0.2400E+02
    -22.095  0.0000E+00  0.0000E+00  0.2400E+02  0.2400E+02
    -21.877  0.0000E+00  0.0000E+00  0.2400E+02  0.2400E+02
    -21.659  0.0000E+00  0.0000E+00  0.2400E+02  0.2400E+02
    -21.440  0.0000E+00  0.0000E+00  0.2400E+02  0.2400E+02
    -21.222  0.0000E+00  0.0000E+00  0.2400E+02  0.2400E+02
    -21.003  0.0000E+00  0.0000E+00  0.2400E+02  0.2400E+02
    -20.785  0.0000E+00  0.0000E+00  0.2400E+02  0.2400E+02
    -20.567  0.0000E+00  0.0000E+00  0.2400E+02  0.2400E+02
    -20.348  0.0000E+00  0.0000E+00  0.2400E+02  0.2400E+02
    -20.130  0.0000E+00  0.0000E+00  0.2400E+02  0.2400E+02
    -19.911  0.0000E+00  0.0000E+00  0.2400E+02  0.2400E+02
    -19.693  0.0000E+00  0.0000E+00  0.2400E+02  0.2400E+02
    -19.475  0.0000E+00  0.0000E+00  0.2400E+02  0.2400E+02
    -19.256  0.0000E+00  0.0000E+00  0.2400E+02  0.2400E+02
    -19.038  0.0000E+00  0.0000E+00  0.2400E+02  0.2400E+02
    -18.820  0.0000E+00  0.0000E+00  0.2400E+02  0.2400E+02
    -18.601  0.0000E+00  0.0000E+00  0.2400E+02  0.2400E+02
    -18.383  0.0000E+00  0.0000E+00  0.2400E+02  0.2400E+02
    -18.164  0.0000E+00  0.0000E+00  0.2400E+02  0.2400E+02
    -17.946  0.0000E+00  0.0000E+00  0.2400E+02  0.2400E+02
    -17.728  0.0000E+00  0.0000E+00  0.2400E+02  0.2400E+02
    -17.509  0.0000E+00  0.0000E+00  0.2400E+02  0.2400E+02
    -17.291  0.0000E+00  0.0000E+00  0.2400E+02  0.2400E+02
    -17.073  0.0000E+00  0.0000E+00  0.2400E+02  0.2400E+02
    -16.854  0.0000E+00  0.0000E+00  0.2400E+02  0.2400E+02
    -16.636  0.0000E+00  0.0000E+00  0.2400E+02  0.2400E+02
    -16.417  0.0000E+00  0.0000E+00  0.2400E+02  0.2400E+02
    -16.199  0.0000E+00  0.0000E+00  0.2400E+02  0.2400E+02
    -15.981  0.0000E+00  0.0000E+00  0.2400E+02  0.2400E+02
    -15.762  0.0000E+00  0.0000E+00  0.2400E+02  0.2400E+02
    -15.544  0.0000E+00  0.0000E+00  0.2400E+02  0.2400E+02
    -15.325  0.0000E+00  0.0000E+00  0.2400E+02  0.2400E+02
    -15.107  0.0000E+00  0.0000E+00  0.2400E+02  0.2400E+02
    -14.889  0.0000E+00  0.0000E+00  0.2400E+02  0.2400E+02
    -14.670  0.0000E+00  0.0000E+00  0.2400E+02  0.2400E+02
    -14.452  0.0000E+00  0.0000E+00  0.2400E+02  0.2400E+02
    -14.234  0.0000E+00  0.0000E+00  0.2400E+02  0.2400E+02
    -14.015  0.0000E+00  0.0000E+00  0.2400E+02  0.2400E+02
    -13.797  0.0000E+00  0.0000E+00  0.2400E+02  0.2400E+02
    -13.578  0.0000E+00  0.0000E+00  0.2400E+02  0.2400E+02
    -13.360  0.0000E+00  0.0000E+00  0.2400E+02  0.2400E+02
    -13.142  0.0000E+00  0.0000E+00  0.2400E+02  0.2400E+02
    -12.923  0.0000E+00  0.0000E+00  0.2400E+02  0.2400E+02
    -12.705  0.0000E+00  0.0000E+00  0.2400E+02  0.2400E+02
    -12.486  0.0000E+00  0.0000E+00  0.2400E+02  0.2400E+02
    -12.268  0.0000E+00  0.0000E+00  0.2400E+02  0.2400E+02
    -12.050  0.0000E+00  0.0000E+00  0.2400E+02  0.2400E+02
    -11.831  0.0000E+00  0.0000E+00  0.2400E+02  0.2400E+02
    -11.613  0.0000E+00  0.0000E+00  0.2400E+02  0.2400E+02
    -11.395  0.0000E+00  0.0000E+00  0.2400E+02  0.2400E+02
    -11.176  0.0000E+00  0.0000E+00  0.2400E+02  0.2400E+02
    -10.958  0.0000E+00  0.0000E+00  0.2400E+02  0.2400E+02
    -10.739  0.0000E+00  0.0000E+00  0.2400E+02  0.2400E+02
    -10.521  0.0000E+00  0.0000E+00  0.2400E+02  0.2400E+02
    -10.303  0.1503E+01  0.1503E+01  0.2414E+02  0.2414E+02
    -10.084  0.2013E+01  0.2013E+01  0.2450E+02  0.2450E+02
     -9.866  0.3361E+01  0.3361E+01  0.2506E+02  0.2506E+02
     -9.648  0.4154E+01  0.4154E+01  0.2574E+02  0.2574E+02
     -9.429  0.7032E+01  0.7032E+01  0.2667E+02  0.2667E+02
     -9.211  0.1164E+02  0.1164E+02  0.2846E+02  0.2846E+02
     -8.992  0.1318E+02  0.1318E+02  0.3020E+02  0.3020E+02
     -8.774  0.8757E+01  0.8757E+01  0.3182E+02  0.3182E+02
     -8.556  0.4015E+00  0.4015E+00  0.3200E+02  0.3200E+02
     -8.337  0.0000E+00  0.0000E+00  0.3200E+02  0.3200E+02
     -8.119  0.0000E+00  0.0000E+00  0.3200E+02  0.3200E+02
     -7.900  0.0000E+00  0.0000E+00  0.3200E+02  0.3200E+02
     -7.682  0.0000E+00  0.0000E+00  0.3200E+02  0.3200E+02
     -7.464  0.0000E+00  0.0000E+00  0.3200E+02  0.3200E+02
     -7.245  0.0000E+00  0.0000E+00  0.3200E+02  0.3200E+02
     -7.027  0.0000E+00  0.0000E+00  0.3200E+02  0.3200E+02
     -6.809  0.0000E+00  0.0000E+00  0.3200E+02  0.3200E+02
     -6.590  0.0000E+00  0.0000E+00  0.3200E+02  0.3200E+02
     -6.372  0.0000E+00  0.0000E+00  0.3200E+02  0.3200E+02
     -6.153  0.0000E+00  0.0000E+00  0.3200E+02  0.3200E+02
     -5.935  0.0000E+00  0.0000E+00  0.3200E+02  0.3200E+02
     -5.717  0.0000E+00  0.0000E+00  0.3200E+02  0.3200E+02
     -5.498  0.0000E+00  0.0000E+00  0.3200E+02  0.3200E+02
     -5.280  0.0000E+00  0.0000E+00  0.3200E+02  0.3200E+02
     -5.061  0.0000E+00  0.0000E+00  0.3200E+02  0.3200E+02
     -4.843  0.0000E+00  0.0000E+00  0.3200E+02  0.3200E+02
     -4.625  0.0000E+00  0.0000E+00  0.3200E+02  0.3200E+02
     -4.406  0.0000E+00  0.0000E+00  0.3200E+02  0.3200E+02
     -4.188  0.0000E+00  0.0000E+00  0.3200E+02  0.3200E+02
     -3.970  0.0000E+00  0.0000E+00  0.3200E+02  0.3200E+02
     -3.751  0.0000E+00  0.0000E+00  0.3200E+02  0.3200E+02
     -3.533  0.0000E+00  0.0000E+00  0.3200E+02  0.3200E+02
     -3.314  0.0000E+00  0.0000E+00  0.3200E+02  0.3200E+02
     -3.096  0.0000E+00  0.0000E+00  0.3200E+02  0.3200E+02
     -2.878  0.0000E+00  0.0000E+00  0.3200E+02  0.3200E+02
     -2.659  0.0000E+00  0.0000E+00  0.3200E+02  0.3200E+02
     -2.441  0.0000E+00  0.0000E+00  0.3200E+02  0.3200E+02
     -2.223  0.2433E+00  0.2433E+00  0.3201E+02  0.3201E+02
     -2.004  0.6703E+00  0.6703E+00  0.3211E+02  0.3211E+02
     -1.786  0.6125E+01  0.6125E+01  0.3279E+02  0.3279E+02
     -1.567  0.9389E+01  0.9389E+01  0.3420E+02  0.3420E+02
     -1.349  0.8405E+01  0.8405E+01  0.3579E+02  0.3579E+02
     -1.131  0.6457E+01  0.6457E+01  0.3701E+02  0.3701E+02
     -0.912  0.7573E+01  0.7573E+01  0.3829E+02  0.3829E+02
     -0.694  0.5473E+01  0.5473E+01  0.3945E+02  0.3945E+02
     -0.475  0.1197E+02  0.1197E+02  0.4093E+02  0.4093E+02
     -0.257  0.7471E+01  0.7471E+01  0.4232E+02  0.4232E+02
     -0.039  0.1502E+02  0.1502E+02  0.4435E+02  0.4435E+02
      0.180  0.1576E+02  0.1576E+02  0.4683E+02  0.4683E+02
      0.398  0.1261E+02  0.1261E+02  0.4904E+02  0.4904E+02
      0.616  0.1727E+02  0.1727E+02  0.5160E+02  0.5160E+02
      0.835  0.1124E+02  0.1124E+02  0.5347E+02  0.5347E+02
      1.053  0.9147E+01  0.9147E+01  0.5501E+02  0.5501E+02
      1.272  0.1772E+02  0.1772E+02  0.5686E+02  0.5686E+02
      1.490  0.1476E+02  0.1476E+02  0.5931E+02  0.5931E+02
      1.708  0.2312E+02  0.2312E+02  0.6199E+02  0.6199E+02
      1.927  0.3410E+02  0.3410E+02  0.6599E+02  0.6599E+02
      2.145  0.1988E+02  0.1988E+02  0.6949E+02  0.6949E+02
      2.364  0.1011E+02  0.1011E+02  0.7125E+02  0.7125E+02
      2.582  0.1087E+02  0.1087E+02  0.7279E+02  0.7279E+02
      2.800  0.7191E+01  0.7191E+01  0.7419E+02  0.7419E+02
      3.019  0.5999E+01  0.5999E+01  0.7550E+02  0.7550E+02
      3.237  0.6570E+01  0.6570E+01  0.7634E+02  0.7634E+02
      3.455  0.6384E+01  0.6384E+01  0.7737E+02  0.7737E+02
      3.674  0.1164E+02  0.1164E+02  0.7896E+02  0.7896E+02
      3.892  0.9965E+01  0.9965E+01  0.8059E+02  0.8059E+02
      4.111  0.2408E+02  0.2408E+02  0.8244E+02  0.8244E+02
      4.329  0.1923E+02  0.1923E+02  0.8572E+02  0.8572E+02
      4.547  0.1516E+02  0.1516E+02  0.8770E+02  0.8770E+02
      4.766  0.1575E+02  0.1575E+02  0.8991E+02  0.8991E+02
      4.984  0.1067E+02  0.1067E+02  0.9169E+02  0.9169E+02
      5.202  0.1621E+02  0.1621E+02  0.9400E+02  0.9400E+02
      5.421  0.3354E+01  0.3354E+01  0.9498E+02  0.9498E+02
      5.639  0.1208E+01  0.1208E+01  0.9520E+02  0.9520E+02
      5.858  0.1782E+01  0.1782E+01  0.9552E+02  0.9552E+02
      6.076  0.1346E+01  0.1348E+01  0.9584E+02  0.9584E+02
      6.294  0.5528E+00  0.5689E+00  0.9602E+02  0.9602E+02
      6.513  0.6017E+00  0.5953E+00  0.9613E+02  0.9614E+02
      6.731  0.7783E+00  0.7728E+00  0.9628E+02  0.9628E+02
      6.950  0.1329E+01  0.1354E+01  0.9650E+02  0.9651E+02
      7.168  0.1980E+01  0.2035E+01  0.9685E+02  0.9686E+02
      7.386  0.2856E+01  0.2822E+01  0.9735E+02  0.9736E+02
      7.605  0.4133E+01  0.4035E+01  0.9810E+02  0.9811E+02
      7.823  0.4741E+01  0.4178E+01  0.9909E+02  0.9906E+02
      8.041  0.1831E+01  0.2001E+01  0.9971E+02  0.9968E+02
      8.260  0.7429E+00  0.7206E+00  0.9995E+02  0.9994E+02
      8.478  0.7777E-01  0.9691E-01  0.1000E+03  0.1000E+03
      8.697  0.0000E+00  0.0000E+00  0.1000E+03  0.1000E+03
      8.915  0.0000E+00  0.0000E+00  0.1000E+03  0.1000E+03
      9.133  0.0000E+00  0.0000E+00  0.1000E+03  0.1000E+03
      9.352  0.0000E+00  0.0000E+00  0.1000E+03  0.1000E+03
      9.570  0.0000E+00  0.0000E+00  0.1000E+03  0.1000E+03
      9.789  0.0000E+00  0.0000E+00  0.1000E+03  0.1000E+03
     10.007  0.0000E+00  0.0000E+00  0.1000E+03  0.1000E+03
     10.225  0.0000E+00  0.0000E+00  0.1000E+03  0.1000E+03
     10.444  0.0000E+00  0.0000E+00  0.1000E+03  0.1000E+03
     10.662  0.0000E+00  0.0000E+00  0.1000E+03  0.1000E+03
     10.880  0.0000E+00  0.0000E+00  0.1000E+03  0.1000E+03
     11.099  0.0000E+00  0.0000E+00  0.1000E+03  0.1000E+03
     11.317  0.0000E+00  0.0000E+00  0.1000E+03  0.1000E+03
     11.536  0.0000E+00  0.0000E+00  0.1000E+03  0.1000E+03
     11.53556784    -53.97911060  301      3.78468899      1.00000000
    -53.979  0.0000E+00  0.0000E+00  0.0000E+00  0.0000E+00  0.0000E+00  0.0000E+00  0.0000E+00  0.0000E+00  0.0000E+00  0.0000E+00  0.0000E+00  0.0000E+00  0.0000E+00  0.0000E+00  0.0000E+00  0.0000E+00  0.0000E+00  0.0000E+00
    -53.761  0.0000E+00  0.0000E+00  0.0000E+00  0.0000E+00  0.0000E+00  0.0000E+00  0.0000E+00  0.0000E+00  0.0000E+00  0.0000E+00  0.0000E+00  0.0000E+00  0.0000E+00  0.0000E+00  0.0000E+00  0.0000E+00  0.0000E+00  0.0000E+00
    -53.542  0.0000E+00  0.0000E+00  0.0000E+00  0.0000E+00  0.0000E+00  0.0000E+00  0.0000E+00  0.0000E+00  0.0000E+00  0.0000E+00  0.0000E+00  0.0000E+00  0.0000E+00  0.0000E+00  0.0000E+00  0.0000E+00  0.0000E+00  0.0000E+00
    -53.324  0.0000E+00  0.0000E+00  0.0000E+00  0.0000E+00  0.0000E+00  0.0000E+00  0.0000E+00  0.0000E+00  0.0000E+00  0.0000E+00  0.0000E+00  0.0000E+00  0.0000E+00  0.0000E+00  0.0000E+00  0.0000E+00  0.0000E+00  0.0000E+00
    -53.106  0.0000E+00  0.0000E+00  0.0000E+00  0.0000E+00  0.0000E+00  0.0000E+00  0.0000E+00  0.0000E+00  0.0000E+00  0.0000E+00  0.0000E+00  0.0000E+00  0.0000E+00  0.0000E+00  0.0000E+00  0.0000E+00  0.0000E+00  0.0000E+00
    -52.887  0.0000E+00  0.0000E+00  0.0000E+00  0.0000E+00  0.0000E+00  0.0000E+00  0.0000E+00  0.0000E+00  0.0000E+00  0.0000E+00  0.0000E+00  0.0000E+00  0.0000E+00  0.0000E+00  0.0000E+00  0.0000E+00  0.0000E+00  0.0000E+00
    -52.669  0.0000E+00  0.0000E+00  0.0000E+00  0.0000E+00  0.0000E+00  0.0000E+00  0.0000E+00  0.0000E+00  0.0000E+00  0.0000E+00  0.0000E+00  0.0000E+00  0.0000E+00  0.0000E+00  0.0000E+00  0.0000E+00  0.0000E+00  0.0000E+00
    -52.450  0.0000E+00  0.0000E+00  0.0000E+00  0.0000E+00  0.0000E+00  0.0000E+00  0.0000E+00  0.0000E+00  0.0000E+00  0.0000E+00  0.0000E+00  0.0000E+00  0.0000E+00  0.0000E+00  0.0000E+00  0.0000E+00  0.0000E+00  0.0000E+00
    -52.232  0.0000E+00  0.0000E+00  0.0000E+00  0.0000E+00  0.0000E+00  0.0000E+00  0.0000E+00  0.0000E+00  0.0000E+00  0.0000E+00  0.0000E+00  0.0000E+00  0.0000E+00  0.0000E+00  0.0000E+00  0.0000E+00  0.0000E+00  0.0000E+00
    -52.014  0.0000E+00  0.0000E+00  0.0000E+00  0.0000E+00  0.0000E+00  0.0000E+00  0.0000E+00  0.0000E+00  0.0000E+00  0.0000E+00  0.0000E+00  0.0000E+00  0.0000E+00  0.0000E+00  0.0000E+00  0.0000E+00  0.0000E+00  0.0000E+00
    -51.795  0.0000E+00  0.0000E+00  0.0000E+00  0.0000E+00  0.0000E+00  0.0000E+00  0.0000E+00  0.0000E+00  0.0000E+00  0.0000E+00  0.0000E+00  0.0000E+00  0.0000E+00  0.0000E+00  0.0000E+00  0.0000E+00  0.0000E+00  0.0000E+00
    -51.577  0.0000E+00  0.0000E+00  0.0000E+00  0.0000E+00  0.0000E+00  0.0000E+00  0.0000E+00  0.0000E+00  0.0000E+00  0.0000E+00  0.0000E+00  0.0000E+00  0.0000E+00  0.0000E+00  0.0000E+00  0.0000E+00  0.0000E+00  0.0000E+00
    -51.359  0.0000E+00  0.0000E+00  0.0000E+00  0.0000E+00  0.0000E+00  0.0000E+00  0.0000E+00  0.0000E+00  0.0000E+00  0.0000E+00  0.0000E+00  0.0000E+00  0.0000E+00  0.0000E+00  0.0000E+00  0.0000E+00  0.0000E+00  0.0000E+00
    -51.140  0.0000E+00  0.0000E+00  0.0000E+00  0.0000E+00  0.0000E+00  0.0000E+00  0.0000E+00  0.0000E+00  0.0000E+00  0.0000E+00  0.0000E+00  0.0000E+00  0.0000E+00  0.0000E+00  0.0000E+00  0.0000E+00  0.0000E+00  0.0000E+00
    -50.922  0.3058E-10  0.1425E-05  0.1288E+01  0.7268E-04  0.3272E+01  0.4991E-05  0.9723E-10  0.3362E-07  0.2254E-05  0.3706E-08  0.1309E-09  0.2655E-06  0.1383E-09  0.4376E-06  0.5673E-05  0.3913E-09  0.9177E-10  0.1586E-05
    -50.703  0.1912E-03  0.2853E-05  0.3273E+01  0.1660E-03  0.1289E+01  0.2290E-06  0.4229E+01  0.2198E-05  0.5796E-05  0.1660E-06  0.1072E-08  0.9828E-08  0.8776E-04  0.1095E-05  0.2241E-05  0.2744E-09  0.2632E-03  0.3450E-05
    -50.485  0.5215E-04  0.1676E-08  0.2018E-09  0.5591E-07  0.1064E-10  0.5755E-09  0.1958E+01  0.5398E-06  0.8743E-11  0.4506E-07  0.2402E-09  0.7699E-10  0.2391E-04  0.6768E-09  0.8713E-11  0.2501E-09  0.7171E-04  0.1374E-09
    -50.267  0.0000E+00  0.0000E+00  0.0000E+00  0.0000E+00  0.0000E+00  0.0000E+00  0.0000E+00  0.0000E+00  0.0000E+00  0.0000E+00  0.0000E+00  0.0000E+00  0.0000E+00  0.0000E+00  0.0000E+00  0.0000E+00  0.0000E+00  0.0000E+00
    -50.048  0.0000E+00  0.0000E+00  0.0000E+00  0.0000E+00  0.0000E+00  0.0000E+00  0.0000E+00  0.0000E+00  0.0000E+00  0.0000E+00  0.0000E+00  0.0000E+00  0.0000E+00  0.0000E+00  0.0000E+00  0.0000E+00  0.0000E+00  0.0000E+00
    -49.830  0.0000E+00  0.0000E+00  0.0000E+00  0.0000E+00  0.0000E+00  0.0000E+00  0.0000E+00  0.0000E+00  0.0000E+00  0.0000E+00  0.0000E+00  0.0000E+00  0.0000E+00  0.0000E+00  0.0000E+00  0.0000E+00  0.0000E+00  0.0000E+00
    -49.611  0.0000E+00  0.0000E+00  0.0000E+00  0.0000E+00  0.0000E+00  0.0000E+00  0.0000E+00  0.0000E+00  0.0000E+00  0.0000E+00  0.0000E+00  0.0000E+00  0.0000E+00  0.0000E+00  0.0000E+00  0.0000E+00  0.0000E+00  0.0000E+00
    -49.393  0.0000E+00  0.0000E+00  0.0000E+00  0.0000E+00  0.0000E+00  0.0000E+00  0.0000E+00  0.0000E+00  0.0000E+00  0.0000E+00  0.0000E+00  0.0000E+00  0.0000E+00  0.0000E+00  0.0000E+00  0.0000E+00  0.0000E+00  0.0000E+00
    -49.175  0.0000E+00  0.0000E+00  0.0000E+00  0.0000E+00  0.0000E+00  0.0000E+00  0.0000E+00  0.0000E+00  0.0000E+00  0.0000E+00  0.0000E+00  0.0000E+00  0.0000E+00  0.0000E+00  0.0000E+00  0.0000E+00  0.0000E+00  0.0000E+00
    -48.956  0.0000E+00  0.0000E+00  0.0000E+00  0.0000E+00  0.0000E+00  0.0000E+00  0.0000E+00  0.0000E+00  0.0000E+00  0.0000E+00  0.0000E+00  0.0000E+00  0.0000E+00  0.0000E+00  0.0000E+00  0.0000E+00  0.0000E+00  0.0000E+00
    -48.738  0.0000E+00  0.0000E+00  0.0000E+00  0.0000E+00  0.0000E+00  0.0000E+00  0.0000E+00  0.0000E+00  0.0000E+00  0.0000E+00  0.0000E+00  0.0000E+00  0.0000E+00  0.0000E+00  0.0000E+00  0.0000E+00  0.0000E+00  0.0000E+00
    -48.520  0.0000E+00  0.0000E+00  0.0000E+00  0.0000E+00  0.0000E+00  0.0000E+00  0.0000E+00  0.0000E+00  0.0000E+00  0.0000E+00  0.0000E+00  0.0000E+00  0.0000E+00  0.0000E+00  0.0000E+00  0.0000E+00  0.0000E+00  0.0000E+00
    -48.301  0.0000E+00  0.0000E+00  0.0000E+00  0.0000E+00  0.0000E+00  0.0000E+00  0.0000E+00  0.0000E+00  0.0000E+00  0.0000E+00  0.0000E+00  0.0000E+00  0.0000E+00  0.0000E+00  0.0000E+00  0.0000E+00  0.0000E+00  0.0000E+00
    -48.083  0.3198E-05  0.1517E-04  0.1649E-03  0.2123E+01  0.2908E-05  0.2437E+01  0.1057E-05  0.1138E+01  0.7914E-07  0.4512E-05  0.3338E-06  0.4824E-09  0.9784E-06  0.6989E-05  0.1357E-09  0.5230E-05  0.3581E-05  0.2101E-04
    -47.864  0.6223E-08  0.2249E-03  0.2261E-06  0.4255E-08  0.2829E-10  0.7484E-08  0.1820E-05  0.3843E+01  0.1656E-06  0.6759E-11  0.4258E-10  0.4718E-08  0.1670E-08  0.1036E-03  0.1081E-09  0.4395E-11  0.1572E-08  0.3115E-03
    -47.646  0.2940E-05  0.2354E-04  0.1265E-03  0.2439E+01  0.9247E-06  0.2124E+01  0.4862E-06  0.1307E+01  0.4352E-07  0.5263E-05  0.5306E-07  0.7795E-09  0.1157E-05  0.1083E-04  0.1187E-09  0.4614E-05  0.3545E-05  0.3261E-04
    -47.428  0.0000E+00  0.0000E+00  0.0000E+00  0.0000E+00  0.0000E+00  0.0000E+00  0.0000E+00  0.0000E+00  0.0000E+00  0.0000E+00  0.0000E+00  0.0000E+00  0.0000E+00  0.0000E+00  0.0000E+00  0.0000E+00  0.0000E+00  0.0000E+00
    -47.209  0.0000E+00  0.0000E+00  0.0000E+00  0.0000E+00  0.0000E+00  0.0000E+00  0.0000E+00  0.0000E+00  0.0000E+00  0.0000E+00  0.0000E+00  0.0000E+00  0.0000E+00  0.0000E+00  0.0000E+00  0.0000E+00  0.0000E+00  0.0000E+00
    -46.991  0.0000E+00  0.0000E+00  0.0000E+00  0.0000E+00  0.0000E+00  0.0000E+00  0.0000E+00  0.0000E+00  0.0000E+00  0.0000E+00  0.0000E+00  0.0000E+00  0.0000E+00  0.0000E+00  0.0000E+00  0.0000E+00  0.0000E+00  0.0000E+00
    -46.772  0.0000E+00  0.0000E+00  0.0000E+00  0.0000E+00  0.0000E+00  0.0000E+00  0.0000E+00  0.0000E+00  0.0000E+00  0.0000E+00  0.0000E+00  0.0000E+00  0.0000E+00  0.0000E+00  0.0000E+00  0.0000E+00  0.0000E+00  0.0000E+00
    -46.554  0.0000E+00  0.0000E+00  0.0000E+00  0.0000E+00  0.0000E+00  0.0000E+00  0.0000E+00  0.0000E+00  0.0000E+00  0.0000E+00  0.0000E+00  0.0000E+00  0.0000E+00  0.0000E+00  0.0000E+00  0.0000E+00  0.0000E+00  0.0000E+00
    -46.336  0.0000E+00  0.0000E+00  0.0000E+00  0.0000E+00  0.0000E+00  0.0000E+00  0.0000E+00  0.0000E+00  0.0000E+00  0.0000E+00  0.0000E+00  0.0000E+00  0.0000E+00  0.0000E+00  0.0000E+00  0.0000E+00  0.0000E+00  0.0000E+00
    -46.117  0.0000E+00  0.0000E+00  0.0000E+00  0.0000E+00  0.0000E+00  0.0000E+00  0.0000E+00  0.0000E+00  0.0000E+00  0.0000E+00  0.0000E+00  0.0000E+00  0.0000E+00  0.0000E+00  0.0000E+00  0.0000E+00  0.0000E+00  0.0000E+00
    -45.899  0.0000E+00  0.0000E+00  0.0000E+00  0.0000E+00  0.0000E+00  0.0000E+00  0.0000E+00  0.0000E+00  0.0000E+00  0.0000E+00  0.0000E+00  0.0000E+00  0.0000E+00  0.0000E+00  0.0000E+00  0.0000E+00  0.0000E+00  0.0000E+00
    -45.681  0.0000E+00  0.0000E+00  0.0000E+00  0.0000E+00  0.0000E+00  0.0000E+00  0.0000E+00  0.0000E+00  0.0000E+00  0.0000E+00  0.0000E+00  0.0000E+00  0.0000E+00  0.0000E+00  0.0000E+00  0.0000E+00  0.0000E+00  0.0000E+00
    -45.462  0.0000E+00  0.0000E+00  0.0000E+00  0.0000E+00  0.0000E+00  0.0000E+00  0.0000E+00  0.0000E+00  0.0000E+00  0.0000E+00  0.0000E+00  0.0000E+00  0.0000E+00  0.0000E+00  0.0000E+00  0.0000E+00  0.0000E+00  0.0000E+00
    -45.244  0.0000E+00  0.0000E+00  0.0000E+00  0.0000E+00  0.0000E+00  0.0000E+00  0.0000E+00  0.0000E+00  0.0000E+00  0.0000E+00  0.0000E+00  0.0000E+00  0.0000E+00  0.0000E+00  0.0000E+00  0.0000E+00  0.0000E+00  0.0000E+00
    -45.025  0.0000E+00  0.0000E+00  0.0000E+00  0.0000E+00  0.0000E+00  0.0000E+00  0.0000E+00  0.0000E+00  0.0000E+00  0.0000E+00  0.0000E+00  0.0000E+00  0.0000E+00  0.0000E+00  0.0000E+00  0.0000E+00  0.0000E+00  0.0000E+00
    -44.807  0.0000E+00  0.0000E+00  0.0000E+00  0.0000E+00  0.0000E+00  0.0000E+00  0.0000E+00  0.0000E+00  0.0000E+00  0.0000E+00  0.0000E+00  0.0000E+00  0.0000E+00  0.0000E+00  0.0000E+00  0.0000E+00  0.0000E+00  0.0000E+00
    -44.589  0.0000E+00  0.0000E+00  0.0000E+00  0.0000E+00  0.0000E+00  0.0000E+00  0.0000E+00  0.0000E+00  0.0000E+00  0.0000E+00  0.0000E+00  0.0000E+00  0.0000E+00  0.0000E+00  0.0000E+00  0.0000E+00  0.0000E+00  0.0000E+00
    -44.370  0.0000E+00  0.0000E+00  0.0000E+00  0.0000E+00  0.0000E+00  0.0000E+00  0.0000E+00  0.0000E+00  0.0000E+00  0.0000E+00  0.0000E+00  0.0000E+00  0.0000E+00  0.0000E+00  0.0000E+00  0.0000E+00  0.0000E+00  0.0000E+00
    -44.152  0.0000E+00  0.0000E+00  0.0000E+00  0.0000E+00  0.0000E+00  0.0000E+00  0.0000E+00  0.0000E+00  0.0000E+00  0.0000E+00  0.0000E+00  0.0000E+00  0.0000E+00  0.0000E+00  0.0000E+00  0.0000E+00  0.0000E+00  0.0000E+00
    -43.934  0.0000E+00  0.0000E+00  0.0000E+00  0.0000E+00  0.0000E+00  0.0000E+00  0.0000E+00  0.0000E+00  0.0000E+00  0.0000E+00  0.0000E+00  0.0000E+00  0.0000E+00  0.0000E+00  0.0000E+00  0.0000E+00  0.0000E+00  0.0000E+00
    -43.715  0.0000E+00  0.0000E+00  0.0000E+00  0.0000E+00  0.0000E+00  0.0000E+00  0.0000E+00  0.0000E+00  0.0000E+00  0.0000E+00  0.0000E+00  0.0000E+00  0.0000E+00  0.0000E+00  0.0000E+00  0.0000E+00  0.0000E+00  0.0000E+00
    -43.497  0.0000E+00  0.0000E+00  0.0000E+00  0.0000E+00  0.0000E+00  0.0000E+00  0.0000E+00  0.0000E+00  0.0000E+00  0.0000E+00  0.0000E+00  0.0000E+00  0.0000E+00  0.0000E+00  0.0000E+00  0.0000E+00  0.0000E+00  0.0000E+00
    -43.278  0.0000E+00  0.0000E+00  0.0000E+00  0.0000E+00  0.0000E+00  0.0000E+00  0.0000E+00  0.0000E+00  0.0000E+00  0.0000E+00  0.0000E+00  0.0000E+00  0.0000E+00  0.0000E+00  0.0000E+00  0.0000E+00  0.0000E+00  0.0000E+00
    -43.060  0.0000E+00  0.0000E+00  0.0000E+00  0.0000E+00  0.0000E+00  0.0000E+00  0.0000E+00  0.0000E+00  0.0000E+00  0.0000E+00  0.0000E+00  0.0000E+00  0.0000E+00  0.0000E+00  0.0000E+00  0.0000E+00  0.0000E+00  0.0000E+00