       N       E                     dE             d eps       ncg     rms          rms(c)
DAV:   1     0.202049118398E+04    0.20205E+04   -0.88943E+04 35260   0.196E+03
DAV:   2     0.123682949827E+03   -0.18968E+04   -0.18423E+04 32000   0.571E+02
DAV:   3    -0.847248697651E+02   -0.20841E+03   -0.18569E+03 45540   0.188E+02
DAV:   4    -0.993911699019E+02   -0.14666E+02   -0.14349E+02 46800   0.516E+01
DAV:   5    -0.997346149763E+02   -0.34345E+00   -0.34267E+00 45040   0.825E+00    0.273E+01
RMM:   6    -0.112324267113E+03   -0.12590E+02   -0.16786E+02 32058   0.840E+01    0.511E+01
RMM:   7    -0.909149737236E+02    0.21409E+02   -0.42537E+01 32015   0.503E+01    0.106E+01
RMM:   8    -0.914638004547E+02   -0.54883E+00   -0.29983E+00 41146   0.502E+00    0.484E+00
RMM:   9    -0.915404509296E+02   -0.76650E-01   -0.84626E-01 44829   0.279E+00    0.259E+00
RMM:  10    -0.915517108731E+02   -0.11260E-01   -0.25992E-01 46054   0.157E+00    0.126E+00
RMM:  11    -0.915571704227E+02   -0.54595E-02   -0.52857E-02 42581   0.923E-01    0.456E-01
RMM:  12    -0.915630147888E+02   -0.58444E-02   -0.14013E-02 43118   0.390E-01    0.255E-01
RMM:  13    -0.915629742578E+02    0.40531E-04   -0.32546E-03 35205   0.196E-01    0.119E-01
RMM:  14    -0.915630030958E+02   -0.28838E-04   -0.10142E-03 23947   0.124E-01
   1 F= -.98331943E+02 E0= -.98323020E+02  d E =-.983319E+02  mag=     0.0000
       N       E                     dE             d eps       ncg     rms          rms(c)
DAV:   1    -0.915754122808E+02   -0.12438E-01   -0.82079E-01 37620   0.272E+00    0.675E-01
RMM:   2    -0.915760913699E+02   -0.67909E-03   -0.58429E-02 37319   0.115E+00    0.561E-01
RMM:   3    -0.915746886887E+02    0.14027E-02   -0.18134E-02 34123   0.735E-01    0.323E-01
RMM:   4    -0.915738020954E+02    0.88659E-03   -0.52601E-03 32139   0.362E-01    0.849E-02
RMM:   5    -0.915739729373E+02   -0.17084E-03   -0.17096E-03 28978   0.141E-01
   2 F= -.98342774E+02 E0= -.98333542E+02  d E =-.108311E-01  mag=    -0.0000
       N       E                     dE             d eps       ncg     rms          rms(c)
DAV:   1    -0.915746925452E+02   -0.89045E-03   -0.68297E-02 38220   0.778E-01    0.197E-01
RMM:   2    -0.915747146250E+02   -0.22080E-04   -0.44803E-03 32191   0.340E-01    0.157E-01
RMM:   3    -0.915746149980E+02    0.99627E-04   -0.14848E-03 28151   0.215E-01
   3 F= -.98343390E+02 E0= -.98334037E+02  d E =-.114467E-01  mag=     0.0000
