       N       E                     dE             d eps       ncg     rms          rms(c)
DAV:   1     0.201354498978E+04    0.20135E+04   -0.88963E+04 35220   0.196E+03
DAV:   2     0.121125153940E+03   -0.18924E+04   -0.18379E+04 32000   0.572E+02
DAV:   3    -0.848995693834E+02   -0.20602E+03   -0.18376E+03 45740   0.187E+02
DAV:   4    -0.993935359983E+02   -0.14494E+02   -0.14163E+02 46940   0.512E+01
DAV:   5    -0.997430300739E+02   -0.34949E+00   -0.34865E+00 44780   0.835E+00    0.275E+01
RMM:   6    -0.113074593706E+03   -0.13332E+02   -0.16960E+02 32064   0.844E+01    0.521E+01
RMM:   7    -0.909245049405E+02    0.22150E+02   -0.43178E+01 32009   0.506E+01    0.108E+01
RMM:   8    -0.914768949232E+02   -0.55239E+00   -0.29293E+00 41190   0.500E+00    0.503E+00
RMM:   9    -0.915477226959E+02   -0.70828E-01   -0.85158E-01 44747   0.281E+00    0.261E+00
RMM:  10    -0.915644563010E+02   -0.16734E-01   -0.26890E-01 46018   0.157E+00    0.132E+00
RMM:  11    -0.915680425392E+02   -0.35862E-02   -0.55429E-02 42755   0.945E-01    0.456E-01
RMM:  12    -0.915744272686E+02   -0.63847E-02   -0.14836E-02 43342   0.403E-01    0.257E-01
RMM:  13    -0.915745005171E+02   -0.73248E-04   -0.34635E-03 36121   0.201E-01    0.125E-01
RMM:  14    -0.915744916372E+02    0.88799E-05   -0.10709E-03 24292   0.127E-01
   1 F= -.98343266E+02 E0= -.98333917E+02  d E =-.983433E+02  mag=     0.0000
       N       E                     dE             d eps       ncg     rms          rms(c)
DAV:   1    -0.916163620525E+02   -0.41862E-01   -0.93986E-01 38200   0.400E+00    0.139E+00
RMM:   2    -0.915884664447E+02    0.27896E-01   -0.50322E-02 34927   0.159E+00    0.942E-01
RMM:   3    -0.915839483614E+02    0.45181E-02   -0.45041E-02 32133   0.136E+00    0.783E-01
RMM:   4    -0.915779661520E+02    0.59822E-02   -0.13960E-02 32500   0.734E-01    0.207E-01
RMM:   5    -0.915781865237E+02   -0.22037E-03   -0.38941E-03 32537   0.234E-01    0.130E-01
RMM:   6    -0.915780850064E+02    0.10152E-03   -0.79597E-04 24213   0.146E-01
   2 F= -.98347592E+02 E0= -.98338531E+02  d E =-.432565E-02  mag=    -0.0000
       N       E                     dE             d eps       ncg     rms          rms(c)
DAV:   1    -0.915956794136E+02   -0.17493E-01   -0.43306E-01 36280   0.271E+00    0.950E-01
RMM:   2    -0.915828626253E+02    0.12817E-01   -0.23728E-02 34981   0.109E+00    0.649E-01
RMM:   3    -0.915806023894E+02    0.22602E-02   -0.20799E-02 32186   0.931E-01    0.529E-01
RMM:   4    -0.915779340948E+02    0.26683E-02   -0.65510E-03 32217   0.495E-01    0.146E-01
RMM:   5    -0.915780428605E+02   -0.10877E-03   -0.19852E-03 29702   0.164E-01
   3 F= -.98348075E+02 E0= -.98339184E+02  d E =-.480887E-02  mag=    -0.0000
       N       E                     dE             d eps       ncg     rms          rms(c)
DAV:   1    -0.915854356456E+02   -0.75016E-02   -0.43731E-01 33500   0.221E+00    0.621E-01
RMM:   2    -0.915817887963E+02    0.36468E-02   -0.27014E-02 34577   0.102E+00    0.438E-01
RMM:   3    -0.915813693109E+02    0.41949E-03   -0.14133E-02 33441   0.707E-01    0.331E-01
RMM:   4    -0.915804559533E+02    0.91336E-03   -0.42010E-03 30932   0.345E-01    0.964E-02
RMM:   5    -0.915805817471E+02   -0.12579E-03   -0.16186E-03 28746   0.141E-01
   4 F= -.98351085E+02 E0= -.98342210E+02  d E =-.300994E-02  mag=     0.0000
       N       E                     dE             d eps       ncg     rms          rms(c)
DAV:   1    -0.915819782364E+02   -0.15223E-02   -0.96659E-02 36860   0.104E+00    0.300E-01
RMM:   2    -0.915810949626E+02    0.88327E-03   -0.57828E-03 33245   0.474E-01    0.203E-01
RMM:   3    -0.915810217884E+02    0.73174E-04   -0.30952E-03 29595   0.335E-01    0.165E-01
RMM:   4    -0.915807981434E+02    0.22365E-03   -0.99171E-04 26297   0.179E-01    0.484E-02
RMM:   5    -0.915808303855E+02   -0.32242E-04   -0.37313E-04 19079   0.727E-02
   5 F= -.98351563E+02 E0= -.98342686E+02  d E =-.348760E-02  mag=     0.0000
       N       E                     dE             d eps       ncg     rms          rms(c)
DAV:   1    -0.915878572496E+02   -0.70591E-02   -0.16452E-01 35020   0.166E+00    0.575E-01
RMM:   2    -0.915826412682E+02    0.52160E-02   -0.67744E-03 34557   0.588E-01    0.298E-01
RMM:   3    -0.915822790368E+02    0.36223E-03   -0.61332E-03 32636   0.445E-01    0.321E-01
RMM:   4    -0.915813940615E+02    0.88498E-03   -0.23577E-03 28341   0.337E-01    0.608E-02
RMM:   5    -0.915814179495E+02   -0.23888E-04   -0.58771E-04 22223   0.883E-02
   6 F= -.98351987E+02 E0= -.98343024E+02  d E =-.424137E-03  mag=    -0.0000
       N       E                     dE             d eps       ncg     rms          rms(c)
DAV:   1    -0.915814906073E+02   -0.96546E-04   -0.17926E-03 38540   0.186E-01    0.664E-02
RMM:   2    -0.915814345870E+02    0.56020E-04   -0.10968E-04 16333   0.736E-02
   7 F= -.98351987E+02 E0= -.98342980E+02  d E =-.424426E-03  mag=    -0.0000
