 vasp.6.4.1 05Apr23 (build Jun 01 2023 13:46:15) complex                        
  
 executed on             LinuxIFC date 2023.12.16  22:19:50
 running   20 mpi-ranks, on    5 nodes
 distrk:  each k-point on   20 cores,    1 groups
 distr:  one band on NCORE=   1 cores,   20 groups


--------------------------------------------------------------------------------------------------------


 INCAR:
   ALGO = Fast
   EDIFF = 0.0002
   ENCUT = 550
   IBRION = 2
   ISIF = 4
   ISMEAR = 0
   ISPIN = 2
   IVDW = 13
   LASPH = True
   LMAXMIX = 4
   LORBIT = 11
   LREAL = Auto
   LWAVE = False
   MAGMOM = 1*2.562 2*-2.562 2*2.562 2*-2.562 1*2.562 8*0.0
   NELM = 100
   NSW = 99
   PREC = Accurate
   SIGMA = 0.05

 POTCAR:   PAW_PBE Fe_pv 06Sep2000                
 POTCAR:   PAW_PBE Se 06Sep2000                   
 -----------------------------------------------------------------------------
|                                                                             |
|           W    W    AA    RRRRR   N    N  II  N    N   GGGG   !!!           |
|           W    W   A  A   R    R  NN   N  II  NN   N  G    G  !!!           |
|           W    W  A    A  R    R  N N  N  II  N N  N  G       !!!           |
|           W WW W  AAAAAA  RRRRR   N  N N  II  N  N N  G  GGG   !            |
|           WW  WW  A    A  R   R   N   NN  II  N   NN  G    G                |
|           W    W  A    A  R    R  N    N  II  N    N   GGGG   !!!           |
|                                                                             |
|     For optimal performance we recommend to set                             |
|       NCORE = 2 up to number-of-cores-per-socket                            |
|     NCORE specifies how many cores store one orbital (NPAR=cpu/NCORE).      |
|     This setting can greatly improve the performance of VASP for DFT.       |
|     The default, NCORE=1 might be grossly inefficient on modern             |
|     multi-core architectures or massively parallel machines. Do your        |
|     own testing! More info at https://www.vasp.at/wiki/index.php/NCORE      |
|     Unfortunately you need to use the default for GW and RPA                |
|     calculations (for HF NCORE is supported but not extensively tested      |
|     yet).                                                                   |
|                                                                             |
 -----------------------------------------------------------------------------

 POTCAR:   PAW_PBE Fe_pv 06Sep2000                
   VRHFIN =Fe:  3pd7s1                                                                              
   LEXCH  = PE                                                                                      
   EATOM  =  2456.8974 eV,  180.5769 Ry                                                             
                                                                                                    
   TITEL  = PAW_PBE Fe_pv 06Sep2000                                                                 
   LULTRA =        F    use ultrasoft PP ?                                                          
   IUNSCR =        1    unscreen: 0-lin 1-nonlin 2-no                                               
   RPACOR =    1.750    partial core radius                                                         
   POMASS =   55.847; ZVAL   =   14.000    mass and valenz                                          
   RCORE  =    2.200    outmost cutoff radius                                                       
   RWIGS  =    2.200; RWIGS  =    1.164    wigner-seitz radius (au A)                               
   ENMAX  =  293.238; ENMIN  =  219.929 eV                                                          
   RCLOC  =    1.701    cutoff for local pot                                                        
   LCOR   =        T    correct aug charges                                                         
   LPAW   =        T    paw PP                                                                      
   EAUG   =  578.342                                                                                
   DEXC   =    -.002                                                                                
   RMAX   =    2.693    core radius for proj-oper                                                   
   RAUG   =    1.300    factor for augmentation sphere                                              
   RDEP   =    2.296    radius for radial grids                                                     
   QCUT   =   -4.642; QGAM   =    9.285    optimization parameters                                  
                                                                                                    
   Description                                                                                      
     l     E      TYP  RCUT    TYP  RCUT                                                            
     1   .000     23  2.000                                                                         
     1  -.400     23  2.000                                                                         
     2   .000     23  2.200                                                                         
     2   .000     23  2.200                                                                         
     0   .000     23  2.000                                                                         
     0  2.000     23  2.000                                                                         
     3   .000      7   .000                                                                         
  local pseudopotential read in
  partial core-charges read in
  atomic valenz-charges read in
  non local Contribution for L=           1  read in
    real space projection operators read in
  non local Contribution for L=           1  read in
    real space projection operators read in
  non local Contribution for L=           2  read in
    real space projection operators read in
  non local Contribution for L=           2  read in
    real space projection operators read in
  non local Contribution for L=           0  read in
    real space projection operators read in
  non local Contribution for L=           0  read in
    real space projection operators read in
    PAW grid and wavefunctions read in
 
   number of l-projection  operators is LMAX  =           6
   number of lm-projection operators is LMMAX =          18
 
 POTCAR:   PAW_PBE Se 06Sep2000                   
   VRHFIN =Se: s2p4                                                                                 
   LEXCH  = PE                                                                                      
   EATOM  =   256.9644 eV,   18.8864 Ry                                                             
                                                                                                    
   TITEL  = PAW_PBE Se 06Sep2000                                                                    
   LULTRA =        F    use ultrasoft PP ?                                                          
   IUNSCR =        1    unscreen: 0-lin 1-nonlin 2-no                                               
   RPACOR =    1.900    partial core radius                                                         
   POMASS =   78.960; ZVAL   =    6.000    mass and valenz                                          
   RCORE  =    2.100    outmost cutoff radius                                                       
   RWIGS  =    2.200; RWIGS  =    1.164    wigner-seitz radius (au A)                               
   ENMAX  =  211.534; ENMIN  =  158.651 eV                                                          
   ICORE  =        3    local potential                                                             
   LCOR   =        T    correct aug charges                                                         
   LPAW   =        T    paw PP                                                                      
   EAUG   =  446.842                                                                                
   DEXC   =    -.031                                                                                
   RMAX   =    3.170    core radius for proj-oper                                                   
   RAUG   =    1.300    factor for augmentation sphere                                              
   RDEP   =    2.177    radius for radial grids                                                     
   QCUT   =   -3.943; QGAM   =    7.886    optimization parameters                                  
                                                                                                    
   Description                                                                                      
     l     E      TYP  RCUT    TYP  RCUT                                                            
     0   .000     23  2.100                                                                         
     0   .000     23  2.100                                                                         
     1   .000     23  2.100                                                                         
     1   .000     23  2.100                                                                         
     2   .000     23  2.100                                                                         
     3  -.100      7  2.100                                                                         
  local pseudopotential read in
  partial core-charges read in
  atomic valenz-charges read in
  non local Contribution for L=           0  read in
    real space projection operators read in
  non local Contribution for L=           0  read in
    real space projection operators read in
  non local Contribution for L=           1  read in
    real space projection operators read in
  non local Contribution for L=           1  read in
    real space projection operators read in
  non local Contribution for L=           2  read in
    real space projection operators read in
    PAW grid and wavefunctions read in
 
   number of l-projection  operators is LMAX  =           5
   number of lm-projection operators is LMMAX =          13
 
 Optimization of the real space projectors (new method)

 maximal supplied QI-value         = 17.01
 optimisation between [QCUT,QGAM] = [ 11.91, 23.98] = [ 39.69,161.04] Ry 
 Optimized for a Real-space Cutoff    1.45 Angstroem

   l    n(q)    QCUT    max X(q) W(low)/X(q) W(high)/X(q)  e(spline) 
   1     10    11.905     4.550    0.27E-05    0.11E-05    0.28E-07
   1     10    11.905     5.234    0.10E-04    0.61E-04    0.17E-06
   2      9    11.905     3.960    0.19E-04    0.73E-05    0.50E-07
   2      9    11.905    29.565    0.24E-03    0.51E-04    0.27E-06
   0     10    11.905    23.582    0.17E-04    0.10E-05    0.14E-07
   0     10    11.905    39.747    0.23E-04    0.68E-05    0.74E-07
 Optimization of the real space projectors (new method)

 maximal supplied QI-value         = 17.95
 optimisation between [QCUT,QGAM] = [ 11.85, 23.88] = [ 39.31,159.64] Ry 
 Optimized for a Real-space Cutoff    1.18 Angstroem

   l    n(q)    QCUT    max X(q) W(low)/X(q) W(high)/X(q)  e(spline) 
   0      8    11.849     6.499    0.17E-04    0.94E-05    0.89E-08
   0      8    11.849    52.623    0.21E-03    0.78E-04    0.81E-07
   1      8    11.849     4.229    0.79E-04    0.83E-04    0.23E-07
   1      8    11.849    29.991    0.12E-03    0.43E-03    0.14E-06
   2      7    11.849     3.719    0.22E-03    0.64E-04    0.38E-07
 PAW_PBE Fe_pv 06Sep2000                :
 energy of atom  1       EATOM=-2456.8974
 kinetic energy error for atom=    0.0060 (will be added to EATOM!!)
 PAW_PBE Se 06Sep2000                   :
 energy of atom  2       EATOM= -256.9644
 kinetic energy error for atom=    0.0007 (will be added to EATOM!!)
 
 
 POSCAR: Fe8 Se8
  positions in direct lattice
  velocities in cartesian coordinates
 exchange correlation table for  LEXCH =        8
   RHO(1)=    0.500       N(1)  =     2000
   RHO(2)=  100.500       N(2)  =     4000
 


--------------------------------------------------------------------------------------------------------


 ion  position               nearest neighbor table
   1  0.000  0.000  0.000-  11 2.29  14 2.29   5 2.40   8 2.40
   2  0.000  0.500  0.000-  12 2.29  13 2.29   6 2.40   7 2.40
   3  0.500  0.000  0.000-   9 2.29  16 2.29   6 2.40   7 2.40
   4  0.500  0.500  0.000-  10 2.29  15 2.29   5 2.40   8 2.40
   5  0.250  0.250  0.000-   9 2.29  13 2.29   1 2.40   4 2.40
   6  0.250  0.750  0.000-  10 2.29  14 2.29   2 2.40   3 2.40
   7  0.750  0.250  0.000-  11 2.29  15 2.29   2 2.40   3 2.40
   8  0.750  0.750  0.000-  12 2.29  16 2.29   1 2.40   4 2.40
   9  0.375  0.125  0.684-   3 2.29   5 2.29
  10  0.375  0.625  0.684-   4 2.29   6 2.29
  11  0.875  0.125  0.684-   1 2.29   7 2.29
  12  0.875  0.625  0.684-   2 2.29   8 2.29
  13  0.125  0.375  0.316-   2 2.29   5 2.29
  14  0.125  0.875  0.316-   1 2.29   6 2.29
  15  0.625  0.375  0.316-   4 2.29   7 2.29
  16  0.625  0.875  0.316-   3 2.29   8 2.29
 
  LATTYP: Found a base centered orthorhombic cell.
 ALAT       =     9.5949097182
 B/A-ratio  =     1.1969518693
 C/A-ratio  =     0.5901810006
  
  Lattice vectors:
  
 A1 = (   4.7974548591,  -5.7423225612,   0.0000000000)
 A2 = (   4.7974548591,   5.7423225612,   0.0000000000)
 A3 = (   0.0000000000,   0.0000000000,   5.6627334185)


Analysis of symmetry for initial positions (statically):
=====================================================================
 Subroutine PRICEL returns following result:
 
  LATTYP: Found a base centered orthorhombic cell.
 ALAT       =     4.7974548591
 B/A-ratio  =     1.1969518693
 C/A-ratio  =     1.1803620013
  
  Lattice vectors:
  
 A1 = (   2.3987274295,  -2.8711612806,   0.0000000000)
 A2 = (   2.3987274295,   2.8711612806,   0.0000000000)
 A3 = (   0.0000000000,   0.0000000000,   5.6627334185)
 
   4 primitive cells build up your supercell.
 

 Routine SETGRP: Setting up the symmetry group for a 
 base centered orthorhombic supercell.


 Subroutine GETGRP returns: Found  8 space group operations
 (whereof  4 operations were pure point group operations)
 out of a pool of  8 trial point group operations.


The static configuration has the point symmetry C_2h.
 The point group associated with its full space group is D_2h.


Analysis of symmetry for dynamics (positions and initial velocities):
=====================================================================
 Subroutine PRICEL returns following result:
 
  LATTYP: Found a base centered orthorhombic cell.
 ALAT       =     4.7974548591
 B/A-ratio  =     1.1969518693
 C/A-ratio  =     1.1803620013
  
  Lattice vectors:
  
 A1 = (   2.3987274295,  -2.8711612806,   0.0000000000)
 A2 = (   2.3987274295,   2.8711612806,   0.0000000000)
 A3 = (   0.0000000000,   0.0000000000,   5.6627334185)
 
   4 primitive cells build up your supercell.
 

 Routine SETGRP: Setting up the symmetry group for a 
 base centered orthorhombic supercell.


 Subroutine GETGRP returns: Found  8 space group operations
 (whereof  4 operations were pure point group operations)
 out of a pool of  8 trial point group operations.


The dynamic configuration has the point symmetry C_2h.
 The point group associated with its full space group is D_2h.


Analysis of structural, dynamic, and magnetic symmetry:
=====================================================================
 Subroutine PRICEL returns following result:
 
  LATTYP: Found a base centered orthorhombic cell.
 ALAT       =     4.7974548591
 B/A-ratio  =     1.1969518693
 C/A-ratio  =     1.1803620013
  
  Lattice vectors:
  
 A1 = (   2.3987274295,  -2.8711612806,   0.0000000000)
 A2 = (   2.3987274295,   2.8711612806,   0.0000000000)
 A3 = (   0.0000000000,   0.0000000000,   5.6627334185)
 
   4 primitive cells build up your supercell.
 

 Routine SETGRP: Setting up the symmetry group for a 
 base centered orthorhombic supercell.


 Subroutine GETGRP returns: Found  8 space group operations
 (whereof  4 operations were pure point group operations)
 out of a pool of  8 trial point group operations.


The overall configuration has the point symmetry C_2h.
 The point group associated with its full space group is D_2h.


 Subroutine INISYM returns: Found  8 space group operations
 (whereof  4 operations are pure point group operations),
 and found     4 'primitive' translations


----------------------------------------------------------------------------------------

                                     Primitive cell                                     

  volume of cell :      78.0000

  direct lattice vectors                    reciprocal lattice vectors
     2.398727430 -2.871161281  0.000000000     0.208443858 -0.174145564  0.000000000
     2.398727430  2.871161281  0.000000000     0.208443858  0.174145564  0.000000000
     0.000000000  0.000000000  5.662733418     0.000000000  0.000000000  0.176593162

  length of vectors
     3.741318000  3.741318000  5.662733418     0.271616493  0.271616493  0.176593162

  position of ions in fractional coordinates (direct lattice)
     0.000000000  0.000000000  0.000000000
     0.500000000  0.500000000  0.000000000
     0.750000000  0.250000000  0.684151844
     0.250000000  0.750000000  0.315848156

  ion indices of the primitive-cell ions
   primitive index   ion index
                 1           1
                 2           5
                 3          11
                 4          14

----------------------------------------------------------------------------------------

 
 
 KPOINTS: KPOINTS                                 

Automatic generation of k-mesh.
 Grid dimensions read from file:
 generate k-points for:    7    7    9

 Generating k-lattice:

  Cartesian coordinates                     Fractional coordinates (reciprocal lattice)
     0.014888847 -0.012438969  0.000000000     0.142857143  0.000000000  0.000000000
     0.014888847  0.012438969  0.000000000     0.000000000  0.142857143  0.000000000
     0.000000000  0.000000000  0.019621462     0.000000000  0.000000000  0.111111111

  Length of vectors
     0.019401178  0.019401178  0.019621462

  Shift w.r.t. Gamma in fractional coordinates (k-lattice)
     0.000000000  0.000000000  0.000000000

 
 Subroutine IBZKPT returns following result:
 ===========================================
 
 Found     80 irreducible k-points:
 
 Following reciprocal coordinates:
            Coordinates               Weight
  0.000000  0.000000  0.000000      1.000000
  0.142857  0.000000  0.000000      4.000000
  0.285714  0.000000  0.000000      4.000000
  0.428571 -0.000000  0.000000      4.000000
  0.142857  0.142857  0.000000      2.000000
  0.285714  0.142857  0.000000      4.000000
  0.428571  0.142857  0.000000      4.000000
 -0.428571  0.142857  0.000000      4.000000
 -0.285714  0.142857  0.000000      4.000000
 -0.142857  0.142857  0.000000      2.000000
  0.285714  0.285714  0.000000      2.000000
  0.428571  0.285714  0.000000      4.000000
 -0.428571  0.285714  0.000000      4.000000
 -0.285714  0.285714  0.000000      2.000000
  0.428571  0.428571  0.000000      2.000000
 -0.428571  0.428571  0.000000      2.000000
  0.000000  0.000000  0.111111      2.000000
  0.142857  0.000000  0.111111      8.000000
  0.285714  0.000000  0.111111      8.000000
  0.428571 -0.000000  0.111111      8.000000
  0.142857  0.142857  0.111111      4.000000
  0.285714  0.142857  0.111111      8.000000
  0.428571  0.142857  0.111111      8.000000
 -0.428571  0.142857  0.111111      8.000000
 -0.285714  0.142857  0.111111      8.000000
 -0.142857  0.142857  0.111111      4.000000
  0.285714  0.285714  0.111111      4.000000
  0.428571  0.285714  0.111111      8.000000
 -0.428571  0.285714  0.111111      8.000000
 -0.285714  0.285714  0.111111      4.000000
  0.428571  0.428571  0.111111      4.000000
 -0.428571  0.428571  0.111111      4.000000
  0.000000  0.000000  0.222222      2.000000
  0.142857  0.000000  0.222222      8.000000
  0.285714  0.000000  0.222222      8.000000
  0.428571 -0.000000  0.222222      8.000000
  0.142857  0.142857  0.222222      4.000000
  0.285714  0.142857  0.222222      8.000000
  0.428571  0.142857  0.222222      8.000000
 -0.428571  0.142857  0.222222      8.000000
 -0.285714  0.142857  0.222222      8.000000
 -0.142857  0.142857  0.222222      4.000000
  0.285714  0.285714  0.222222      4.000000
  0.428571  0.285714  0.222222      8.000000
 -0.428571  0.285714  0.222222      8.000000
 -0.285714  0.285714  0.222222      4.000000
  0.428571  0.428571  0.222222      4.000000
 -0.428571  0.428571  0.222222      4.000000
  0.000000  0.000000  0.333333      2.000000
  0.142857  0.000000  0.333333      8.000000
  0.285714  0.000000  0.333333      8.000000
  0.428571 -0.000000  0.333333      8.000000
  0.142857  0.142857  0.333333      4.000000
  0.285714  0.142857  0.333333      8.000000
  0.428571  0.142857  0.333333      8.000000
 -0.428571  0.142857  0.333333      8.000000
 -0.285714  0.142857  0.333333      8.000000
 -0.142857  0.142857  0.333333      4.000000
  0.285714  0.285714  0.333333      4.000000
  0.428571  0.285714  0.333333      8.000000
 -0.428571  0.285714  0.333333      8.000000
 -0.285714  0.285714  0.333333      4.000000
  0.428571  0.428571  0.333333      4.000000
 -0.428571  0.428571  0.333333      4.000000
  0.000000  0.000000  0.444444      2.000000
  0.142857  0.000000  0.444444      8.000000
  0.285714  0.000000  0.444444      8.000000
  0.428571 -0.000000  0.444444      8.000000
  0.142857  0.142857  0.444444      4.000000
  0.285714  0.142857  0.444444      8.000000
  0.428571  0.142857  0.444444      8.000000
 -0.428571  0.142857  0.444444      8.000000
 -0.285714  0.142857  0.444444      8.000000
 -0.142857  0.142857  0.444444      4.000000
  0.285714  0.285714  0.444444      4.000000
  0.428571  0.285714  0.444444      8.000000
 -0.428571  0.285714  0.444444      8.000000
 -0.285714  0.285714  0.444444      4.000000
  0.428571  0.428571  0.444444      4.000000
 -0.428571  0.428571  0.444444      4.000000
 
 Following cartesian coordinates:
            Coordinates               Weight
  0.000000  0.000000  0.000000      1.000000
  0.014889 -0.012439  0.000000      4.000000
  0.029778 -0.024878  0.000000      4.000000
  0.044667 -0.037317  0.000000      4.000000
  0.029778  0.000000  0.000000      2.000000
  0.044667 -0.012439  0.000000      4.000000
  0.059555 -0.024878  0.000000      4.000000
 -0.029778  0.049756  0.000000      4.000000
 -0.014889  0.037317  0.000000      4.000000
  0.000000  0.024878  0.000000      2.000000
  0.059555 -0.000000  0.000000      2.000000
  0.074444 -0.012439  0.000000      4.000000
 -0.014889  0.062195  0.000000      4.000000
 -0.000000  0.049756  0.000000      2.000000
  0.089333  0.000000  0.000000      2.000000
  0.000000  0.074634  0.000000      2.000000
  0.000000  0.000000  0.019621      2.000000
  0.014889 -0.012439  0.019621      8.000000
  0.029778 -0.024878  0.019621      8.000000
  0.044667 -0.037317  0.019621      8.000000
  0.029778  0.000000  0.019621      4.000000
  0.044667 -0.012439  0.019621      8.000000
  0.059555 -0.024878  0.019621      8.000000
 -0.029778  0.049756  0.019621      8.000000
 -0.014889  0.037317  0.019621      8.000000
  0.000000  0.024878  0.019621      4.000000
  0.059555 -0.000000  0.019621      4.000000
  0.074444 -0.012439  0.019621      8.000000
 -0.014889  0.062195  0.019621      8.000000
 -0.000000  0.049756  0.019621      4.000000
  0.089333  0.000000  0.019621      4.000000
  0.000000  0.074634  0.019621      4.000000
  0.000000  0.000000  0.039243      2.000000
  0.014889 -0.012439  0.039243      8.000000
  0.029778 -0.024878  0.039243      8.000000
  0.044667 -0.037317  0.039243      8.000000
  0.029778  0.000000  0.039243      4.000000
  0.044667 -0.012439  0.039243      8.000000
  0.059555 -0.024878  0.039243      8.000000
 -0.029778  0.049756  0.039243      8.000000
 -0.014889  0.037317  0.039243      8.000000
  0.000000  0.024878  0.039243      4.000000
  0.059555 -0.000000  0.039243      4.000000
  0.074444 -0.012439  0.039243      8.000000
 -0.014889  0.062195  0.039243      8.000000
 -0.000000  0.049756  0.039243      4.000000
  0.089333  0.000000  0.039243      4.000000
  0.000000  0.074634  0.039243      4.000000
  0.000000  0.000000  0.058864      2.000000
  0.014889 -0.012439  0.058864      8.000000
  0.029778 -0.024878  0.058864      8.000000
  0.044667 -0.037317  0.058864      8.000000
  0.029778  0.000000  0.058864      4.000000
  0.044667 -0.012439  0.058864      8.000000
  0.059555 -0.024878  0.058864      8.000000
 -0.029778  0.049756  0.058864      8.000000
 -0.014889  0.037317  0.058864      8.000000
  0.000000  0.024878  0.058864      4.000000
  0.059555 -0.000000  0.058864      4.000000
  0.074444 -0.012439  0.058864      8.000000
 -0.014889  0.062195  0.058864      8.000000
 -0.000000  0.049756  0.058864      4.000000
  0.089333  0.000000  0.058864      4.000000
  0.000000  0.074634  0.058864      4.000000
  0.000000  0.000000  0.078486      2.000000
  0.014889 -0.012439  0.078486      8.000000
  0.029778 -0.024878  0.078486      8.000000
  0.044667 -0.037317  0.078486      8.000000
  0.029778  0.000000  0.078486      4.000000
  0.044667 -0.012439  0.078486      8.000000
  0.059555 -0.024878  0.078486      8.000000
 -0.029778  0.049756  0.078486      8.000000
 -0.014889  0.037317  0.078486      8.000000
  0.000000  0.024878  0.078486      4.000000
  0.059555 -0.000000  0.078486      4.000000
  0.074444 -0.012439  0.078486      8.000000
 -0.014889  0.062195  0.078486      8.000000
 -0.000000  0.049756  0.078486      4.000000
  0.089333  0.000000  0.078486      4.000000
  0.000000  0.074634  0.078486      4.000000
 


--------------------------------------------------------------------------------------------------------




 Dimension of arrays:
   k-points           NKPTS =     80   k-points in BZ     NKDIM =     80   number of bands    NBANDS=    100
   number of dos      NEDOS =    301   number of ions     NIONS =     16
   non local maximal  LDIM  =      6   non local SUM 2l+1 LMDIM =     18
   total plane-waves  NPLWV = 172800
   max r-space proj   IRMAX =   7092   max aug-charges    IRDMAX=  24350
   dimension x,y,z NGX =    60 NGY =   60 NGZ =   48
   dimension x,y,z NGXF=   120 NGYF=  120 NGZF=   96
   support grid    NGXF=   120 NGYF=  120 NGZF=   96
   ions per type =               8   8
   NGX,Y,Z   is equivalent  to a cutoff of  13.33, 13.33, 14.09 a.u.
   NGXF,Y,Z  is equivalent  to a cutoff of  26.66, 26.66, 28.18 a.u.

 SYSTEM =  unknown system                          
 POSCAR =  Fe8 Se8                                 

 Startparameter for this run:
   NWRITE =      2    write-flag & timer
   PREC   = accura    normal or accurate (medium, high low for compatibility)
   ISTART =      0    job   : 0-new  1-cont  2-samecut
   ICHARG =      2    charge: 1-file 2-atom 10-const
   ISPIN  =      2    spin polarized calculation?
   LNONCOLLINEAR =      F non collinear calculations
   LSORBIT =      F    spin-orbit coupling
   INIWAV =      1    electr: 0-lowe 1-rand  2-diag
   LASPH  =      T    aspherical Exc in radial PAW
 Electronic Relaxation 1
   ENCUT  =  550.0 eV  40.42 Ry    6.36 a.u.  14.31 14.31 10.83*2*pi/ulx,y,z
   ENINI  =  550.0     initial cutoff
   ENAUG  =  578.3 eV  augmentation charge cutoff
   NELM   =    100;   NELMIN=  2; NELMDL=  0     # of ELM steps 
   EDIFF  = 0.2E-03   stopping-criterion for ELM
   LREAL  =      T    real-space projection
   NLSPLINE    = F    spline interpolate recip. space projectors
   LCOMPAT=      F    compatible to vasp.4.4
   GGA_COMPAT  = T    GGA compatible to vasp.4.4-vasp.4.6
   LMAXPAW     = -100 max onsite density
   LMAXMIX     =    4 max onsite mixed and CHGCAR
   VOSKOWN=      0    Vosko Wilk Nusair interpolation
   ROPT   =   -0.00025  -0.00025
 Ionic relaxation
   EDIFFG = 0.2E-02   stopping-criterion for IOM
   NSW    =     99    number of steps for IOM
   NBLOCK =      1;   KBLOCK =     99    inner block; outer block 
   IBRION =      2    ionic relax: 0-MD 1-quasi-New 2-CG
   NFREE  =      1    steps in history (QN), initial steepest desc. (CG)
   ISIF   =      4    stress and relaxation
   IWAVPR =     11    prediction:  0-non 1-charg 2-wave 3-comb
   ISYM   =      2    0-nonsym 1-usesym 2-fastsym
   LCORR  =      T    Harris-Foulkes like correction to forces

   POTIM  = 0.5000    time-step for ionic-motion
   TEIN   =    0.0    initial temperature
   TEBEG  =    0.0;   TEEND  =   0.0 temperature during run
   SMASS  =  -3.00    Nose mass-parameter (am)
   estimated Nose-frequenzy (Omega)   =  0.10E-29 period in steps = 0.13E+47 mass=  -0.128E-26a.u.
   SCALEE = 1.0000    scale energy and forces
   NPACO  =    256;   APACO  = 10.0  distance and # of slots for P.C.
   PSTRESS=    0.0 pullay stress

  Mass of Ions in am
   POMASS =  55.85 78.96
  Ionic Valenz
   ZVAL   =  14.00  6.00
  Atomic Wigner-Seitz radii
   RWIGS  =  -1.00 -1.00
  virtual crystal weights 
   VCA    =   1.00  1.00
   NELECT =     160.0000    total number of electrons
   NUPDOWN=      -1.0000    fix difference up-down

 DOS related values:
   EMIN   =  10.00;   EMAX   =-10.00  energy-range for DOS
   EFERMI =   0.00;   METHOD = LEGACY      
   ISMEAR =     0;   SIGMA  =   0.05  broadening in eV -4-tet -1-fermi 0-gaus

 Electronic relaxation 2 (details)
   IALGO  =     68    algorithm
   LDIAG  =      T    sub-space diagonalisation (order eigenvalues)
   LSUBROT=      F    optimize rotation matrix (better conditioning)
   TURBO    =      0    0=normal 1=particle mesh
   IRESTART =      0    0=no restart 2=restart with 2 vectors
   NREBOOT  =      0    no. of reboots
   NMIN     =      0    reboot dimension
   EREF     =   0.00    reference energy to select bands
   IMIX   =      4    mixing-type and parameters
     AMIX     =   0.40;   BMIX     =  1.00
     AMIX_MAG =   1.60;   BMIX_MAG =  1.00
     AMIN     =   0.10
     WC   =   100.;   INIMIX=   1;  MIXPRE=   1;  MAXMIX= -45

 Intra band minimization:
   WEIMIN = 0.0010     energy-eigenvalue tresh-hold
   EBREAK =  0.50E-06  absolut break condition
   DEPER  =   0.30     relativ break condition  

   TIME   =   0.40     timestep for ELM

  volume/ion in A,a.u.               =      19.50       131.59
  Fermi-wavevector in a.u.,A,eV,Ry     =   1.310378  2.476256 23.362438  1.717091
  Thomas-Fermi vector in A             =   2.440912
 
 Write flags
   LWAVE        =      F    write WAVECAR
   LDOWNSAMPLE  =      F    k-point downsampling of WAVECAR
   LCHARG       =      T    write CHGCAR
   LVTOT        =      F    write LOCPOT, total local potential
   LVHAR        =      F    write LOCPOT, Hartree potential only
   LELF         =      F    write electronic localiz. function (ELF)
   LORBIT       =     11    0 simple, 1 ext, 2 COOP (PROOUT), +10 PAW based schemes


 Dipole corrections
   LMONO  =      F    monopole corrections only (constant potential shift)
   LDIPOL =      F    correct potential (dipole corrections)
   IDIPOL =      0    1-x, 2-y, 3-z, 4-all directions 
   EPSILON=  1.0000000 bulk dielectric constant

 Exchange correlation treatment:
   GGA     =    --    GGA type
   LEXCH   =     8    internal setting for exchange type
   LIBXC   =     F    Libxc                    
   VOSKOWN =     0    Vosko Wilk Nusair interpolation
   LHFCALC =     F    Hartree Fock is set to
   LHFONE  =     F    Hartree Fock one center treatment
   AEXX    =    0.0000 exact exchange contribution

 Linear response parameters
   LEPSILON=     F    determine dielectric tensor
   LRPA    =     F    only Hartree local field effects (RPA)
   LNABLA  =     F    use nabla operator in PAW spheres
   LVEL    =     F    velocity operator in full k-point grid
   CSHIFT  =0.1000    complex shift for real part using Kramers Kronig
   OMEGAMAX=  -1.0    maximum frequency
   DEG_THRESHOLD= 0.2000000E-02 threshold for treating states as degnerate
   RTIME   =   -0.100 relaxation time in fs
  (WPLASMAI=    0.000 imaginary part of plasma frequency in eV, 0.658/RTIME)
   DFIELD  = 0.0000000 0.0000000 0.0000000 field for delta impulse in time
 
  Optional k-point grid parameters
   LKPOINTS_OPT  =     F    use optional k-point grid
   KPOINTS_OPT_MODE=     1    mode for optional k-point grid
 
 Orbital magnetization related:
   ORBITALMAG=     F  switch on orbital magnetization
   LCHIMAG   =     F  perturbation theory with respect to B field
   DQ        =  0.001000  dq finite difference perturbation B field
   LLRAUG    =     F  two centre corrections for induced B field
   LBONE     =     F  B-component reconstruction in AE one-centre
   LVGVCALC  =     T  calculate vGv susceptibility
   LVGVAPPL  =     F  apply vGv susceptibility instead of pGv for G=0

 Random number generation:
   RANDOM_GENERATOR = DEFAULT
   PCG_SEED         = not used


--------------------------------------------------------------------------------------------------------


 conjugate gradient relaxation of ions
 charge density and potential will be updated during run
 spin polarized calculation
 RMM-DIIS sequential band-by-band and
  variant of blocked Davidson during initial phase
 perform sub-space diagonalisation
    before iterative eigenvector-optimisation
 modified Broyden-mixing scheme, WC =      100.0
 initial mixing is a Kerker type mixing with AMIX =  0.4000 and BMIX =      1.0000
 Hartree-type preconditioning will be used
 using additional bands           20
 real space projection scheme for non local part
 use partial core corrections
 calculate Harris-corrections to forces 
   (improved forces if not selfconsistent)
 use gradient corrections 
 use of overlap-Matrix (Vanderbilt PP)
 Gauss-broadening in eV      SIGMA  =   0.05


--------------------------------------------------------------------------------------------------------


  energy-cutoff  :      550.00
  volume of cell :      312.00
      direct lattice vectors                 reciprocal lattice vectors
     4.797454859 -5.742322561  0.000000000     0.104221929 -0.087072782  0.000000000
     4.797454859  5.742322561  0.000000000     0.104221929  0.087072782  0.000000000
     0.000000000  0.000000000  5.662733418     0.000000000  0.000000000  0.176593162

  length of vectors
     7.482636001  7.482636001  5.662733418     0.135808247  0.135808247  0.176593162


 
 k-points in units of 2pi/SCALE and weight: KPOINTS                                 
   0.00000000  0.00000000  0.00000000       0.002
   0.01488885 -0.01243897  0.00000000       0.009
   0.02977769 -0.02487794  0.00000000       0.009
   0.04466654 -0.03731691  0.00000000       0.009
   0.02977769 -0.00000000  0.00000000       0.005
   0.04466654 -0.01243897  0.00000000       0.009
   0.05955539 -0.02487794  0.00000000       0.009
  -0.02977769  0.04975588  0.00000000       0.009
  -0.01488885  0.03731691  0.00000000       0.009
  -0.00000000  0.02487794  0.00000000       0.005
   0.05955539  0.00000000  0.00000000       0.005
   0.07444424 -0.01243897  0.00000000       0.009
  -0.01488885  0.06219484  0.00000000       0.009
   0.00000000  0.04975588  0.00000000       0.005
   0.08933308 -0.00000000  0.00000000       0.005
   0.00000000  0.07463381  0.00000000       0.005
   0.00000000  0.00000000  0.01962146       0.005
   0.01488885 -0.01243897  0.01962146       0.018
   0.02977769 -0.02487794  0.01962146       0.018
   0.04466654 -0.03731691  0.01962146       0.018
   0.02977769 -0.00000000  0.01962146       0.009
   0.04466654 -0.01243897  0.01962146       0.018
   0.05955539 -0.02487794  0.01962146       0.018
  -0.02977769  0.04975588  0.01962146       0.018
  -0.01488885  0.03731691  0.01962146       0.018
  -0.00000000  0.02487794  0.01962146       0.009
   0.05955539  0.00000000  0.01962146       0.009
   0.07444424 -0.01243897  0.01962146       0.018
  -0.01488885  0.06219484  0.01962146       0.018
   0.00000000  0.04975588  0.01962146       0.009
   0.08933308 -0.00000000  0.01962146       0.009
   0.00000000  0.07463381  0.01962146       0.009
   0.00000000  0.00000000  0.03924292       0.005
   0.01488885 -0.01243897  0.03924292       0.018
   0.02977769 -0.02487794  0.03924292       0.018
   0.04466654 -0.03731691  0.03924292       0.018
   0.02977769 -0.00000000  0.03924292       0.009
   0.04466654 -0.01243897  0.03924292       0.018
   0.05955539 -0.02487794  0.03924292       0.018
  -0.02977769  0.04975588  0.03924292       0.018
  -0.01488885  0.03731691  0.03924292       0.018
  -0.00000000  0.02487794  0.03924292       0.009
   0.05955539  0.00000000  0.03924292       0.009
   0.07444424 -0.01243897  0.03924292       0.018
  -0.01488885  0.06219484  0.03924292       0.018
   0.00000000  0.04975588  0.03924292       0.009
   0.08933308 -0.00000000  0.03924292       0.009
   0.00000000  0.07463381  0.03924292       0.009
   0.00000000  0.00000000  0.05886439       0.005
   0.01488885 -0.01243897  0.05886439       0.018
   0.02977769 -0.02487794  0.05886439       0.018
   0.04466654 -0.03731691  0.05886439       0.018
   0.02977769 -0.00000000  0.05886439       0.009
   0.04466654 -0.01243897  0.05886439       0.018
   0.05955539 -0.02487794  0.05886439       0.018
  -0.02977769  0.04975588  0.05886439       0.018
  -0.01488885  0.03731691  0.05886439       0.018
  -0.00000000  0.02487794  0.05886439       0.009
   0.05955539  0.00000000  0.05886439       0.009
   0.07444424 -0.01243897  0.05886439       0.018
  -0.01488885  0.06219484  0.05886439       0.018
   0.00000000  0.04975588  0.05886439       0.009
   0.08933308 -0.00000000  0.05886439       0.009
   0.00000000  0.07463381  0.05886439       0.009
   0.00000000  0.00000000  0.07848585       0.005
   0.01488885 -0.01243897  0.07848585       0.018
   0.02977769 -0.02487794  0.07848585       0.018
   0.04466654 -0.03731691  0.07848585       0.018
   0.02977769 -0.00000000  0.07848585       0.009
   0.04466654 -0.01243897  0.07848585       0.018
   0.05955539 -0.02487794  0.07848585       0.018
  -0.02977769  0.04975588  0.07848585       0.018
  -0.01488885  0.03731691  0.07848585       0.018
  -0.00000000  0.02487794  0.07848585       0.009
   0.05955539  0.00000000  0.07848585       0.009
   0.07444424 -0.01243897  0.07848585       0.018
  -0.01488885  0.06219484  0.07848585       0.018
   0.00000000  0.04975588  0.07848585       0.009
   0.08933308 -0.00000000  0.07848585       0.009
   0.00000000  0.07463381  0.07848585       0.009
 
 k-points in reciprocal lattice and weights: KPOINTS                                 
   0.00000000  0.00000000  0.00000000       0.002
   0.14285714  0.00000000  0.00000000       0.009
   0.28571429  0.00000000  0.00000000       0.009
   0.42857143 -0.00000000  0.00000000       0.009
   0.14285714  0.14285714  0.00000000       0.005
   0.28571429  0.14285714  0.00000000       0.009
   0.42857143  0.14285714  0.00000000       0.009
  -0.42857143  0.14285714  0.00000000       0.009
  -0.28571429  0.14285714  0.00000000       0.009
  -0.14285714  0.14285714  0.00000000       0.005
   0.28571429  0.28571429  0.00000000       0.005
   0.42857143  0.28571429  0.00000000       0.009
  -0.42857143  0.28571429  0.00000000       0.009
  -0.28571429  0.28571429  0.00000000       0.005
   0.42857143  0.42857143  0.00000000       0.005
  -0.42857143  0.42857143  0.00000000       0.005
   0.00000000  0.00000000  0.11111111       0.005
   0.14285714  0.00000000  0.11111111       0.018
   0.28571429  0.00000000  0.11111111       0.018
   0.42857143 -0.00000000  0.11111111       0.018
   0.14285714  0.14285714  0.11111111       0.009
   0.28571429  0.14285714  0.11111111       0.018
   0.42857143  0.14285714  0.11111111       0.018
  -0.42857143  0.14285714  0.11111111       0.018
  -0.28571429  0.14285714  0.11111111       0.018
  -0.14285714  0.14285714  0.11111111       0.009
   0.28571429  0.28571429  0.11111111       0.009
   0.42857143  0.28571429  0.11111111       0.018
  -0.42857143  0.28571429  0.11111111       0.018
  -0.28571429  0.28571429  0.11111111       0.009
   0.42857143  0.42857143  0.11111111       0.009
  -0.42857143  0.42857143  0.11111111       0.009
   0.00000000  0.00000000  0.22222222       0.005
   0.14285714  0.00000000  0.22222222       0.018
   0.28571429  0.00000000  0.22222222       0.018
   0.42857143 -0.00000000  0.22222222       0.018
   0.14285714  0.14285714  0.22222222       0.009
   0.28571429  0.14285714  0.22222222       0.018
   0.42857143  0.14285714  0.22222222       0.018
  -0.42857143  0.14285714  0.22222222       0.018
  -0.28571429  0.14285714  0.22222222       0.018
  -0.14285714  0.14285714  0.22222222       0.009
   0.28571429  0.28571429  0.22222222       0.009
   0.42857143  0.28571429  0.22222222       0.018
  -0.42857143  0.28571429  0.22222222       0.018
  -0.28571429  0.28571429  0.22222222       0.009
   0.42857143  0.42857143  0.22222222       0.009
  -0.42857143  0.42857143  0.22222222       0.009
   0.00000000  0.00000000  0.33333333       0.005
   0.14285714  0.00000000  0.33333333       0.018
   0.28571429  0.00000000  0.33333333       0.018
   0.42857143 -0.00000000  0.33333333       0.018
   0.14285714  0.14285714  0.33333333       0.009
   0.28571429  0.14285714  0.33333333       0.018
   0.42857143  0.14285714  0.33333333       0.018
  -0.42857143  0.14285714  0.33333333       0.018
  -0.28571429  0.14285714  0.33333333       0.018
  -0.14285714  0.14285714  0.33333333       0.009
   0.28571429  0.28571429  0.33333333       0.009
   0.42857143  0.28571429  0.33333333       0.018
  -0.42857143  0.28571429  0.33333333       0.018
  -0.28571429  0.28571429  0.33333333       0.009
   0.42857143  0.42857143  0.33333333       0.009
  -0.42857143  0.42857143  0.33333333       0.009
   0.00000000  0.00000000  0.44444444       0.005
   0.14285714  0.00000000  0.44444444       0.018
   0.28571429  0.00000000  0.44444444       0.018
   0.42857143 -0.00000000  0.44444444       0.018
   0.14285714  0.14285714  0.44444444       0.009
   0.28571429  0.14285714  0.44444444       0.018
   0.42857143  0.14285714  0.44444444       0.018
  -0.42857143  0.14285714  0.44444444       0.018
  -0.28571429  0.14285714  0.44444444       0.018
  -0.14285714  0.14285714  0.44444444       0.009
   0.28571429  0.28571429  0.44444444       0.009
   0.42857143  0.28571429  0.44444444       0.018
  -0.42857143  0.28571429  0.44444444       0.018
  -0.28571429  0.28571429  0.44444444       0.009
   0.42857143  0.42857143  0.44444444       0.009
  -0.42857143  0.42857143  0.44444444       0.009
 
 position of ions in fractional coordinates (direct lattice) 
   0.00000000  0.00000000  0.00000000
   0.00000000  0.50000000  0.00000000
   0.50000000  0.00000000  0.00000000
   0.50000000  0.50000000  0.00000000
   0.25000000  0.25000000  0.00000000
   0.25000000  0.75000000  0.00000000
   0.75000000  0.25000000  0.00000000
   0.75000000  0.75000000  0.00000000
   0.37500000  0.12500000  0.68415184
   0.37500000  0.62500000  0.68415184
   0.87500000  0.12500000  0.68415184
   0.87500000  0.62500000  0.68415184
   0.12500000  0.37500000  0.31584816
   0.12500000  0.87500000  0.31584816
   0.62500000  0.37500000  0.31584816
   0.62500000  0.87500000  0.31584816
 
 position of ions in cartesian coordinates  (Angst):
   0.00000000  0.00000000  0.00000000
   2.39872743  2.87116128  0.00000000
   2.39872743 -2.87116128  0.00000000
   4.79745486  0.00000000  0.00000000
   2.39872743  0.00000000  0.00000000
   4.79745486  2.87116128  0.00000000
   4.79745486 -2.87116128  0.00000000
   7.19618229  0.00000000  0.00000000
   2.39872743 -1.43558064  3.87416951
   4.79745486  1.43558064  3.87416951
   4.79745486 -4.30674192  3.87416951
   7.19618229 -1.43558064  3.87416951
   2.39872743  1.43558064  1.78856391
   4.79745486  4.30674192  1.78856391
   4.79745486 -1.43558064  1.78856391
   7.19618229  1.43558064  1.78856391
 


--------------------------------------------------------------------------------------------------------


 k-point   1 :   0.0000 0.0000 0.0000  plane waves:    9139
 k-point   2 :   0.1429 0.0000 0.0000  plane waves:    9134
 k-point   3 :   0.2857 0.0000 0.0000  plane waves:    9118
 k-point   4 :   0.4286-0.0000 0.0000  plane waves:    9128
 k-point   5 :   0.1429 0.1429 0.0000  plane waves:    9133
 k-point   6 :   0.2857 0.1429 0.0000  plane waves:    9135
 k-point   7 :   0.4286 0.1429 0.0000  plane waves:    9143
 k-point   8 :  -0.4286 0.1429 0.0000  plane waves:    9125
 k-point   9 :  -0.2857 0.1429 0.0000  plane waves:    9146
 k-point  10 :  -0.1429 0.1429 0.0000  plane waves:    9142
 k-point  11 :   0.2857 0.2857 0.0000  plane waves:    9128
 k-point  12 :   0.4286 0.2857 0.0000  plane waves:    9150
 k-point  13 :  -0.4286 0.2857 0.0000  plane waves:    9145
 k-point  14 :  -0.2857 0.2857 0.0000  plane waves:    9134
 k-point  15 :   0.4286 0.4286 0.0000  plane waves:    9158
 k-point  16 :  -0.4286 0.4286 0.0000  plane waves:    9160
 k-point  17 :   0.0000 0.0000 0.1111  plane waves:    9149
 k-point  18 :   0.1429 0.0000 0.1111  plane waves:    9134
 k-point  19 :   0.2857 0.0000 0.1111  plane waves:    9130
 k-point  20 :   0.4286-0.0000 0.1111  plane waves:    9129
 k-point  21 :   0.1429 0.1429 0.1111  plane waves:    9108
 k-point  22 :   0.2857 0.1429 0.1111  plane waves:    9127
 k-point  23 :   0.4286 0.1429 0.1111  plane waves:    9135
 k-point  24 :  -0.4286 0.1429 0.1111  plane waves:    9137
 k-point  25 :  -0.2857 0.1429 0.1111  plane waves:    9132
 k-point  26 :  -0.1429 0.1429 0.1111  plane waves:    9127
 k-point  27 :   0.2857 0.2857 0.1111  plane waves:    9116
 k-point  28 :   0.4286 0.2857 0.1111  plane waves:    9140
 k-point  29 :  -0.4286 0.2857 0.1111  plane waves:    9142
 k-point  30 :  -0.2857 0.2857 0.1111  plane waves:    9142
 k-point  31 :   0.4286 0.4286 0.1111  plane waves:    9152
 k-point  32 :  -0.4286 0.4286 0.1111  plane waves:    9148
 k-point  33 :   0.0000 0.0000 0.2222  plane waves:    9132
 k-point  34 :   0.1429 0.0000 0.2222  plane waves:    9146
 k-point  35 :   0.2857 0.0000 0.2222  plane waves:    9151
 k-point  36 :   0.4286-0.0000 0.2222  plane waves:    9135
 k-point  37 :   0.1429 0.1429 0.2222  plane waves:    9129
 k-point  38 :   0.2857 0.1429 0.2222  plane waves:    9129
 k-point  39 :   0.4286 0.1429 0.2222  plane waves:    9131
 k-point  40 :  -0.4286 0.1429 0.2222  plane waves:    9134
 k-point  41 :  -0.2857 0.1429 0.2222  plane waves:    9133
 k-point  42 :  -0.1429 0.1429 0.2222  plane waves:    9150
 k-point  43 :   0.2857 0.2857 0.2222  plane waves:    9127
 k-point  44 :   0.4286 0.2857 0.2222  plane waves:    9135
 k-point  45 :  -0.4286 0.2857 0.2222  plane waves:    9127
 k-point  46 :  -0.2857 0.2857 0.2222  plane waves:    9127
 k-point  47 :   0.4286 0.4286 0.2222  plane waves:    9126
 k-point  48 :  -0.4286 0.4286 0.2222  plane waves:    9123
 k-point  49 :   0.0000 0.0000 0.3333  plane waves:    9172
 k-point  50 :   0.1429 0.0000 0.3333  plane waves:    9149
 k-point  51 :   0.2857 0.0000 0.3333  plane waves:    9146
 k-point  52 :   0.4286-0.0000 0.3333  plane waves:    9138
 k-point  53 :   0.1429 0.1429 0.3333  plane waves:    9149
 k-point  54 :   0.2857 0.1429 0.3333  plane waves:    9147
 k-point  55 :   0.4286 0.1429 0.3333  plane waves:    9137
 k-point  56 :  -0.4286 0.1429 0.3333  plane waves:    9152
 k-point  57 :  -0.2857 0.1429 0.3333  plane waves:    9151
 k-point  58 :  -0.1429 0.1429 0.3333  plane waves:    9146
 k-point  59 :   0.2857 0.2857 0.3333  plane waves:    9125
 k-point  60 :   0.4286 0.2857 0.3333  plane waves:    9120
 k-point  61 :  -0.4286 0.2857 0.3333  plane waves:    9135
 k-point  62 :  -0.2857 0.2857 0.3333  plane waves:    9120
 k-point  63 :   0.4286 0.4286 0.3333  plane waves:    9123
 k-point  64 :  -0.4286 0.4286 0.3333  plane waves:    9129
 k-point  65 :   0.0000 0.0000 0.4444  plane waves:    9132
 k-point  66 :   0.1429 0.0000 0.4444  plane waves:    9144
 k-point  67 :   0.2857 0.0000 0.4444  plane waves:    9146
 k-point  68 :   0.4286-0.0000 0.4444  plane waves:    9144
 k-point  69 :   0.1429 0.1429 0.4444  plane waves:    9161
 k-point  70 :   0.2857 0.1429 0.4444  plane waves:    9146
 k-point  71 :   0.4286 0.1429 0.4444  plane waves:    9160
 k-point  72 :  -0.4286 0.1429 0.4444  plane waves:    9158
 k-point  73 :  -0.2857 0.1429 0.4444  plane waves:    9152
 k-point  74 :  -0.1429 0.1429 0.4444  plane waves:    9156
 k-point  75 :   0.2857 0.2857 0.4444  plane waves:    9136
 k-point  76 :   0.4286 0.2857 0.4444  plane waves:    9131
 k-point  77 :  -0.4286 0.2857 0.4444  plane waves:    9130
 k-point  78 :  -0.2857 0.2857 0.4444  plane waves:    9164
 k-point  79 :   0.4286 0.4286 0.4444  plane waves:    9109
 k-point  80 :  -0.4286 0.4286 0.4444  plane waves:    9130

 maximum and minimum number of plane-waves per node :      9172     9108

 maximum number of plane-waves:      9172
 maximum index in each direction: 
   IXMAX=   14   IYMAX=   14   IZMAX=   10
   IXMIN=  -14   IYMIN=  -14   IZMIN=  -11


 serial   3D FFT for wavefunctions
 parallel 3D FFT for charge:
    minimum data exchange during FFTs selected (reduces bandwidth)


 total amount of memory used by VASP MPI-rank0   187855. kBytes
=======================================================================

   base      :      30000. kBytes
   nonlr-proj:      13882. kBytes
   fftplans  :       3084. kBytes
   grid      :      19560. kBytes
   one-center:        497. kBytes
   wavefun   :     120832. kBytes
 
     INWAV:  cpu time      0.0000: real time      0.0002
 Broyden mixing: mesh for mixing (old mesh)
   NGX = 29   NGY = 29   NGZ = 21
  (NGX  =120   NGY  =120   NGZ  = 96)
  gives a total of  17661 points

 initial charge density was supplied:
 charge density of overlapping atoms calculated
 number of electron     160.0000000 magnetization      -0.0000000
 keeping initial charge density in first step


--------------------------------------------------------------------------------------------------------


 Maximum index for non-local projection operator         6795
 Maximum index for augmentation-charges         1190 (set IRDMAX)


--------------------------------------------------------------------------------------------------------


 First call to EWALD:  gamma=   0.261
 Maximum number of real-space cells 3x 3x 3
 Maximum number of reciprocal cells 3x 3x 2

    FEWALD:  cpu time      0.0017: real time      0.0017


--------------------------------------- Ionic step        1  -------------------------------------------




--------------------------------------- Iteration      1(   1)  ---------------------------------------


    POTLOK:  cpu time      0.0686: real time      0.0847
    SETDIJ:  cpu time      0.2722: real time      0.2734
     EDDAV:  cpu time     29.6668: real time     29.8283
       DOS:  cpu time      0.0027: real time      0.0028
    --------------------------------------------
      LOOP:  cpu time     30.0102: real time     30.1893

 eigenvalue-minimisations  : 35220
 total energy-change (2. order) : 0.2013545E+04  (-0.8896338E+04)
 number of electron     160.0000000 magnetization      -0.0000000
 augmentation part      160.0000000 magnetization      -0.0000000

 Free energy of the ion-electron system (eV)
  ---------------------------------------------------
  alpha Z        PSCENC =       813.94738872
  Ewald energy   TEWEN  =    -11258.00370500
  -Hartree energ DENC   =     -9087.69572994
  -exchange      EXHF   =         0.00000000
  -V(xc)+E(xc)   XCENC  =       565.33675207
  PAW double counting   =     15528.22428955   -16124.01579397
  entropy T*S    EENTRO =        -0.00887750
  eigenvalues    EBANDS =      -135.08035851
  atomic energy  EATOM  =     21710.84102437
  Solvation  Ediel_sol  =         0.00000000
  ---------------------------------------------------
  free energy    TOTEN  =      2013.54498978 eV

  energy without entropy =     2013.55386729  energy(sigma->0) =     2013.54942854


--------------------------------------------------------------------------------------------------------




--------------------------------------- Iteration      1(   2)  ---------------------------------------


     EDDAV:  cpu time     27.8802: real time     28.0306
       DOS:  cpu time      0.0022: real time      0.0022
    --------------------------------------------
      LOOP:  cpu time     27.8825: real time     28.0328

 eigenvalue-minimisations  : 32000
 total energy-change (2. order) :-0.1892420E+04  (-0.1837923E+04)
 number of electron     160.0000000 magnetization      -0.0000000
 augmentation part      160.0000000 magnetization      -0.0000000

 Free energy of the ion-electron system (eV)
  ---------------------------------------------------
  alpha Z        PSCENC =       813.94738872
  Ewald energy   TEWEN  =    -11258.00370500
  -Hartree energ DENC   =     -9087.69572994
  -exchange      EXHF   =         0.00000000
  -V(xc)+E(xc)   XCENC  =       565.33675207
  PAW double counting   =     15528.22428955   -16124.01579397
  entropy T*S    EENTRO =        -0.01448203
  eigenvalues    EBANDS =     -2027.49458983
  atomic energy  EATOM  =     21710.84102437
  Solvation  Ediel_sol  =         0.00000000
  ---------------------------------------------------
  free energy    TOTEN  =       121.12515394 eV

  energy without entropy =      121.13963597  energy(sigma->0) =      121.13239495


--------------------------------------------------------------------------------------------------------




--------------------------------------- Iteration      1(   3)  ---------------------------------------


     EDDAV:  cpu time     36.7431: real time     36.9897
       DOS:  cpu time      0.0023: real time      0.0023
    --------------------------------------------
      LOOP:  cpu time     36.7454: real time     36.9920

 eigenvalue-minimisations  : 45740
 total energy-change (2. order) :-0.2060247E+03  (-0.1837611E+03)
 number of electron     160.0000000 magnetization      -0.0000000
 augmentation part      160.0000000 magnetization      -0.0000000

 Free energy of the ion-electron system (eV)
  ---------------------------------------------------
  alpha Z        PSCENC =       813.94738872
  Ewald energy   TEWEN  =    -11258.00370500
  -Hartree energ DENC   =     -9087.69572994
  -exchange      EXHF   =         0.00000000
  -V(xc)+E(xc)   XCENC  =       565.33675207
  PAW double counting   =     15528.22428955   -16124.01579397
  entropy T*S    EENTRO =        -0.02605401
  eigenvalues    EBANDS =     -2233.50774117
  atomic energy  EATOM  =     21710.84102437
  Solvation  Ediel_sol  =         0.00000000
  ---------------------------------------------------
  free energy    TOTEN  =       -84.89956938 eV

  energy without entropy =      -84.87351537  energy(sigma->0) =      -84.88654238


--------------------------------------------------------------------------------------------------------




--------------------------------------- Iteration      1(   4)  ---------------------------------------


     EDDAV:  cpu time     37.6152: real time     37.8149
       DOS:  cpu time      0.0022: real time      0.0022
    --------------------------------------------
      LOOP:  cpu time     37.6173: real time     37.8171

 eigenvalue-minimisations  : 46940
 total energy-change (2. order) :-0.1449397E+02  (-0.1416271E+02)
 number of electron     160.0000000 magnetization      -0.0000000
 augmentation part      160.0000000 magnetization      -0.0000000

 Free energy of the ion-electron system (eV)
  ---------------------------------------------------
  alpha Z        PSCENC =       813.94738872
  Ewald energy   TEWEN  =    -11258.00370500
  -Hartree energ DENC   =     -9087.69572994
  -exchange      EXHF   =         0.00000000
  -V(xc)+E(xc)   XCENC  =       565.33675207
  PAW double counting   =     15528.22428955   -16124.01579397
  entropy T*S    EENTRO =        -0.02810176
  eigenvalues    EBANDS =     -2247.99966004
  atomic energy  EATOM  =     21710.84102437
  Solvation  Ediel_sol  =         0.00000000
  ---------------------------------------------------
  free energy    TOTEN  =       -99.39353600 eV

  energy without entropy =      -99.36543424  energy(sigma->0) =      -99.37948512


--------------------------------------------------------------------------------------------------------




--------------------------------------- Iteration      1(   5)  ---------------------------------------


     EDDAV:  cpu time     36.0569: real time     36.3048
       DOS:  cpu time      0.0021: real time      0.0021
    CHARGE:  cpu time      1.0679: real time      1.0750
    MIXING:  cpu time      0.0016: real time      0.0017
    --------------------------------------------
      LOOP:  cpu time     37.1286: real time     37.3835

 eigenvalue-minimisations  : 44780
 total energy-change (2. order) :-0.3494941E+00  (-0.3486520E+00)
 number of electron     160.0000048 magnetization       0.0000000
 augmentation part       53.1412349 magnetization       0.0000000

 Broyden mixing:
  rms(total) = 0.27522E+01    rms(broyden)= 0.27519E+01
  rms(prec ) = 0.43191E+01
  weight for this iteration     100.00

 Free energy of the ion-electron system (eV)
  ---------------------------------------------------
  alpha Z        PSCENC =       813.94738872
  Ewald energy   TEWEN  =    -11258.00370500
  -Hartree energ DENC   =     -9087.69572994
  -exchange      EXHF   =         0.00000000
  -V(xc)+E(xc)   XCENC  =       565.33675207
  PAW double counting   =     15528.22428955   -16124.01579397
  entropy T*S    EENTRO =        -0.02808441
  eigenvalues    EBANDS =     -2248.34917146
  atomic energy  EATOM  =     21710.84102437
  Solvation  Ediel_sol  =         0.00000000
  ---------------------------------------------------
  free energy    TOTEN  =       -99.74303007 eV

  energy without entropy =      -99.71494567  energy(sigma->0) =      -99.72898787


--------------------------------------------------------------------------------------------------------




--------------------------------------- Iteration      1(   6)  ---------------------------------------


    POTLOK:  cpu time      0.0755: real time      0.0760
    SETDIJ:  cpu time      0.2730: real time      0.2741
    EDDIAG:  cpu time      4.6298: real time      4.6545
  RMM-DIIS:  cpu time     17.4921: real time     17.5791
    ORTHCH:  cpu time      0.5861: real time      0.5884
       DOS:  cpu time      0.0020: real time      0.0020
    CHARGE:  cpu time      1.1058: real time      1.1126
    MIXING:  cpu time      0.0016: real time      0.0016
    --------------------------------------------
      LOOP:  cpu time     24.1659: real time     24.2883

 eigenvalue-minimisations  : 32064
 total energy-change (2. order) :-0.1333156E+02  (-0.1695966E+02)
 number of electron     160.0000056 magnetization       0.0000000
 augmentation part       70.0803357 magnetization       0.0000000

 Broyden mixing:
  rms(total) = 0.52055E+01    rms(broyden)= 0.52053E+01
  rms(prec ) = 0.83381E+01
  weight for this iteration     100.00

 eigenvalues of (default mixing * dielectric matrix)
  average eigenvalue GAMMA=   0.3014
  0.3014

 Free energy of the ion-electron system (eV)
  ---------------------------------------------------
  alpha Z        PSCENC =       813.94738872
  Ewald energy   TEWEN  =    -11258.00370500
  -Hartree energ DENC   =     -8629.34142899
  -exchange      EXHF   =         0.00000000
  -V(xc)+E(xc)   XCENC  =       553.38492473
  PAW double counting   =     14988.71752667   -15552.77590879
  entropy T*S    EENTRO =        -0.02789218
  eigenvalues    EBANDS =     -2739.81652324
  atomic energy  EATOM  =     21710.84102437
  Solvation  Ediel_sol  =         0.00000000
  ---------------------------------------------------
  free energy    TOTEN  =      -113.07459371 eV

  energy without entropy =     -113.04670153  energy(sigma->0) =     -113.06064762


--------------------------------------------------------------------------------------------------------




--------------------------------------- Iteration      1(   7)  ---------------------------------------


    POTLOK:  cpu time      0.0761: real time      0.1400
    SETDIJ:  cpu time      0.2735: real time      0.2748
    EDDIAG:  cpu time      4.5195: real time      4.5427
  RMM-DIIS:  cpu time     16.3050: real time     16.3857
    ORTHCH:  cpu time      0.5879: real time      0.5906
       DOS:  cpu time      0.0021: real time      0.0021
    CHARGE:  cpu time      1.0389: real time      1.0447
    MIXING:  cpu time      0.0016: real time      0.0016
    --------------------------------------------
      LOOP:  cpu time     22.8046: real time     22.9823

 eigenvalue-minimisations  : 32009
 total energy-change (2. order) : 0.2215009E+02  (-0.4317771E+01)
 number of electron     160.0000050 magnetization      -0.0000000
 augmentation part       57.9028985 magnetization      -0.0000000

 Broyden mixing:
  rms(total) = 0.10814E+01    rms(broyden)= 0.10808E+01
  rms(prec ) = 0.12954E+01
  weight for this iteration     100.00

 eigenvalues of (default mixing * dielectric matrix)
  average eigenvalue GAMMA=   0.4412
  0.6159  0.2665

 Free energy of the ion-electron system (eV)
  ---------------------------------------------------
  alpha Z        PSCENC =       813.94738872
  Ewald energy   TEWEN  =    -11258.00370500
  -Hartree energ DENC   =     -8911.87881402
  -exchange      EXHF   =         0.00000000
  -V(xc)+E(xc)   XCENC  =       558.51404587
  PAW double counting   =     15481.90760016   -16079.07218716
  entropy T*S    EENTRO =        -0.03571344
  eigenvalues    EBANDS =     -2407.14414445
  atomic energy  EATOM  =     21710.84102437
  Solvation  Ediel_sol  =         0.00000000
  ---------------------------------------------------
  free energy    TOTEN  =       -90.92450494 eV

  energy without entropy =      -90.88879150  energy(sigma->0) =      -90.90664822


--------------------------------------------------------------------------------------------------------




--------------------------------------- Iteration      1(   8)  ---------------------------------------


    POTLOK:  cpu time      0.0656: real time      0.0662
    SETDIJ:  cpu time      0.2711: real time      0.2723
    EDDIAG:  cpu time      4.5486: real time      4.5722
  RMM-DIIS:  cpu time     21.9828: real time     22.0916
    ORTHCH:  cpu time      0.5868: real time      0.5893
       DOS:  cpu time      0.0022: real time      0.0022
    CHARGE:  cpu time      1.0916: real time      1.0968
    MIXING:  cpu time      0.0017: real time      0.0017
    --------------------------------------------
      LOOP:  cpu time     28.5505: real time     28.6922

 eigenvalue-minimisations  : 41190
 total energy-change (2. order) :-0.5523900E+00  (-0.2929259E+00)
 number of electron     160.0000050 magnetization      -0.0000000
 augmentation part       58.3895097 magnetization      -0.0000000

 Broyden mixing:
  rms(total) = 0.50270E+00    rms(broyden)= 0.50241E+00
  rms(prec ) = 0.66415E+00
  weight for this iteration     100.00

 eigenvalues of (default mixing * dielectric matrix)
  average eigenvalue GAMMA=   0.6594
  0.3086  0.8348  0.8348

 Free energy of the ion-electron system (eV)
  ---------------------------------------------------
  alpha Z        PSCENC =       813.94738872
  Ewald energy   TEWEN  =    -11258.00370500
  -Hartree energ DENC   =     -8900.35150688
  -exchange      EXHF   =         0.00000000
  -V(xc)+E(xc)   XCENC  =       558.95788435
  PAW double counting   =     15537.82948075   -16141.90404483
  entropy T*S    EENTRO =        -0.02886558
  eigenvalues    EBANDS =     -2412.76455082
  atomic energy  EATOM  =     21710.84102437
  Solvation  Ediel_sol  =         0.00000000
  ---------------------------------------------------
  free energy    TOTEN  =       -91.47689492 eV

  energy without entropy =      -91.44802935  energy(sigma->0) =      -91.46246213


--------------------------------------------------------------------------------------------------------




--------------------------------------- Iteration      1(   9)  ---------------------------------------


    POTLOK:  cpu time      0.7174: real time      0.7202
    SETDIJ:  cpu time      0.2704: real time      0.2714
    EDDIAG:  cpu time      4.5914: real time      4.6164
  RMM-DIIS:  cpu time     22.8620: real time     22.9775
    ORTHCH:  cpu time      0.5800: real time      0.5824
       DOS:  cpu time      0.0022: real time      0.0022
    CHARGE:  cpu time      0.9615: real time      0.9665
    MIXING:  cpu time      0.0017: real time      0.0017
    --------------------------------------------
      LOOP:  cpu time     29.9866: real time     30.1382

 eigenvalue-minimisations  : 44747
 total energy-change (2. order) :-0.7082777E-01  (-0.8515837E-01)
 number of electron     160.0000050 magnetization      -0.0000000
 augmentation part       58.7907318 magnetization      -0.0000000

 Broyden mixing:
  rms(total) = 0.26063E+00    rms(broyden)= 0.26018E+00
  rms(prec ) = 0.31926E+00
  weight for this iteration     100.00

 eigenvalues of (default mixing * dielectric matrix)
  average eigenvalue GAMMA=   0.8644
  1.2188  1.2188  0.3044  0.7155

 Free energy of the ion-electron system (eV)
  ---------------------------------------------------
  alpha Z        PSCENC =       813.94738872
  Ewald energy   TEWEN  =    -11258.00370500
  -Hartree energ DENC   =     -8884.37370705
  -exchange      EXHF   =         0.00000000
  -V(xc)+E(xc)   XCENC  =       559.15527882
  PAW double counting   =     15622.88802662   -16233.39537123
  entropy T*S    EENTRO =        -0.02062375
  eigenvalues    EBANDS =     -2422.58603418
  atomic energy  EATOM  =     21710.84102437
  Solvation  Ediel_sol  =         0.00000000
  ---------------------------------------------------
  free energy    TOTEN  =       -91.54772270 eV

  energy without entropy =      -91.52709895  energy(sigma->0) =      -91.53741082


--------------------------------------------------------------------------------------------------------




--------------------------------------- Iteration      1(  10)  ---------------------------------------


    POTLOK:  cpu time      0.0527: real time      0.1121
    SETDIJ:  cpu time      0.2693: real time      0.2703
    EDDIAG:  cpu time      4.4482: real time      4.4706
  RMM-DIIS:  cpu time     24.6358: real time     24.7592
    ORTHCH:  cpu time      0.5872: real time      0.5896
       DOS:  cpu time      0.0020: real time      0.0020
    CHARGE:  cpu time      1.0801: real time      1.0857
    MIXING:  cpu time      0.0018: real time      0.0018
    --------------------------------------------
      LOOP:  cpu time     31.0772: real time     31.2913

 eigenvalue-minimisations  : 46018
 total energy-change (2. order) :-0.1673361E-01  (-0.2688967E-01)
 number of electron     160.0000049 magnetization       0.0000000
 augmentation part       58.9771798 magnetization       0.0000000

 Broyden mixing:
  rms(total) = 0.13241E+00    rms(broyden)= 0.13216E+00
  rms(prec ) = 0.15103E+00
  weight for this iteration     100.00

 eigenvalues of (default mixing * dielectric matrix)
  average eigenvalue GAMMA=   1.0401
  2.0525  0.3046  1.2285  0.9036  0.7112

 Free energy of the ion-electron system (eV)
  ---------------------------------------------------
  alpha Z        PSCENC =       813.94738872
  Ewald energy   TEWEN  =    -11258.00370500
  -Hartree energ DENC   =     -8877.24164594
  -exchange      EXHF   =         0.00000000
  -V(xc)+E(xc)   XCENC  =       559.19378876
  PAW double counting   =     15686.44406629   -16301.08430846
  entropy T*S    EENTRO =        -0.01826680
  eigenvalues    EBANDS =     -2425.64279824
  atomic energy  EATOM  =     21710.84102437
  Solvation  Ediel_sol  =         0.00000000
  ---------------------------------------------------
  free energy    TOTEN  =       -91.56445630 eV

  energy without entropy =      -91.54618950  energy(sigma->0) =      -91.55532290


--------------------------------------------------------------------------------------------------------




--------------------------------------- Iteration      1(  11)  ---------------------------------------


    POTLOK:  cpu time      0.0629: real time      0.0634
    SETDIJ:  cpu time      0.2720: real time      0.2730
    EDDIAG:  cpu time      4.5673: real time      4.5925
  RMM-DIIS:  cpu time     22.3170: real time     22.4229
    ORTHCH:  cpu time      0.5632: real time      0.5655
       DOS:  cpu time      0.0022: real time      0.0022
    CHARGE:  cpu time      0.9981: real time      1.0028
    MIXING:  cpu time      0.0016: real time      0.0016
    --------------------------------------------
      LOOP:  cpu time     28.7842: real time     28.9239

 eigenvalue-minimisations  : 42755
 total energy-change (2. order) :-0.3586238E-02  (-0.5542880E-02)
 number of electron     160.0000049 magnetization      -0.0000000
 augmentation part       58.9677845 magnetization      -0.0000000

 Broyden mixing:
  rms(total) = 0.45624E-01    rms(broyden)= 0.45571E-01
  rms(prec ) = 0.48739E-01
  weight for this iteration     100.00

 eigenvalues of (default mixing * dielectric matrix)
  average eigenvalue GAMMA=   1.1019
  1.8997  1.8997  0.3045  0.9179  0.9179  0.6715

 Free energy of the ion-electron system (eV)
  ---------------------------------------------------
  alpha Z        PSCENC =       813.94738872
  Ewald energy   TEWEN  =    -11258.00370500
  -Hartree energ DENC   =     -8875.11455484
  -exchange      EXHF   =         0.00000000
  -V(xc)+E(xc)   XCENC  =       559.28716341
  PAW double counting   =     15735.16370766   -16352.33004785
  entropy T*S    EENTRO =        -0.01844654
  eigenvalues    EBANDS =     -2425.34057246
  atomic energy  EATOM  =     21710.84102437
  Solvation  Ediel_sol  =         0.00000000
  ---------------------------------------------------
  free energy    TOTEN  =       -91.56804254 eV

  energy without entropy =      -91.54959600  energy(sigma->0) =      -91.55881927


--------------------------------------------------------------------------------------------------------




--------------------------------------- Iteration      1(  12)  ---------------------------------------


    POTLOK:  cpu time      0.0533: real time      0.0964
    SETDIJ:  cpu time      0.2692: real time      0.2702
    EDDIAG:  cpu time      4.4411: real time      4.4630
  RMM-DIIS:  cpu time     23.1122: real time     23.2215
    ORTHCH:  cpu time      0.5876: real time      0.5901
       DOS:  cpu time      0.0021: real time      0.0021
    CHARGE:  cpu time      1.0810: real time      1.0865
    MIXING:  cpu time      0.0020: real time      0.0020
    --------------------------------------------
      LOOP:  cpu time     29.5484: real time     29.7317

 eigenvalue-minimisations  : 43342
 total energy-change (2. order) :-0.6384729E-02  (-0.1483605E-02)
 number of electron     160.0000049 magnetization      -0.0000000
 augmentation part       58.9764519 magnetization      -0.0000000

 Broyden mixing:
  rms(total) = 0.25718E-01    rms(broyden)= 0.25696E-01
  rms(prec ) = 0.30156E-01
  weight for this iteration     100.00

 eigenvalues of (default mixing * dielectric matrix)
  average eigenvalue GAMMA=   1.0824
  2.3425  0.3045  1.2622  1.2622  0.9765  0.7731  0.6557

 Free energy of the ion-electron system (eV)
  ---------------------------------------------------
  alpha Z        PSCENC =       813.94738872
  Ewald energy   TEWEN  =    -11258.00370500
  -Hartree energ DENC   =     -8875.12785786
  -exchange      EXHF   =         0.00000000
  -V(xc)+E(xc)   XCENC  =       559.29930323
  PAW double counting   =     15739.14656455   -16356.35589656
  entropy T*S    EENTRO =        -0.01898746
  eigenvalues    EBANDS =     -2425.30226126
  atomic energy  EATOM  =     21710.84102437
  Solvation  Ediel_sol  =         0.00000000
  ---------------------------------------------------
  free energy    TOTEN  =       -91.57442727 eV

  energy without entropy =      -91.55543981  energy(sigma->0) =      -91.56493354


--------------------------------------------------------------------------------------------------------




--------------------------------------- Iteration      1(  13)  ---------------------------------------


    POTLOK:  cpu time      0.0547: real time      0.0551
    SETDIJ:  cpu time      0.2718: real time      0.2727
    EDDIAG:  cpu time      4.5796: real time      4.6039
  RMM-DIIS:  cpu time     19.9700: real time     20.0643
    ORTHCH:  cpu time      0.5905: real time      0.5932
       DOS:  cpu time      0.0020: real time      0.0020
    CHARGE:  cpu time      1.0376: real time      1.0428
    MIXING:  cpu time      0.0021: real time      0.0021
    --------------------------------------------
      LOOP:  cpu time     26.5084: real time     26.6361

 eigenvalue-minimisations  : 36121
 total energy-change (2. order) :-0.7324847E-04  (-0.3463499E-03)
 number of electron     160.0000049 magnetization      -0.0000000
 augmentation part       58.9823815 magnetization      -0.0000000

 Broyden mixing:
  rms(total) = 0.12512E-01    rms(broyden)= 0.12500E-01
  rms(prec ) = 0.15039E-01
  weight for this iteration     100.00

 eigenvalues of (default mixing * dielectric matrix)
  average eigenvalue GAMMA=   1.1248
  2.6095  0.3045  1.3316  1.3316  1.2180  0.8325  0.7286  0.6424

 Free energy of the ion-electron system (eV)
  ---------------------------------------------------
  alpha Z        PSCENC =       813.94738872
  Ewald energy   TEWEN  =    -11258.00370500
  -Hartree energ DENC   =     -8875.09499152
  -exchange      EXHF   =         0.00000000
  -V(xc)+E(xc)   XCENC  =       559.32698140
  PAW double counting   =     15741.25099147   -16358.48426929
  entropy T*S    EENTRO =        -0.01884749
  eigenvalues    EBANDS =     -2425.33907317
  atomic energy  EATOM  =     21710.84102437
  Solvation  Ediel_sol  =         0.00000000
  ---------------------------------------------------
  free energy    TOTEN  =       -91.57450052 eV

  energy without entropy =      -91.55565303  energy(sigma->0) =      -91.56507677


--------------------------------------------------------------------------------------------------------




--------------------------------------- Iteration      1(  14)  ---------------------------------------


    POTLOK:  cpu time      0.0716: real time      0.0721
    SETDIJ:  cpu time      0.2722: real time      0.2733
    EDDIAG:  cpu time      4.5590: real time      4.5797
  RMM-DIIS:  cpu time     12.4785: real time     12.5414
    ORTHCH:  cpu time      0.5809: real time      0.5835
       DOS:  cpu time      0.0021: real time      0.0021
    --------------------------------------------
      LOOP:  cpu time     17.9642: real time     18.0521

 eigenvalue-minimisations  : 24292
 total energy-change (2. order) : 0.8879888E-05  (-0.1070888E-03)
 number of electron     160.0000049 magnetization      -0.0000000
 augmentation part       58.9823815 magnetization      -0.0000000

 Free energy of the ion-electron system (eV)
  ---------------------------------------------------
  alpha Z        PSCENC =       813.94738872
  Ewald energy   TEWEN  =    -11258.00370500
  -Hartree energ DENC   =     -8875.11438834
  -exchange      EXHF   =         0.00000000
  -V(xc)+E(xc)   XCENC  =       559.34089610
  PAW double counting   =     15742.42577619   -16359.61581000
  entropy T*S    EENTRO =        -0.01869818
  eigenvalues    EBANDS =     -2425.37697549
  atomic energy  EATOM  =     21710.84102437
  Solvation  Ediel_sol  =         0.00000000
  ---------------------------------------------------
  free energy    TOTEN  =       -91.57449164 eV

  energy without entropy =      -91.55579345  energy(sigma->0) =      -91.56514255


--------------------------------------------------------------------------------------------------------




 average (electrostatic) potential at core
  the test charge radii are     0.9500  1.0808
  (the norm of the test charge is              1.0000)
       1 -47.3814       2 -47.3814       3 -47.3814       4 -47.3814       5 -47.3814
       6 -47.3814       7 -47.3814       8 -47.3814       9 -54.9583      10 -54.9583
      11 -54.9583      12 -54.9583      13 -54.9583      14 -54.9583      15 -54.9583
      16 -54.9583
 
 
 
 E-fermi :   3.7893     XC(G=0): -10.4258     alpha+bet : -9.3261

 Fermi energy:         3.7893445343

 spin component 1

 k-point     1 :       0.0000    0.0000    0.0000
  band No.  band energies     occupation 
      1     -50.9991      1.00000
      2     -50.9894      1.00000
      3     -50.9894      1.00000
      4     -50.9830      1.00000
      5     -50.8776      1.00000
      6     -50.8351      1.00000
      7     -50.8285      1.00000
      8     -50.8285      1.00000
      9     -50.8189      1.00000
     10     -50.7044      1.00000
     11     -50.7044      1.00000
     12     -50.5282      1.00000
     13     -48.1845      1.00000
     14     -48.1823      1.00000
     15     -48.1823      1.00000
     16     -48.1819      1.00000
     17     -48.1725      1.00000
     18     -47.9808      1.00000
     19     -47.9808      1.00000
     20     -47.8396      1.00000
     21     -47.8396      1.00000
     22     -47.8394      1.00000
     23     -47.8370      1.00000
     24     -47.7855      1.00000
     25     -10.5011      1.00000
     26      -9.3514      1.00000
     27      -9.3514      1.00000
     28      -9.3361      1.00000
     29      -9.3361      1.00000
     30      -9.0963      1.00000
     31      -8.8833      1.00000
     32      -8.7708      1.00000
     33      -2.3451      1.00000
     34      -2.0269      1.00000
     35      -1.0605      1.00000
     36      -1.0605      1.00000
     37      -1.0328      1.00000
     38      -1.0328      1.00000
     39      -0.6748      1.00000
     40      -0.5646      1.00000
     41      -0.4894      1.00000
     42      -0.3650      1.00000
     43      -0.3650      1.00000
     44      -0.2400      1.00000
     45      -0.2187      1.00000
     46      -0.2187      1.00000
     47      -0.2138      1.00000
     48       0.0682      1.00000
     49       0.3168      1.00000
     50       0.3393      1.00000
     51       0.3393      1.00000
     52       0.7615      1.00000
     53       0.7615      1.00000
     54       0.9993      1.00000
     55       1.0140      1.00000
     56       1.1188      1.00000
     57       1.3603      1.00000
     58       1.3603      1.00000
     59       1.4235      1.00000
     60       1.4235      1.00000
     61       1.5187      1.00000
     62       1.5829      1.00000
     63       1.6923      1.00000
     64       1.7593      1.00000
     65       1.9409      1.00000
     66       1.9409      1.00000
     67       1.9791      1.00000
     68       2.1356      1.00000
     69       2.1894      1.00000
     70       2.3281      1.00000
     71       2.3281      1.00000
     72       2.5103      1.00000
     73       3.0350      1.00000
     74       3.0476      1.00000
     75       3.0476      1.00000
     76       3.1102      1.00000
     77       3.1102      1.00000
     78       3.5388      1.00000
     79       3.5707      1.00000
     80       3.5987      1.00000
     81       3.6851      0.99840
     82       4.2407      0.00000
     83       4.2407      0.00000
     84       4.2905      0.00000
     85       4.2906      0.00000
     86       4.3240      0.00000
     87       4.3870      0.00000
     88       4.6214      0.00000
     89       4.6215      0.00000
     90       4.6257      0.00000
     91       4.6258      0.00000
     92       4.7165      0.00000
[...]
         0         1         2         3         4         5         6         7         8         9
 total charge-density along one line
 
 soft charge-density along one line, spin component           2
         0         1         2         3         4         5         6         7         8         9
 total charge-density along one line
 
 pseudopotential strength for first ion, spin component:           1
-55.195   0.044   0.000  28.366  -0.036  -0.000   0.000   0.000
  0.044 -55.256  -0.000  -0.036  28.412   0.000  -0.000  -0.000
  0.000  -0.000 -55.083  -0.000   0.000  28.277  -0.000  -0.000
 28.366  -0.036  -0.000 -10.128   0.026   0.000  -0.000  -0.000
 -0.036  28.412   0.000   0.026 -10.160  -0.000   0.000   0.000
 -0.000   0.000  28.277   0.000  -0.000 -10.068   0.000   0.000
  0.000  -0.000  -0.000  -0.000   0.000   0.000  -8.906  -0.000
  0.000  -0.000  -0.000  -0.000   0.000   0.000  -0.000  -8.707
  0.000   0.000  -0.000  -0.000  -0.000   0.000  -0.000  -0.022
 -0.000   0.000   0.000   0.000  -0.000  -0.000  -0.034   0.000
  0.000   0.000   0.000  -0.000  -0.000  -0.000  -0.000  -0.098
 -0.000   0.000   0.000   0.000  -0.000  -0.000  -0.065   0.000
 -0.000   0.000   0.000   0.000  -0.000  -0.000   0.000  -0.113
 -0.000  -0.000   0.000   0.000   0.000  -0.000   0.000   0.005
  0.000  -0.000  -0.000  -0.000   0.000   0.000   0.007  -0.000
 -0.000  -0.000  -0.000   0.000   0.000   0.000   0.000   0.023
  0.000  -0.000  -0.000  -0.000   0.000   0.000  -0.000  -0.011
 -0.000   0.000   0.000   0.000  -0.000  -0.000   0.000   0.002
 pseudopotential strength for first ion, spin component:           2
-53.022   0.102   0.000  26.705  -0.073  -0.000   0.000   0.000
  0.102 -53.041  -0.000  -0.073  26.717   0.000  -0.000  -0.000
  0.000  -0.000 -53.004  -0.000   0.000  26.684  -0.000  -0.000
 26.705  -0.073  -0.000  -8.953   0.055   0.000  -0.000  -0.000
 -0.073  26.717   0.000   0.055  -8.963  -0.000   0.000   0.000
 -0.000   0.000  26.684   0.000  -0.000  -8.941   0.000   0.000
  0.000  -0.000  -0.000  -0.000   0.000   0.000  -6.766  -0.000
  0.000  -0.000  -0.000  -0.000   0.000   0.000  -0.000  -7.140
  0.000   0.000  -0.000  -0.000  -0.000   0.000  -0.000   0.091
 -0.000   0.000   0.000   0.000  -0.000  -0.000   0.115   0.000
  0.000   0.000   0.000  -0.000  -0.000  -0.000  -0.000   0.015
 -0.000   0.000   0.000   0.000  -0.000  -0.000  -0.564   0.000
 -0.000   0.000   0.000   0.000  -0.000  -0.000   0.000  -0.477
 -0.000  -0.000   0.000   0.000   0.000  -0.000   0.000  -0.020
  0.000  -0.000  -0.000  -0.000   0.000   0.000  -0.025  -0.000
 -0.000  -0.000  -0.000   0.000   0.000   0.000   0.000  -0.005
  0.000  -0.000  -0.000  -0.000   0.000   0.000  -0.000  -0.012
 -0.000   0.000   0.000   0.000  -0.000  -0.000   0.000   0.003
 total augmentation occupancy for first ion, spin component:           1
  2.009  -0.019   0.000   0.056  -0.046  -0.000  -0.000   0.000  -0.000   0.000   0.000   0.000  -0.000   0.000  -0.000   0.000
 -0.019   2.013   0.000  -0.046   0.064  -0.000   0.000   0.000   0.000   0.000  -0.000  -0.000   0.000   0.000   0.000  -0.000
 -0.000   0.000   2.009  -0.000  -0.000   0.051   0.000  -0.000   0.000   0.000  -0.000   0.000   0.000   0.000   0.000  -0.000
  0.056  -0.046   0.000   0.193  -0.111   0.000   0.000   0.000   0.000  -0.000   0.000   0.000  -0.000  -0.000   0.000  -0.000
 -0.046   0.064   0.000  -0.111   0.214   0.000   0.000  -0.000   0.000  -0.000   0.000  -0.000   0.000   0.000  -0.000  -0.000
 -0.000  -0.000   0.051  -0.000   0.000   0.175  -0.000  -0.000   0.000  -0.000   0.000   0.000   0.000   0.000   0.000   0.000
 -0.000   0.000   0.000   0.000   0.000   0.000   1.243   0.000  -0.000  -0.098   0.000  -0.077  -0.000  -0.000  -0.056  -0.000
  0.000  -0.000  -0.000   0.000  -0.000  -0.000   0.000   1.469  -0.005   0.000  -0.093   0.000   0.086  -0.139  -0.000   0.099
  0.000   0.000   0.000   0.000  -0.000   0.000  -0.000  -0.005   1.299   0.000  -0.162   0.000  -0.141   0.048  -0.000  -0.086
  0.000   0.000   0.000  -0.000  -0.000  -0.000  -0.098  -0.000  -0.000   1.231  -0.000  -0.058   0.000  -0.000  -0.053  -0.000
  0.000   0.000  -0.000  -0.000   0.000   0.000  -0.000  -0.093  -0.162  -0.000   1.504   0.000   0.104  -0.084   0.000   0.142
  0.000  -0.000  -0.000   0.000  -0.000   0.000  -0.077   0.000  -0.000  -0.058  -0.000   0.162   0.000   0.000  -0.027  -0.000
  0.000   0.000   0.000  -0.000   0.000   0.000  -0.000   0.086  -0.141  -0.000   0.104  -0.000   0.246  -0.070   0.000   0.090
  0.000   0.000   0.000   0.000   0.000   0.000  -0.000  -0.139   0.048   0.000  -0.084   0.000  -0.070   0.167  -0.000  -0.011
 -0.000   0.000   0.000   0.000  -0.000  -0.000  -0.056  -0.000  -0.000  -0.053  -0.000  -0.027  -0.000  -0.000   0.158   0.000
  0.000   0.000  -0.000  -0.000  -0.000   0.000  -0.000   0.099  -0.086   0.000   0.142  -0.000   0.090  -0.011   0.000   0.138
 -0.000   0.000   0.000   0.000   0.000   0.000  -0.000  -0.011  -0.035   0.000   0.091   0.000  -0.328   0.030  -0.000  -0.009
  0.000  -0.000   0.000   0.000   0.000   0.000  -0.000   0.004   0.021   0.000  -0.017  -0.000   0.021  -0.005  -0.000   0.004
 total augmentation occupancy for first ion, spin component:           2
 -0.006   0.000   0.000  -0.002  -0.000  -0.000   0.000   0.000   0.000   0.000   0.000   0.000   0.000  -0.000  -0.000  -0.000
  0.000  -0.008   0.000  -0.000  -0.008   0.000   0.000   0.000   0.000  -0.000   0.000   0.000  -0.000   0.000  -0.000   0.000
 -0.000   0.000  -0.008  -0.000   0.000  -0.006   0.000   0.000   0.000  -0.000  -0.000   0.000   0.000   0.000   0.000   0.000
 -0.002  -0.000   0.000   0.014  -0.002   0.000   0.000   0.000  -0.000   0.000   0.000  -0.000  -0.000  -0.000  -0.000  -0.000
 -0.000  -0.008   0.000  -0.002   0.002  -0.000  -0.000  -0.000   0.000  -0.000   0.000  -0.000  -0.000   0.000   0.000   0.000
  0.000  -0.000  -0.006   0.000   0.000   0.010   0.000  -0.000  -0.000   0.000   0.000  -0.000   0.000   0.000   0.000  -0.000
  0.000   0.000  -0.000   0.000  -0.000  -0.000   0.710  -0.000   0.000   0.116   0.000  -0.272  -0.000  -0.000   0.007   0.000
  0.000  -0.000   0.000   0.000   0.000  -0.000   0.000   0.378   0.094  -0.000   0.041   0.000  -0.201  -0.004   0.000  -0.032
 -0.000   0.000   0.000   0.000  -0.000  -0.000   0.000   0.094   0.553   0.000   0.209   0.000  -0.004  -0.221   0.000  -0.029
  0.000  -0.000   0.000   0.000  -0.000  -0.000   0.116  -0.000   0.000   0.696  -0.000   0.009   0.000  -0.000  -0.268  -0.000
 -0.000  -0.000  -0.000   0.000  -0.000   0.000   0.000   0.041   0.209  -0.000   0.257   0.000  -0.018  -0.024  -0.000  -0.156
  0.000   0.000  -0.000  -0.000  -0.000  -0.000  -0.272  -0.000   0.000   0.009   0.000   0.055  -0.000  -0.000   0.006   0.000
 -0.000  -0.000   0.000   0.000   0.000   0.000  -0.000  -0.201  -0.004   0.000  -0.018   0.000   0.008   0.024   0.000  -0.002
 -0.000  -0.000   0.000   0.000  -0.000   0.000  -0.000  -0.004  -0.221  -0.000  -0.024  -0.000   0.024   0.015   0.000   0.011
 -0.000  -0.000   0.000  -0.000   0.000   0.000   0.007   0.000  -0.000  -0.268  -0.000   0.006  -0.000   0.000   0.040  -0.000
 -0.000   0.000   0.000   0.000   0.000  -0.000   0.000  -0.032  -0.029   0.000  -0.156  -0.000  -0.002   0.011  -0.000  -0.011
  0.000   0.000   0.000  -0.000  -0.000   0.000   0.000   0.127   0.021  -0.000  -0.049  -0.000  -0.035   0.004   0.000  -0.026
  0.000   0.000   0.000   0.000   0.000   0.000  -0.000   0.015   0.019   0.000  -0.020  -0.000  -0.004  -0.002   0.000   0.000


------------------------ aborting loop because EDIFF is reached ----------------------------------------





 total charge

# of ion       s       p       d       tot
------------------------------------------
    1        0.341   6.294   6.066  12.701
    2        0.341   6.294   6.066  12.701
    3        0.341   6.294   6.066  12.701
    4        0.341   6.294   6.066  12.701
    5        0.341   6.294   6.066  12.701
    6        0.341   6.294   6.066  12.701
    7        0.341   6.294   6.066  12.701
    8        0.341   6.294   6.066  12.701
    9        1.489   2.264   0.053   3.805
   10        1.489   2.264   0.053   3.805
   11        1.489   2.264   0.053   3.805
   12        1.489   2.264   0.053   3.805
   13        1.489   2.264   0.053   3.805
   14        1.489   2.264   0.053   3.805
   15        1.489   2.264   0.053   3.805
   16        1.489   2.264   0.053   3.805
--------------------------------------------------
tot         14.642  68.458  48.950 132.050



 magnetization (x)

# of ion       s       p       d       tot
------------------------------------------
    1        0.028   0.013   2.531   2.572
    2       -0.028  -0.013  -2.531  -2.572
    3       -0.028  -0.013  -2.531  -2.572
    4        0.028   0.013   2.531   2.572
    5        0.028   0.013   2.531   2.572
    6       -0.028  -0.013  -2.531  -2.572
    7       -0.028  -0.013  -2.531  -2.572
    8        0.028   0.013   2.531   2.572
    9        0.000   0.000   0.000   0.000
   10        0.000   0.000   0.000   0.000
   11        0.000   0.000   0.000   0.000
   12        0.000   0.000   0.000   0.000
   13        0.000   0.000   0.000   0.000
   14        0.000   0.000   0.000   0.000
   15        0.000   0.000   0.000   0.000
   16        0.000   0.000   0.000   0.000
--------------------------------------------------
tot          0.000   0.000   0.000   0.000
 
    CHARGE:  cpu time      1.0266: real time      1.0311
    FORLOC:  cpu time      0.0030: real time      0.0031
    FORNL :  cpu time      6.7537: real time      6.7827
    STRESS:  cpu time     20.7775: real time     20.8616
    FORCOR:  cpu time      0.0488: real time      0.0490
    FORHAR:  cpu time      0.0066: real time      0.0066
    MIXING:  cpu time      0.0014: real time      0.0014
    OFIELD:  cpu time      0.0000: real time      0.0000
    FORVDW:  cpu time      0.7911: real time      0.7942

  FORCE on cell =-STRESS in cart. coord.  units (eV):
  Direction    XX          YY          ZZ          XY          YZ          ZX
  --------------------------------------------------------------------------------------
  Alpha Z   813.94739   813.94739   813.94739
  Ewald   -1091.32995 -1903.54544 -8333.11814     0.00000     0.00000    -0.00000
  Hartree  5386.10488  4629.40065 -1209.43527     0.00000     0.00000    -0.00000
  E(xc)    -896.73515  -898.82042  -897.98609     0.00000     0.00000    -0.00000
  Local   -6164.47690 -4598.88388  7692.87347     0.00000     0.00000    -0.00000
  n-local  -275.88291  -248.14051  -240.60783    -0.83754    -0.28886    -0.78592
  augment   530.53312   515.89969   513.69067     0.00000    -0.00000     0.00000
  Kinetic  1701.36721  1694.39451  1664.56113     3.68705    -0.32163     0.25510
  Fock        0.00000     0.00000     0.00000     0.00000     0.00000     0.00000
  vdW        -6.28132    -6.35026    -6.57580    -0.00000    -0.00000     0.00000
  -------------------------------------------------------------------------------------
  Total      -2.75365    -2.09827    -2.65048     0.00000     0.00000     0.00000
  in kB     -14.14047   -10.77501   -13.61072     0.00000     0.00000     0.00000
  external pressure =      -12.84 kB  Pullay stress =        0.00 kB


 VOLUME and BASIS-vectors are now :
 -----------------------------------------------------------------------------
  energy-cutoff  :      550.00
  volume of cell :      312.00
      direct lattice vectors                 reciprocal lattice vectors
     4.829562767 -5.732280455  0.000000000     0.103529041 -0.087225321  0.000000000
     4.829562767  5.732280455 -0.000000000     0.103529041  0.087225321 -0.000000000
     0.000000000  0.000000000  5.634940742     0.000000000  0.000000000  0.177464155

  length of vectors
     7.495579746  7.495579746  5.634940742     0.135375473  0.135375473  0.177464155


 FORCES acting on ions
    electron-ion (+dipol)            ewald-force                    non-local-force                 convergence-correction
 -----------------------------------------------------------------------------------------------
   0.633E-13 -.132E-12 -.212E-13   0.178E-12 0.107E-13 0.711E-14   0.735E-24 -.473E-22 -.151E-23   0.159E-11 0.209E-11 -.213E-11
   0.776E-12 0.736E-12 0.921E-16   0.180E-12 0.355E-14 -.293E-13   -.170E-22 -.153E-21 0.261E-23   -.645E-12 -.434E-12 0.205E-11
   0.595E-12 -.152E-11 -.118E-10   0.192E-12 0.000E+00 -.142E-13   0.435E-22 0.100E-21 0.305E-24   0.109E-11 -.961E-12 0.763E-12
   -.504E-11 -.960E-11 -.885E-11   0.185E-12 0.711E-14 -.213E-13   -.454E-23 -.586E-24 0.234E-22   0.799E-12 -.139E-11 0.123E-11
   -.266E-11 -.399E-11 -.375E-11   -.174E-12 0.711E-14 0.977E-14   0.101E-23 0.841E-23 0.412E-22   -.384E-12 -.433E-13 -.176E-12
   0.435E-11 0.572E-11 -.438E-11   -.163E-12 0.213E-13 0.249E-13   -.822E-22 -.986E-22 -.918E-23   0.493E-12 0.598E-13 0.376E-13
   -.147E-10 -.293E-10 0.369E-10   -.178E-12 -.355E-14 0.000E+00   -.170E-24 0.814E-22 -.107E-22   -.640E-12 -.508E-12 0.238E-11
   0.850E-12 -.624E-11 0.350E-10   -.170E-12 0.284E-13 0.568E-13   0.252E-22 0.253E-22 -.441E-23   -.134E-11 0.204E-11 0.851E-13
   0.345E-07 0.240E-11 0.323E+03   0.113E-13 0.000E+00 -.324E+03   -.192E-17 0.910E-17 0.111E+01   -.374E-12 0.241E-12 0.105E-01
   0.345E-07 0.107E-11 0.323E+03   0.142E-13 -.294E-14 -.324E+03   0.159E-17 -.455E-18 0.111E+01   -.278E-12 0.905E-13 0.105E-01
   0.345E-07 -.134E-11 0.323E+03   0.142E-13 -.394E-15 -.324E+03   -.189E-17 -.477E-17 0.111E+01   0.615E-13 -.564E-12 0.105E-01
   0.345E-07 -.195E-12 0.323E+03   0.173E-13 -.355E-14 -.324E+03   0.688E-18 0.559E-17 0.111E+01   0.567E-12 0.197E-12 0.105E-01
   -.345E-07 -.622E-12 -.323E+03   -.196E-13 -.594E-14 0.324E+03   -.156E-17 -.176E-18 -.111E+01   0.105E-12 0.364E-12 -.105E-01
   -.345E-07 -.190E-12 -.323E+03   -.284E-13 -.673E-14 0.324E+03   -.313E-17 -.369E-17 -.111E+01   -.132E-12 -.273E-12 -.105E-01
   -.345E-07 -.201E-11 -.323E+03   -.215E-13 -.254E-13 0.324E+03   0.124E-17 -.663E-18 -.111E+01   0.223E-12 -.132E-12 -.105E-01
   -.345E-07 0.153E-11 -.323E+03   -.235E-13 -.295E-13 0.324E+03   0.265E-17 0.308E-17 -.111E+01   -.134E-12 0.901E-13 -.105E-01
 -----------------------------------------------------------------------------------------------
   -.161E-10 -.437E-10 0.293E-10   0.145E-13 0.201E-15 -.114E-12   -.232E-17 0.801E-17 -.155E-14   0.992E-12 0.857E-12 0.346E-11
 
 
 POSITION                                       TOTAL-FORCE (eV/Angst)
 -----------------------------------------------------------------------------------
      0.00000      0.00000     -0.00000        -0.000000     -0.000000     -0.000000
      2.41478      2.86614     -0.00000        -0.000000     -0.000000     -0.000000
      2.41478     -2.86614     -0.00000        -0.000000     -0.000000     -0.000000
      4.82956     -0.00000     -0.00000        -0.000000     -0.000000     -0.000000
      2.41478     -0.00000     -0.00000        -0.000000     -0.000000     -0.000000
      4.82956      2.86614     -0.00000        -0.000000     -0.000000     -0.000000
      4.82956     -2.86614     -0.00000        -0.000000     -0.000000     -0.000000
      7.24434     -0.00000     -0.00000        -0.000000     -0.000000     -0.000000
      2.41478     -1.43307      3.84289        -0.000000     -0.000000     -0.003065
      4.82956      1.43307      3.84289         0.000000     -0.000000     -0.003065
      4.82956     -4.29921      3.84289        -0.000000     -0.000000     -0.003065
      7.24434     -1.43307      3.84289         0.000000     -0.000000     -0.003065
      2.41478      1.43307      1.79205         0.000000      0.000000      0.003065
      4.82956      4.29921      1.79205        -0.000000      0.000000      0.003065
      4.82956     -1.43307      1.79205        -0.000000      0.000000      0.003065
      7.24434      1.43307      1.79205         0.000000      0.000000      0.003065
 -----------------------------------------------------------------------------------
    total drift:                               -0.000000     -0.000000      0.000000


--------------------------------------------------------------------------------------------------------



  FREE ENERGIE OF THE ION-ELECTRON SYSTEM (eV)
  ---------------------------------------------------
  free  energy   TOTEN  =       -98.35198708 eV

  energy  without entropy=      -98.33397331  energy(sigma->0) =      -98.34298020
 
 d Force = 0.1062892E-05[ 0.784E-06, 0.134E-05]  d Energy = 0.2885021E-06 0.774E-06
 d Force = 0.8295238E-01[ 0.829E-01, 0.830E-01]  d Ewald  =-0.2321885E+00 0.315E+00


--------------------------------------------------------------------------------------------------------


    POTLOK:  cpu time      0.3220: real time      0.3402


--------------------------------------------------------------------------------------------------------




--------------------------------------------------------------------------------------------------------


  
 reached required accuracy - stopping structural energy minimisation
     LOOP+:  cpu time     77.7261: real time     78.1413
    4ORBIT:  cpu time      0.0000: real time      0.0000



 total charge

# of ion       s       p       d       tot
------------------------------------------
    1        0.341   6.294   6.066  12.701
    2        0.341   6.294   6.066  12.701
    3        0.341   6.294   6.066  12.701
    4        0.341   6.294   6.066  12.701
    5        0.341   6.294   6.066  12.701
    6        0.341   6.294   6.066  12.701
    7        0.341   6.294   6.066  12.701
    8        0.341   6.294   6.066  12.701
    9        1.489   2.264   0.053   3.805
   10        1.489   2.264   0.053   3.805
   11        1.489   2.264   0.053   3.805
   12        1.489   2.264   0.053   3.805
   13        1.489   2.264   0.053   3.805
   14        1.489   2.264   0.053   3.805
   15        1.489   2.264   0.053   3.805
   16        1.489   2.264   0.053   3.805
--------------------------------------------------
tot         14.642  68.458  48.950 132.050



 magnetization (x)

# of ion       s       p       d       tot
------------------------------------------
    1        0.028   0.013   2.531   2.572
    2       -0.028  -0.013  -2.531  -2.572
    3       -0.028  -0.013  -2.531  -2.572
    4        0.028   0.013   2.531   2.572
    5        0.028   0.013   2.531   2.572
    6       -0.028  -0.013  -2.531  -2.572
    7       -0.028  -0.013  -2.531  -2.572
    8        0.028   0.013   2.531   2.572
    9        0.000   0.000   0.000   0.000
   10        0.000   0.000   0.000   0.000
   11        0.000   0.000   0.000   0.000
   12        0.000   0.000   0.000   0.000
   13        0.000   0.000   0.000   0.000
   14        0.000   0.000   0.000   0.000
   15        0.000   0.000   0.000   0.000
   16        0.000   0.000   0.000   0.000
--------------------------------------------------
tot          0.000   0.000   0.000   0.000
 

 total amount of memory used by VASP MPI-rank0   187855. kBytes
=======================================================================

   base      :      30000. kBytes
   nonlr-proj:      13882. kBytes
   fftplans  :       3084. kBytes
   grid      :      19560. kBytes
   one-center:        497. kBytes
   wavefun   :     120832. kBytes
 
  
  
 General timing and accounting informations for this job:
 ========================================================
  
                  Total CPU time used (sec):     1341.866
                            User time (sec):     1338.356
                          System time (sec):        3.510
                         Elapsed time (sec):     1350.922
  
                   Maximum memory used (kb):      498960.
                   Average memory used (kb):          N/A
  
                          Minor page faults:       308883
                          Major page faults:            0
                 Voluntary context switches:        40939
