  16  16   1   0
  0.1818750E+02  0.7323130E-09  0.7323130E-09  0.5490815E-09  0.5000000E-15
  1.000000000000000E-004
  CAR 
 unknown system                          
     12.01038331    -53.17885322  301      4.46441782      1.00000000
    -53.179  0.0000E+00  0.0000E+00  0.0000E+00  0.0000E+00
    -52.962  0.0000E+00  0.0000E+00  0.0000E+00  0.0000E+00
    -52.744  0.0000E+00  0.0000E+00  0.0000E+00  0.0000E+00
    -52.527  0.0000E+00  0.0000E+00  0.0000E+00  0.0000E+00
    -52.310  0.0000E+00  0.0000E+00  0.0000E+00  0.0000E+00
    -52.092  0.0000E+00  0.0000E+00  0.0000E+00  0.0000E+00
    -51.875  0.0000E+00  0.0000E+00  0.0000E+00  0.0000E+00
    -51.658  0.0000E+00  0.0000E+00  0.0000E+00  0.0000E+00
    -51.440  0.0000E+00  0.0000E+00  0.0000E+00  0.0000E+00
    -51.223  0.0000E+00  0.0000E+00  0.0000E+00  0.0000E+00
    -51.006  0.0000E+00  0.0000E+00  0.0000E+00  0.0000E+00
    -50.789  0.0000E+00  0.0000E+00  0.0000E+00  0.0000E+00
    -50.571  0.0000E+00  0.0000E+00  0.0000E+00  0.0000E+00
    -50.354  0.2898E-05  0.2898E-05  0.6298E-06  0.6298E-06
    -50.137  0.1953E+00  0.1953E+00  0.4244E-01  0.4244E-01
    -49.919  0.2794E+00  0.2794E+00  0.1031E+00  0.1031E+00
    -49.702  0.8212E-01  0.8212E-01  0.1210E+00  0.1210E+00
    -49.485  0.1002E-02  0.1002E-02  0.1212E+00  0.1212E+00
    -49.267  0.0000E+00  0.0000E+00  0.1212E+00  0.1212E+00
    -49.050  0.0000E+00  0.0000E+00  0.1212E+00  0.1212E+00
    -48.833  0.0000E+00  0.0000E+00  0.1212E+00  0.1212E+00
    -48.616  0.0000E+00  0.0000E+00  0.1212E+00  0.1212E+00
    -48.398  0.0000E+00  0.0000E+00  0.1212E+00  0.1212E+00
    -48.181  0.0000E+00  0.0000E+00  0.1212E+00  0.1212E+00
    -47.964  0.0000E+00  0.0000E+00  0.1212E+00  0.1212E+00
    -47.746  0.4462E-10  0.4462E-10  0.1212E+00  0.1212E+00
    -47.529  0.9492E-01  0.9492E-01  0.1418E+00  0.1418E+00
    -47.312  0.1831E+00  0.1831E+00  0.1816E+00  0.1816E+00
    -47.095  0.2662E+00  0.2662E+00  0.2395E+00  0.2395E+00
    -46.877  0.1353E-01  0.1353E-01  0.2424E+00  0.2424E+00
    -46.660  0.0000E+00  0.0000E+00  0.2424E+00  0.2424E+00
    -46.443  0.0000E+00  0.0000E+00  0.2424E+00  0.2424E+00
    -46.225  0.0000E+00  0.0000E+00  0.2424E+00  0.2424E+00
    -46.008  0.0000E+00  0.0000E+00  0.2424E+00  0.2424E+00
    -45.791  0.0000E+00  0.0000E+00  0.2424E+00  0.2424E+00
    -45.573  0.0000E+00  0.0000E+00  0.2424E+00  0.2424E+00
    -45.356  0.0000E+00  0.0000E+00  0.2424E+00  0.2424E+00
    -45.139  0.0000E+00  0.0000E+00  0.2424E+00  0.2424E+00
    -44.922  0.0000E+00  0.0000E+00  0.2424E+00  0.2424E+00
    -44.704  0.0000E+00  0.0000E+00  0.2424E+00  0.2424E+00
    -44.487  0.0000E+00  0.0000E+00  0.2424E+00  0.2424E+00
    -44.270  0.0000E+00  0.0000E+00  0.2424E+00  0.2424E+00
    -44.052  0.0000E+00  0.0000E+00  0.2424E+00  0.2424E+00
    -43.835  0.0000E+00  0.0000E+00  0.2424E+00  0.2424E+00
    -43.618  0.0000E+00  0.0000E+00  0.2424E+00  0.2424E+00
    -43.400  0.0000E+00  0.0000E+00  0.2424E+00  0.2424E+00
    -43.183  0.0000E+00  0.0000E+00  0.2424E+00  0.2424E+00
    -42.966  0.0000E+00  0.0000E+00  0.2424E+00  0.2424E+00
    -42.749  0.0000E+00  0.0000E+00  0.2424E+00  0.2424E+00
    -42.531  0.0000E+00  0.0000E+00  0.2424E+00  0.2424E+00
    -42.314  0.0000E+00  0.0000E+00  0.2424E+00  0.2424E+00
    -42.097  0.0000E+00  0.0000E+00  0.2424E+00  0.2424E+00
    -41.879  0.0000E+00  0.0000E+00  0.2424E+00  0.2424E+00
    -41.662  0.0000E+00  0.0000E+00  0.2424E+00  0.2424E+00
    -41.445  0.0000E+00  0.0000E+00  0.2424E+00  0.2424E+00
    -41.227  0.0000E+00  0.0000E+00  0.2424E+00  0.2424E+00
    -41.010  0.0000E+00  0.0000E+00  0.2424E+00  0.2424E+00
    -40.793  0.0000E+00  0.0000E+00  0.2424E+00  0.2424E+00
    -40.576  0.0000E+00  0.0000E+00  0.2424E+00  0.2424E+00
    -40.358  0.0000E+00  0.0000E+00  0.2424E+00  0.2424E+00
    -40.141  0.0000E+00  0.0000E+00  0.2424E+00  0.2424E+00
    -39.924  0.0000E+00  0.0000E+00  0.2424E+00  0.2424E+00
    -39.706  0.0000E+00  0.0000E+00  0.2424E+00  0.2424E+00
    -39.489  0.0000E+00  0.0000E+00  0.2424E+00  0.2424E+00
    -39.272  0.0000E+00  0.0000E+00  0.2424E+00  0.2424E+00
    -39.055  0.0000E+00  0.0000E+00  0.2424E+00  0.2424E+00
    -38.837  0.0000E+00  0.0000E+00  0.2424E+00  0.2424E+00
    -38.620  0.0000E+00  0.0000E+00  0.2424E+00  0.2424E+00
    -38.403  0.0000E+00  0.0000E+00  0.2424E+00  0.2424E+00
    -38.185  0.0000E+00  0.0000E+00  0.2424E+00  0.2424E+00
    -37.968  0.0000E+00  0.0000E+00  0.2424E+00  0.2424E+00
    -37.751  0.0000E+00  0.0000E+00  0.2424E+00  0.2424E+00
    -37.533  0.0000E+00  0.0000E+00  0.2424E+00  0.2424E+00
    -37.316  0.0000E+00  0.0000E+00  0.2424E+00  0.2424E+00
    -37.099  0.0000E+00  0.0000E+00  0.2424E+00  0.2424E+00
    -36.882  0.0000E+00  0.0000E+00  0.2424E+00  0.2424E+00
    -36.664  0.0000E+00  0.0000E+00  0.2424E+00  0.2424E+00
    -36.447  0.0000E+00  0.0000E+00  0.2424E+00  0.2424E+00
    -36.230  0.0000E+00  0.0000E+00  0.2424E+00  0.2424E+00
    -36.012  0.0000E+00  0.0000E+00  0.2424E+00  0.2424E+00
    -35.795  0.0000E+00  0.0000E+00  0.2424E+00  0.2424E+00
    -35.578  0.0000E+00  0.0000E+00  0.2424E+00  0.2424E+00
    -35.360  0.0000E+00  0.0000E+00  0.2424E+00  0.2424E+00
    -35.143  0.0000E+00  0.0000E+00  0.2424E+00  0.2424E+00
    -34.926  0.0000E+00  0.0000E+00  0.2424E+00  0.2424E+00
    -34.709  0.0000E+00  0.0000E+00  0.2424E+00  0.2424E+00
    -34.491  0.0000E+00  0.0000E+00  0.2424E+00  0.2424E+00
    -34.274  0.0000E+00  0.0000E+00  0.2424E+00  0.2424E+00
    -34.057  0.0000E+00  0.0000E+00  0.2424E+00  0.2424E+00
    -33.839  0.0000E+00  0.0000E+00  0.2424E+00  0.2424E+00
    -33.622  0.0000E+00  0.0000E+00  0.2424E+00  0.2424E+00
    -33.405  0.0000E+00  0.0000E+00  0.2424E+00  0.2424E+00
    -33.187  0.0000E+00  0.0000E+00  0.2424E+00  0.2424E+00
    -32.970  0.0000E+00  0.0000E+00  0.2424E+00  0.2424E+00
    -32.753  0.0000E+00  0.0000E+00  0.2424E+00  0.2424E+00
    -32.536  0.0000E+00  0.0000E+00  0.2424E+00  0.2424E+00
    -32.318  0.0000E+00  0.0000E+00  0.2424E+00  0.2424E+00
    -32.101  0.0000E+00  0.0000E+00  0.2424E+00  0.2424E+00
    -31.884  0.0000E+00  0.0000E+00  0.2424E+00  0.2424E+00
    -31.666  0.0000E+00  0.0000E+00  0.2424E+00  0.2424E+00
    -31.449  0.0000E+00  0.0000E+00  0.2424E+00  0.2424E+00
    -31.232  0.0000E+00  0.0000E+00  0.2424E+00  0.2424E+00
    -31.015  0.0000E+00  0.0000E+00  0.2424E+00  0.2424E+00
    -30.797  0.0000E+00  0.0000E+00  0.2424E+00  0.2424E+00
    -30.580  0.0000E+00  0.0000E+00  0.2424E+00  0.2424E+00
    -30.363  0.0000E+00  0.0000E+00  0.2424E+00  0.2424E+00
    -30.145  0.0000E+00  0.0000E+00  0.2424E+00  0.2424E+00
    -29.928  0.0000E+00  0.0000E+00  0.2424E+00  0.2424E+00
    -29.711  0.0000E+00  0.0000E+00  0.2424E+00  0.2424E+00
    -29.493  0.0000E+00  0.0000E+00  0.2424E+00  0.2424E+00
    -29.276  0.0000E+00  0.0000E+00  0.2424E+00  0.2424E+00
    -29.059  0.0000E+00  0.0000E+00  0.2424E+00  0.2424E+00
    -28.842  0.0000E+00  0.0000E+00  0.2424E+00  0.2424E+00
    -28.624  0.0000E+00  0.0000E+00  0.2424E+00  0.2424E+00
    -28.407  0.0000E+00  0.0000E+00  0.2424E+00  0.2424E+00
    -28.190  0.0000E+00  0.0000E+00  0.2424E+00  0.2424E+00
    -27.972  0.0000E+00  0.0000E+00  0.2424E+00  0.2424E+00
    -27.755  0.0000E+00  0.0000E+00  0.2424E+00  0.2424E+00
    -27.538  0.0000E+00  0.0000E+00  0.2424E+00  0.2424E+00
    -27.320  0.0000E+00  0.0000E+00  0.2424E+00  0.2424E+00
    -27.103  0.0000E+00  0.0000E+00  0.2424E+00  0.2424E+00
    -26.886  0.0000E+00  0.0000E+00  0.2424E+00  0.2424E+00
    -26.669  0.0000E+00  0.0000E+00  0.2424E+00  0.2424E+00
    -26.451  0.0000E+00  0.0000E+00  0.2424E+00  0.2424E+00
    -26.234  0.0000E+00  0.0000E+00  0.2424E+00  0.2424E+00
    -26.017  0.0000E+00  0.0000E+00  0.2424E+00  0.2424E+00
    -25.799  0.0000E+00  0.0000E+00  0.2424E+00  0.2424E+00
    -25.582  0.0000E+00  0.0000E+00  0.2424E+00  0.2424E+00
    -25.365  0.0000E+00  0.0000E+00  0.2424E+00  0.2424E+00
    -25.147  0.0000E+00  0.0000E+00  0.2424E+00  0.2424E+00
    -24.930  0.0000E+00  0.0000E+00  0.2424E+00  0.2424E+00
    -24.713  0.0000E+00  0.0000E+00  0.2424E+00  0.2424E+00
    -24.496  0.0000E+00  0.0000E+00  0.2424E+00  0.2424E+00
    -24.278  0.0000E+00  0.0000E+00  0.2424E+00  0.2424E+00
    -24.061  0.0000E+00  0.0000E+00  0.2424E+00  0.2424E+00
    -23.844  0.0000E+00  0.0000E+00  0.2424E+00  0.2424E+00
    -23.626  0.0000E+00  0.0000E+00  0.2424E+00  0.2424E+00
    -23.409  0.0000E+00  0.0000E+00  0.2424E+00  0.2424E+00
    -23.192  0.0000E+00  0.0000E+00  0.2424E+00  0.2424E+00
    -22.975  0.0000E+00  0.0000E+00  0.2424E+00  0.2424E+00
    -22.757  0.0000E+00  0.0000E+00  0.2424E+00  0.2424E+00
    -22.540  0.0000E+00  0.0000E+00  0.2424E+00  0.2424E+00
    -22.323  0.0000E+00  0.0000E+00  0.2424E+00  0.2424E+00
    -22.105  0.0000E+00  0.0000E+00  0.2424E+00  0.2424E+00
    -21.888  0.0000E+00  0.0000E+00  0.2424E+00  0.2424E+00
    -21.671  0.0000E+00  0.0000E+00  0.2424E+00  0.2424E+00
    -21.453  0.0000E+00  0.0000E+00  0.2424E+00  0.2424E+00
    -21.236  0.0000E+00  0.0000E+00  0.2424E+00  0.2424E+00
    -21.019  0.0000E+00  0.0000E+00  0.2424E+00  0.2424E+00
    -20.802  0.0000E+00  0.0000E+00  0.2424E+00  0.2424E+00
    -20.584  0.0000E+00  0.0000E+00  0.2424E+00  0.2424E+00
    -20.367  0.0000E+00  0.0000E+00  0.2424E+00  0.2424E+00
    -20.150  0.0000E+00  0.0000E+00  0.2424E+00  0.2424E+00
    -19.932  0.0000E+00  0.0000E+00  0.2424E+00  0.2424E+00
    -19.715  0.0000E+00  0.0000E+00  0.2424E+00  0.2424E+00
    -19.498  0.0000E+00  0.0000E+00  0.2424E+00  0.2424E+00
    -19.280  0.0000E+00  0.0000E+00  0.2424E+00  0.2424E+00
    -19.063  0.0000E+00  0.0000E+00  0.2424E+00  0.2424E+00
    -18.846  0.0000E+00  0.0000E+00  0.2424E+00  0.2424E+00
    -18.629  0.0000E+00  0.0000E+00  0.2424E+00  0.2424E+00
    -18.411  0.0000E+00  0.0000E+00  0.2424E+00  0.2424E+00
    -18.194  0.0000E+00  0.0000E+00  0.2424E+00  0.2424E+00
    -17.977  0.0000E+00  0.0000E+00  0.2424E+00  0.2424E+00
    -17.759  0.0000E+00  0.0000E+00  0.2424E+00  0.2424E+00
    -17.542  0.0000E+00  0.0000E+00  0.2424E+00  0.2424E+00
    -17.325  0.0000E+00  0.0000E+00  0.2424E+00  0.2424E+00
    -17.107  0.0000E+00  0.0000E+00  0.2424E+00  0.2424E+00
    -16.890  0.0000E+00  0.0000E+00  0.2424E+00  0.2424E+00
    -16.673  0.0000E+00  0.0000E+00  0.2424E+00  0.2424E+00
    -16.456  0.0000E+00  0.0000E+00  0.2424E+00  0.2424E+00
    -16.238  0.0000E+00  0.0000E+00  0.2424E+00  0.2424E+00
    -16.021  0.0000E+00  0.0000E+00  0.2424E+00  0.2424E+00
    -15.804  0.0000E+00  0.0000E+00  0.2424E+00  0.2424E+00
    -15.586  0.0000E+00  0.0000E+00  0.2424E+00  0.2424E+00
    -15.369  0.0000E+00  0.0000E+00  0.2424E+00  0.2424E+00
    -15.152  0.0000E+00  0.0000E+00  0.2424E+00  0.2424E+00
    -14.935  0.0000E+00  0.0000E+00  0.2424E+00  0.2424E+00
    -14.717  0.0000E+00  0.0000E+00  0.2424E+00  0.2424E+00
    -14.500  0.0000E+00  0.0000E+00  0.2424E+00  0.2424E+00
    -14.283  0.0000E+00  0.0000E+00  0.2424E+00  0.2424E+00
    -14.065  0.0000E+00  0.0000E+00  0.2424E+00  0.2424E+00
    -13.848  0.0000E+00  0.0000E+00  0.2424E+00  0.2424E+00
    -13.631  0.0000E+00  0.0000E+00  0.2424E+00  0.2424E+00
    -13.413  0.0000E+00  0.0000E+00  0.2424E+00  0.2424E+00
    -13.196  0.0000E+00  0.0000E+00  0.2424E+00  0.2424E+00
    -12.979  0.0000E+00  0.0000E+00  0.2424E+00  0.2424E+00
    -12.762  0.0000E+00  0.0000E+00  0.2424E+00  0.2424E+00
    -12.544  0.0000E+00  0.0000E+00  0.2424E+00  0.2424E+00
    -12.327  0.0000E+00  0.0000E+00  0.2424E+00  0.2424E+00
    -12.110  0.0000E+00  0.0000E+00  0.2424E+00  0.2424E+00
    -11.892  0.0000E+00  0.0000E+00  0.2424E+00  0.2424E+00
    -11.675  0.0000E+00  0.0000E+00  0.2424E+00  0.2424E+00
    -11.458  0.0000E+00  0.0000E+00  0.2424E+00  0.2424E+00
    -11.240  0.0000E+00  0.0000E+00  0.2424E+00  0.2424E+00
    -11.023  0.0000E+00  0.0000E+00  0.2424E+00  0.2424E+00
    -10.806  0.0000E+00  0.0000E+00  0.2424E+00  0.2424E+00
    -10.589  0.2926E-19  0.2926E-19  0.2424E+00  0.2424E+00
    -10.371  0.3626E-05  0.3626E-05  0.2424E+00  0.2424E+00
    -10.154  0.3706E-02  0.3706E-02  0.2432E+00  0.2432E+00
     -9.937  0.1224E-01  0.1224E-01  0.2459E+00  0.2459E+00
     -9.719  0.1957E-01  0.1957E-01  0.2501E+00  0.2501E+00
     -9.502  0.2269E-01  0.2269E-01  0.2551E+00  0.2551E+00
     -9.285  0.2647E-01  0.2647E-01  0.2608E+00  0.2608E+00
     -9.067  0.3147E-01  0.3147E-01  0.2677E+00  0.2677E+00
     -8.850  0.4334E-01  0.4334E-01  0.2771E+00  0.2771E+00
     -8.633  0.6369E-01  0.6369E-01  0.2909E+00  0.2909E+00
     -8.416  0.6494E-01  0.6494E-01  0.3050E+00  0.3050E+00
     -8.198  0.6161E-01  0.6161E-01  0.3184E+00  0.3184E+00
     -7.981  0.2199E-01  0.2199E-01  0.3232E+00  0.3232E+00
     -7.764  0.1584E-03  0.1584E-03  0.3232E+00  0.3232E+00
     -7.546  0.0000E+00  0.0000E+00  0.3232E+00  0.3232E+00
     -7.329  0.0000E+00  0.0000E+00  0.3232E+00  0.3232E+00
     -7.112  0.0000E+00  0.0000E+00  0.3232E+00  0.3232E+00
     -6.894  0.0000E+00  0.0000E+00  0.3232E+00  0.3232E+00
     -6.677  0.0000E+00  0.0000E+00  0.3232E+00  0.3232E+00
     -6.460  0.0000E+00  0.0000E+00  0.3232E+00  0.3232E+00
     -6.243  0.0000E+00  0.0000E+00  0.3232E+00  0.3232E+00
     -6.025  0.0000E+00  0.0000E+00  0.3232E+00  0.3232E+00
     -5.808  0.0000E+00  0.0000E+00  0.3232E+00  0.3232E+00
     -5.591  0.0000E+00  0.0000E+00  0.3232E+00  0.3232E+00
     -5.373  0.0000E+00  0.0000E+00  0.3232E+00  0.3232E+00
     -5.156  0.0000E+00  0.0000E+00  0.3232E+00  0.3232E+00
     -4.939  0.0000E+00  0.0000E+00  0.3232E+00  0.3232E+00
     -4.722  0.0000E+00  0.0000E+00  0.3232E+00  0.3232E+00
     -4.504  0.0000E+00  0.0000E+00  0.3232E+00  0.3232E+00
     -4.287  0.0000E+00  0.0000E+00  0.3232E+00  0.3232E+00
     -4.070  0.0000E+00  0.0000E+00  0.3232E+00  0.3232E+00
     -3.852  0.0000E+00  0.0000E+00  0.3232E+00  0.3232E+00
     -3.635  0.0000E+00  0.0000E+00  0.3232E+00  0.3232E+00
     -3.418  0.0000E+00  0.0000E+00  0.3232E+00  0.3232E+00
     -3.200  0.0000E+00  0.0000E+00  0.3232E+00  0.3232E+00
     -2.983  0.0000E+00  0.0000E+00  0.3232E+00  0.3232E+00
     -2.766  0.0000E+00  0.0000E+00  0.3232E+00  0.3232E+00
     -2.549  0.0000E+00  0.0000E+00  0.3232E+00  0.3232E+00
     -2.331  0.0000E+00  0.0000E+00  0.3232E+00  0.3232E+00
     -2.114  0.2288E-09  0.2288E-09  0.3232E+00  0.3232E+00
     -1.897  0.3819E-03  0.3819E-03  0.3233E+00  0.3233E+00
     -1.679  0.7815E-02  0.7815E-02  0.3250E+00  0.3250E+00
     -1.462  0.3012E-01  0.3012E-01  0.3316E+00  0.3316E+00
     -1.245  0.6040E-01  0.6040E-01  0.3447E+00  0.3447E+00
     -1.027  0.7009E-01  0.7009E-01  0.3599E+00  0.3599E+00
     -0.810  0.5597E-01  0.5597E-01  0.3721E+00  0.3721E+00
     -0.593  0.5957E-01  0.5957E-01  0.3850E+00  0.3850E+00
     -0.376  0.3843E-01  0.3843E-01  0.3934E+00  0.3934E+00
     -0.158  0.3887E-01  0.3887E-01  0.4018E+00  0.4018E+00
      0.059  0.5438E-01  0.5438E-01  0.4136E+00  0.4136E+00
      0.276  0.4973E-01  0.4973E-01  0.4244E+00  0.4244E+00
      0.494  0.7929E-01  0.7929E-01  0.4417E+00  0.4417E+00
      0.711  0.9302E-01  0.9302E-01  0.4619E+00  0.4619E+00
      0.928  0.1050E+00  0.1050E+00  0.4847E+00  0.4847E+00
      1.146  0.1151E+00  0.1151E+00  0.5097E+00  0.5097E+00
      1.363  0.9450E-01  0.9450E-01  0.5302E+00  0.5302E+00
      1.580  0.7724E-01  0.7724E-01  0.5470E+00  0.5470E+00
      1.797  0.7149E-01  0.7149E-01  0.5626E+00  0.5626E+00
      2.015  0.1084E+00  0.1084E+00  0.5861E+00  0.5861E+00
      2.232  0.1077E+00  0.1077E+00  0.6095E+00  0.6095E+00
      2.449  0.1336E+00  0.1336E+00  0.6386E+00  0.6386E+00
      2.667  0.1588E+00  0.1588E+00  0.6731E+00  0.6731E+00
      2.884  0.1325E+00  0.1325E+00  0.7019E+00  0.7019E+00
      3.101  0.9033E-01  0.9033E-01  0.7215E+00  0.7215E+00
      3.318  0.6651E-01  0.6651E-01  0.7359E+00  0.7359E+00
      3.536  0.6728E-01  0.6728E-01  0.7506E+00  0.7506E+00
      3.753  0.5943E-01  0.5943E-01  0.7635E+00  0.7635E+00
      3.970  0.4428E-01  0.4428E-01  0.7731E+00  0.7731E+00
      4.188  0.6505E-01  0.6505E-01  0.7872E+00  0.7872E+00
      4.405  0.7219E-01  0.7219E-01  0.8029E+00  0.8029E+00
      4.622  0.6921E-01  0.6921E-01  0.8180E+00  0.8180E+00
      4.840  0.1058E+00  0.1058E+00  0.8410E+00  0.8410E+00
      5.057  0.1283E+00  0.1283E+00  0.8688E+00  0.8688E+00
      5.274  0.9307E-01  0.9307E-01  0.8891E+00  0.8891E+00
      5.491  0.8888E-01  0.8888E-01  0.9084E+00  0.9084E+00
      5.709  0.8290E-01  0.8290E-01  0.9264E+00  0.9264E+00
      5.926  0.1010E+00  0.1010E+00  0.9483E+00  0.9483E+00
      6.143  0.4731E-01  0.4731E-01  0.9586E+00  0.9586E+00
      6.361  0.1292E-01  0.1292E-01  0.9614E+00  0.9614E+00
      6.578  0.1283E-01  0.1283E-01  0.9642E+00  0.9642E+00
      6.795  0.1706E-01  0.1706E-01  0.9679E+00  0.9679E+00
      7.013  0.1105E-01  0.1105E-01  0.9703E+00  0.9703E+00
      7.230  0.7092E-02  0.7094E-02  0.9719E+00  0.9719E+00
      7.447  0.9392E-02  0.9390E-02  0.9739E+00  0.9739E+00
      7.664  0.1327E-01  0.1327E-01  0.9768E+00  0.9768E+00
      7.882  0.1476E-01  0.1476E-01  0.9800E+00  0.9800E+00
      8.099  0.2644E-01  0.2644E-01  0.9857E+00  0.9857E+00
      8.316  0.4023E-01  0.4025E-01  0.9945E+00  0.9945E+00
      8.534  0.4038E-01  0.4046E-01  0.1003E+01  0.1003E+01
      8.751  0.2075E-01  0.2078E-01  0.1008E+01  0.1008E+01
      8.968  0.9604E-02  0.9476E-02  0.1010E+01  0.1010E+01
      9.186  0.1192E-02  0.1185E-02  0.1010E+01  0.1010E+01
      9.403  0.3873E-07  0.2066E-07  0.1010E+01  0.1010E+01
      9.620  0.0000E+00  0.0000E+00  0.1010E+01  0.1010E+01
      9.837  0.0000E+00  0.0000E+00  0.1010E+01  0.1010E+01
     10.055  0.0000E+00  0.0000E+00  0.1010E+01  0.1010E+01
     10.272  0.0000E+00  0.0000E+00  0.1010E+01  0.1010E+01
     10.489  0.0000E+00  0.0000E+00  0.1010E+01  0.1010E+01
     10.707  0.0000E+00  0.0000E+00  0.1010E+01  0.1010E+01
     10.924  0.0000E+00  0.0000E+00  0.1010E+01  0.1010E+01
     11.141  0.0000E+00  0.0000E+00  0.1010E+01  0.1010E+01
     11.358  0.0000E+00  0.0000E+00  0.1010E+01  0.1010E+01
     11.576  0.0000E+00  0.0000E+00  0.1010E+01  0.1010E+01
     11.793  0.0000E+00  0.0000E+00  0.1010E+01  0.1010E+01
     12.010  0.0000E+00  0.0000E+00  0.1010E+01  0.1010E+01
     12.01038331    -53.17885322  301      4.46441782      1.00000000
    -53.179  0.0000E+00  0.0000E+00  0.0000E+00  0.0000E+00  0.0000E+00  0.0000E+00  0.0000E+00  0.0000E+00  0.0000E+00  0.0000E+00  0.0000E+00  0.0000E+00  0.0000E+00  0.0000E+00  0.0000E+00  0.0000E+00  0.0000E+00  0.0000E+00
    -52.962  0.0000E+00  0.0000E+00  0.0000E+00  0.0000E+00  0.0000E+00  0.0000E+00  0.0000E+00  0.0000E+00  0.0000E+00  0.0000E+00  0.0000E+00  0.0000E+00  0.0000E+00  0.0000E+00  0.0000E+00  0.0000E+00  0.0000E+00  0.0000E+00
    -52.744  0.0000E+00  0.0000E+00  0.0000E+00  0.0000E+00  0.0000E+00  0.0000E+00  0.0000E+00  0.0000E+00  0.0000E+00  0.0000E+00  0.0000E+00  0.0000E+00  0.0000E+00  0.0000E+00  0.0000E+00  0.0000E+00  0.0000E+00  0.0000E+00
    -52.527  0.0000E+00  0.0000E+00  0.0000E+00  0.0000E+00  0.0000E+00  0.0000E+00  0.0000E+00  0.0000E+00  0.0000E+00  0.0000E+00  0.0000E+00  0.0000E+00  0.0000E+00  0.0000E+00  0.0000E+00  0.0000E+00  0.0000E+00  0.0000E+00
    -52.310  0.0000E+00  0.0000E+00  0.0000E+00  0.0000E+00  0.0000E+00  0.0000E+00  0.0000E+00  0.0000E+00  0.0000E+00  0.0000E+00  0.0000E+00  0.0000E+00  0.0000E+00  0.0000E+00  0.0000E+00  0.0000E+00  0.0000E+00  0.0000E+00
    -52.092  0.0000E+00  0.0000E+00  0.0000E+00  0.0000E+00  0.0000E+00  0.0000E+00  0.0000E+00  0.0000E+00  0.0000E+00  0.0000E+00  0.0000E+00  0.0000E+00  0.0000E+00  0.0000E+00  0.0000E+00  0.0000E+00  0.0000E+00  0.0000E+00
    -51.875  0.0000E+00  0.0000E+00  0.0000E+00  0.0000E+00  0.0000E+00  0.0000E+00  0.0000E+00  0.0000E+00  0.0000E+00  0.0000E+00  0.0000E+00  0.0000E+00  0.0000E+00  0.0000E+00  0.0000E+00  0.0000E+00  0.0000E+00  0.0000E+00
    -51.658  0.0000E+00  0.0000E+00  0.0000E+00  0.0000E+00  0.0000E+00  0.0000E+00  0.0000E+00  0.0000E+00  0.0000E+00  0.0000E+00  0.0000E+00  0.0000E+00  0.0000E+00  0.0000E+00  0.0000E+00  0.0000E+00  0.0000E+00  0.0000E+00
    -51.440  0.0000E+00  0.0000E+00  0.0000E+00  0.0000E+00  0.0000E+00  0.0000E+00  0.0000E+00  0.0000E+00  0.0000E+00  0.0000E+00  0.0000E+00  0.0000E+00  0.0000E+00  0.0000E+00  0.0000E+00  0.0000E+00  0.0000E+00  0.0000E+00
    -51.223  0.0000E+00  0.0000E+00  0.0000E+00  0.0000E+00  0.0000E+00  0.0000E+00  0.0000E+00  0.0000E+00  0.0000E+00  0.0000E+00  0.0000E+00  0.0000E+00  0.0000E+00  0.0000E+00  0.0000E+00  0.0000E+00  0.0000E+00  0.0000E+00
    -51.006  0.0000E+00  0.0000E+00  0.0000E+00  0.0000E+00  0.0000E+00  0.0000E+00  0.0000E+00  0.0000E+00  0.0000E+00  0.0000E+00  0.0000E+00  0.0000E+00  0.0000E+00  0.0000E+00  0.0000E+00  0.0000E+00  0.0000E+00  0.0000E+00
    -50.789  0.0000E+00  0.0000E+00  0.0000E+00  0.0000E+00  0.0000E+00  0.0000E+00  0.0000E+00  0.0000E+00  0.0000E+00  0.0000E+00  0.0000E+00  0.0000E+00  0.0000E+00  0.0000E+00  0.0000E+00  0.0000E+00  0.0000E+00  0.0000E+00
    -50.571  0.0000E+00  0.0000E+00  0.0000E+00  0.0000E+00  0.0000E+00  0.0000E+00  0.0000E+00  0.0000E+00  0.0000E+00  0.0000E+00  0.0000E+00  0.0000E+00  0.0000E+00  0.0000E+00  0.0000E+00  0.0000E+00  0.0000E+00  0.0000E+00
    -50.354  0.1096E-14  0.2175E-10  0.9948E-05  0.1230E-08  0.6147E-04  0.1582E-09  0.1044E-09  0.5160E-12  0.1979E-10  0.4398E-13  0.1247E-14  0.8024E-11  0.1684E-14  0.6196E-11  0.1083E-09  0.3145E-14  0.1840E-14  0.2566E-10
    -50.137  0.3649E-05  0.1874E-05  0.8314E+00  0.1052E-03  0.3616E+01  0.9755E-05  0.3658E+00  0.5996E-06  0.1952E-05  0.4189E-07  0.9075E-10  0.4785E-06  0.1685E-05  0.5640E-06  0.8679E-05  0.2896E-09  0.5057E-05  0.2103E-05
    -49.919  0.1082E-03  0.6702E-05  0.3751E+01  0.4198E-03  0.9678E+00  0.1428E-05  0.2167E+01  0.2933E-05  0.9075E-05  0.2060E-06  0.4369E-09  0.2542E-07  0.4992E-04  0.2634E-05  0.2268E-05  0.1129E-09  0.1499E-03  0.8344E-05
    -49.702  0.7554E-04  0.5946E-08  0.1080E-02  0.2513E-06  0.1809E-03  0.1739E-08  0.2027E+01  0.1320E-05  0.2060E-08  0.1028E-06  0.2748E-09  0.2639E-10  0.3487E-04  0.2192E-08  0.3820E-09  0.6803E-10  0.1047E-03  0.2521E-08
    -49.485  0.1452E-06  0.7598E-11  0.1058E-11  0.2818E-09  0.1878E-13  0.2953E-11  0.2477E-01  0.1314E-07  0.1082E-12  0.1061E-08  0.4482E-12  0.2505E-12  0.6700E-07  0.2746E-11  0.4173E-13  0.1134E-11  0.2012E-06  0.4016E-12
    -49.267  0.0000E+00  0.0000E+00  0.0000E+00  0.0000E+00  0.0000E+00  0.0000E+00  0.0000E+00  0.0000E+00  0.0000E+00  0.0000E+00  0.0000E+00  0.0000E+00  0.0000E+00  0.0000E+00  0.0000E+00  0.0000E+00  0.0000E+00  0.0000E+00
    -49.050  0.0000E+00  0.0000E+00  0.0000E+00  0.0000E+00  0.0000E+00  0.0000E+00  0.0000E+00  0.0000E+00  0.0000E+00  0.0000E+00  0.0000E+00  0.0000E+00  0.0000E+00  0.0000E+00  0.0000E+00  0.0000E+00  0.0000E+00  0.0000E+00
    -48.833  0.0000E+00  0.0000E+00  0.0000E+00  0.0000E+00  0.0000E+00  0.0000E+00  0.0000E+00  0.0000E+00  0.0000E+00  0.0000E+00  0.0000E+00  0.0000E+00  0.0000E+00  0.0000E+00  0.0000E+00  0.0000E+00  0.0000E+00  0.0000E+00
    -48.616  0.0000E+00  0.0000E+00  0.0000E+00  0.0000E+00  0.0000E+00  0.0000E+00  0.0000E+00  0.0000E+00  0.0000E+00  0.0000E+00  0.0000E+00  0.0000E+00  0.0000E+00  0.0000E+00  0.0000E+00  0.0000E+00  0.0000E+00  0.0000E+00
    -48.398  0.0000E+00  0.0000E+00  0.0000E+00  0.0000E+00  0.0000E+00  0.0000E+00  0.0000E+00  0.0000E+00  0.0000E+00  0.0000E+00  0.0000E+00  0.0000E+00  0.0000E+00  0.0000E+00  0.0000E+00  0.0000E+00  0.0000E+00  0.0000E+00
    -48.181  0.0000E+00  0.0000E+00  0.0000E+00  0.0000E+00  0.0000E+00  0.0000E+00  0.0000E+00  0.0000E+00  0.0000E+00  0.0000E+00  0.0000E+00  0.0000E+00  0.0000E+00  0.0000E+00  0.0000E+00  0.0000E+00  0.0000E+00  0.0000E+00
    -47.964  0.0000E+00  0.0000E+00  0.0000E+00  0.0000E+00  0.0000E+00  0.0000E+00  0.0000E+00  0.0000E+00  0.0000E+00  0.0000E+00  0.0000E+00  0.0000E+00  0.0000E+00  0.0000E+00  0.0000E+00  0.0000E+00  0.0000E+00  0.0000E+00
    -47.746  0.1339E-14  0.1478E-16  0.7576E-13  0.4694E-09  0.1517E-14  0.6241E-09  0.6242E-16  0.6197E-11  0.1822E-17  0.1239E-14  0.1551E-15  0.2420E-19  0.4301E-15  0.6826E-17  0.2380E-19  0.1624E-14  0.1570E-14  0.2055E-16
    -47.529  0.2690E-05  0.1969E-05  0.1556E-03  0.9403E+00  0.2901E-05  0.1188E+01  0.5055E-06  0.2103E+00  0.3268E-07  0.2647E-05  0.2914E-06  0.9469E-10  0.8679E-06  0.9085E-06  0.6158E-10  0.3384E-05  0.3096E-05  0.2740E-05
    -47.312  0.3131E-05  0.1070E-03  0.1823E-03  0.1093E+01  0.3329E-05  0.1361E+01  0.3476E-05  0.2057E+01  0.2658E-06  0.3110E-05  0.3324E-06  0.2045E-08  0.1012E-05  0.4944E-04  0.1580E-09  0.3948E-05  0.3582E-05  0.1490E-03
    -47.095  0.6004E-05  0.1126E-03  0.2837E-03  0.2528E+01  0.1844E-05  0.2017E+01  0.1920E-05  0.2024E+01  0.1558E-06  0.7313E-05  0.1118E-06  0.1992E-08  0.2432E-05  0.5208E-04  0.1486E-09  0.5913E-05  0.7446E-05  0.1569E-03
    -46.877  0.5246E-07  0.3091E-05  0.2525E-05  0.2243E-01  0.1615E-07  0.1748E-01  0.1903E-06  0.2946E+00  0.1765E-07  0.6259E-07  0.9613E-09  0.4789E-10  0.2125E-07  0.1430E-05  0.1343E-10  0.4999E-07  0.6556E-07  0.4306E-05
    -46.660  0.0000E+00  0.0000E+00  0.0000E+00  0.0000E+00  0.0000E+00  0.0000E+00  0.0000E+00  0.0000E+00  0.0000E+00  0.0000E+00  0.0000E+00  0.0000E+00  0.0000E+00  0.0000E+00  0.0000E+00  0.0000E+00  0.0000E+00  0.0000E+00
    -46.443  0.0000E+00  0.0000E+00  0.0000E+00  0.0000E+00  0.0000E+00  0.0000E+00  0.0000E+00  0.0000E+00  0.0000E+00  0.0000E+00  0.0000E+00  0.0000E+00  0.0000E+00  0.0000E+00  0.0000E+00  0.0000E+00  0.0000E+00  0.0000E+00
    -46.225  0.0000E+00  0.0000E+00  0.0000E+00  0.0000E+00  0.0000E+00  0.0000E+00  0.0000E+00  0.0000E+00  0.0000E+00  0.0000E+00  0.0000E+00  0.0000E+00  0.0000E+00  0.0000E+00  0.0000E+00  0.0000E+00  0.0000E+00  0.0000E+00
    -46.008  0.0000E+00  0.0000E+00  0.0000E+00  0.0000E+00  0.0000E+00  0.0000E+00  0.0000E+00  0.0000E+00  0.0000E+00  0.0000E+00  0.0000E+00  0.0000E+00  0.0000E+00  0.0000E+00  0.0000E+00  0.0000E+00  0.0000E+00  0.0000E+00
    -45.791  0.0000E+00  0.0000E+00  0.0000E+00  0.0000E+00  0.0000E+00  0.0000E+00  0.0000E+00  0.0000E+00  0.0000E+00  0.0000E+00  0.0000E+00  0.0000E+00  0.0000E+00  0.0000E+00  0.0000E+00  0.0000E+00  0.0000E+00  0.0000E+00
    -45.573  0.0000E+00  0.0000E+00  0.0000E+00  0.0000E+00  0.0000E+00  0.0000E+00  0.0000E+00  0.0000E+00  0.0000E+00  0.0000E+00  0.0000E+00  0.0000E+00  0.0000E+00  0.0000E+00  0.0000E+00  0.0000E+00  0.0000E+00  0.0000E+00
    -45.356  0.0000E+00  0.0000E+00  0.0000E+00  0.0000E+00  0.0000E+00  0.0000E+00  0.0000E+00  0.0000E+00  0.0000E+00  0.0000E+00  0.0000E+00  0.0000E+00  0.0000E+00  0.0000E+00  0.0000E+00  0.0000E+00  0.0000E+00  0.0000E+00
    -45.139  0.0000E+00  0.0000E+00  0.0000E+00  0.0000E+00  0.0000E+00  0.0000E+00  0.0000E+00  0.0000E+00  0.0000E+00  0.0000E+00  0.0000E+00  0.0000E+00  0.0000E+00  0.0000E+00  0.0000E+00  0.0000E+00  0.0000E+00  0.0000E+00
    -44.922  0.0000E+00  0.0000E+00  0.0000E+00  0.0000E+00  0.0000E+00  0.0000E+00  0.0000E+00  0.0000E+00  0.0000E+00  0.0000E+00  0.0000E+00  0.0000E+00  0.0000E+00  0.0000E+00  0.0000E+00  0.0000E+00  0.0000E+00  0.0000E+00
    -44.704  0.0000E+00  0.0000E+00  0.0000E+00  0.0000E+00  0.0000E+00  0.0000E+00  0.0000E+00  0.0000E+00  0.0000E+00  0.0000E+00  0.0000E+00  0.0000E+00  0.0000E+00  0.0000E+00  0.0000E+00  0.0000E+00  0.0000E+00  0.0000E+00
    -44.487  0.0000E+00  0.0000E+00  0.0000E+00  0.0000E+00  0.0000E+00  0.0000E+00  0.0000E+00  0.0000E+00  0.0000E+00  0.0000E+00  0.0000E+00  0.0000E+00  0.0000E+00  0.0000E+00  0.0000E+00  0.0000E+00  0.0000E+00  0.0000E+00
    -44.270  0.0000E+00  0.0000E+00  0.0000E+00  0.0000E+00  0.0000E+00  0.0000E+00  0.0000E+00  0.0000E+00  0.0000E+00  0.0000E+00  0.0000E+00  0.0000E+00  0.0000E+00  0.0000E+00  0.0000E+00  0.0000E+00  0.0000E+00  0.0000E+00
    -44.052  0.0000E+00  0.0000E+00  0.0000E+00  0.0000E+00  0.0000E+00  0.0000E+00  0.0000E+00  0.0000E+00  0.0000E+00  0.0000E+00  0.0000E+00  0.0000E+00  0.0000E+00  0.0000E+00  0.0000E+00  0.0000E+00  0.0000E+00  0.0000E+00
    -43.835  0.0000E+00  0.0000E+00  0.0000E+00  0.0000E+00  0.0000E+00  0.0000E+00  0.0000E+00  0.0000E+00  0.0000E+00  0.0000E+00  0.0000E+00  0.0000E+00  0.0000E+00  0.0000E+00  0.0000E+00  0.0000E+00  0.0000E+00  0.0000E+00
    -43.618  0.0000E+00  0.0000E+00  0.0000E+00  0.0000E+00  0.0000E+00  0.0000E+00  0.0000E+00  0.0000E+00  0.0000E+00  0.0000E+00  0.0000E+00  0.0000E+00  0.0000E+00  0.0000E+00  0.0000E+00  0.0000E+00  0.0000E+00  0.0000E+00
    -43.400  0.0000E+00  0.0000E+00  0.0000E+00  0.0000E+00  0.0000E+00  0.0000E+00  0.0000E+00  0.0000E+00  0.0000E+00  0.0000E+00  0.0000E+00  0.0000E+00  0.0000E+00  0.0000E+00  0.0000E+00  0.0000E+00  0.0000E+00  0.0000E+00
    -43.183  0.0000E+00  0.0000E+00  0.0000E+00  0.0000E+00  0.0000E+00  0.0000E+00  0.0000E+00  0.0000E+00  0.0000E+00  0.0000E+00  0.0000E+00  0.0000E+00  0.0000E+00  0.0000E+00  0.0000E+00  0.0000E+00  0.0000E+00  0.0000E+00
    -42.966  0.0000E+00  0.0000E+00  0.0000E+00  0.0000E+00  0.0000E+00  0.0000E+00  0.0000E+00  0.0000E+00  0.0000E+00  0.0000E+00  0.0000E+00  0.0000E+00  0.0000E+00  0.0000E+00  0.0000E+00  0.0000E+00  0.0000E+00  0.0000E+00
    -42.749  0.0000E+00  0.0000E+00  0.0000E+00  0.0000E+00  0.0000E+00  0.0000E+00  0.0000E+00  0.0000E+00  0.0000E+00  0.0000E+00  0.0000E+00  0.0000E+00  0.0000E+00  0.0000E+00  0.0000E+00  0.0000E+00  0.0000E+00  0.0000E+00
    -42.531  0.0000E+00  0.0000E+00  0.0000E+00  0.0000E+00  0.0000E+00  0.0000E+00  0.0000E+00  0.0000E+00  0.0000E+00  0.0000E+00  0.0000E+00  0.0000E+00  0.0000E+00  0.0000E+00  0.0000E+00  0.0000E+00  0.0000E+00  0.0000E+00
    -42.314  0.0000E+00  0.0000E+00  0.0000E+00  0.0000E+00  0.0000E+00  0.0000E+00  0.0000E+00  0.0000E+00  0.0000E+00  0.0000E+00  0.0000E+00  0.0000E+00  0.0000E+00  0.0000E+00  0.0000E+00  0.0000E+00  0.0000E+00  0.0000E+00