  16  16   1   0
  0.1818750E+02  0.7327747E-09  0.7327747E-09  0.5487141E-09  0.5000000E-15
  1.000000000000000E-004
  CAR 
 unknown system                          
     12.00483436    -53.19346682  301      4.45553860      1.00000000
    -53.193  0.0000E+00  0.0000E+00  0.0000E+00  0.0000E+00
    -52.976  0.0000E+00  0.0000E+00  0.0000E+00  0.0000E+00
    -52.759  0.0000E+00  0.0000E+00  0.0000E+00  0.0000E+00
    -52.541  0.0000E+00  0.0000E+00  0.0000E+00  0.0000E+00
    -52.324  0.0000E+00  0.0000E+00  0.0000E+00  0.0000E+00
    -52.107  0.0000E+00  0.0000E+00  0.0000E+00  0.0000E+00
    -51.890  0.0000E+00  0.0000E+00  0.0000E+00  0.0000E+00
    -51.672  0.0000E+00  0.0000E+00  0.0000E+00  0.0000E+00
    -51.455  0.0000E+00  0.0000E+00  0.0000E+00  0.0000E+00
    -51.238  0.0000E+00  0.0000E+00  0.0000E+00  0.0000E+00
    -51.020  0.0000E+00  0.0000E+00  0.0000E+00  0.0000E+00
    -50.803  0.0000E+00  0.0000E+00  0.0000E+00  0.0000E+00
    -50.586  0.0000E+00  0.0000E+00  0.0000E+00  0.0000E+00
    -50.368  0.2918E-05  0.2918E-05  0.6342E-06  0.6342E-06
    -50.151  0.1958E+00  0.1958E+00  0.4256E-01  0.4256E-01
    -49.934  0.2792E+00  0.2792E+00  0.1033E+00  0.1033E+00
    -49.716  0.8176E-01  0.8176E-01  0.1210E+00  0.1210E+00
    -49.499  0.8920E-03  0.8920E-03  0.1212E+00  0.1212E+00
    -49.282  0.0000E+00  0.0000E+00  0.1212E+00  0.1212E+00
    -49.064  0.0000E+00  0.0000E+00  0.1212E+00  0.1212E+00
    -48.847  0.0000E+00  0.0000E+00  0.1212E+00  0.1212E+00
    -48.630  0.0000E+00  0.0000E+00  0.1212E+00  0.1212E+00
    -48.412  0.0000E+00  0.0000E+00  0.1212E+00  0.1212E+00
    -48.195  0.0000E+00  0.0000E+00  0.1212E+00  0.1212E+00
    -47.978  0.0000E+00  0.0000E+00  0.1212E+00  0.1212E+00
    -47.760  0.4650E-10  0.4650E-10  0.1212E+00  0.1212E+00
    -47.543  0.9583E-01  0.9583E-01  0.1420E+00  0.1420E+00
    -47.326  0.1826E+00  0.1826E+00  0.1817E+00  0.1817E+00
    -47.108  0.2663E+00  0.2663E+00  0.2396E+00  0.2396E+00
    -46.891  0.1298E-01  0.1298E-01  0.2424E+00  0.2424E+00
    -46.674  0.0000E+00  0.0000E+00  0.2424E+00  0.2424E+00
    -46.456  0.0000E+00  0.0000E+00  0.2424E+00  0.2424E+00
    -46.239  0.0000E+00  0.0000E+00  0.2424E+00  0.2424E+00
    -46.022  0.0000E+00  0.0000E+00  0.2424E+00  0.2424E+00
    -45.804  0.0000E+00  0.0000E+00  0.2424E+00  0.2424E+00
    -45.587  0.0000E+00  0.0000E+00  0.2424E+00  0.2424E+00
    -45.370  0.0000E+00  0.0000E+00  0.2424E+00  0.2424E+00
    -45.152  0.0000E+00  0.0000E+00  0.2424E+00  0.2424E+00
    -44.935  0.0000E+00  0.0000E+00  0.2424E+00  0.2424E+00
    -44.718  0.0000E+00  0.0000E+00  0.2424E+00  0.2424E+00
    -44.500  0.0000E+00  0.0000E+00  0.2424E+00  0.2424E+00
    -44.283  0.0000E+00  0.0000E+00  0.2424E+00  0.2424E+00
    -44.066  0.0000E+00  0.0000E+00  0.2424E+00  0.2424E+00
    -43.848  0.0000E+00  0.0000E+00  0.2424E+00  0.2424E+00
    -43.631  0.0000E+00  0.0000E+00  0.2424E+00  0.2424E+00
    -43.414  0.0000E+00  0.0000E+00  0.2424E+00  0.2424E+00
    -43.196  0.0000E+00  0.0000E+00  0.2424E+00  0.2424E+00
    -42.979  0.0000E+00  0.0000E+00  0.2424E+00  0.2424E+00
    -42.762  0.0000E+00  0.0000E+00  0.2424E+00  0.2424E+00
    -42.544  0.0000E+00  0.0000E+00  0.2424E+00  0.2424E+00
    -42.327  0.0000E+00  0.0000E+00  0.2424E+00  0.2424E+00
    -42.110  0.0000E+00  0.0000E+00  0.2424E+00  0.2424E+00
    -41.892  0.0000E+00  0.0000E+00  0.2424E+00  0.2424E+00
    -41.675  0.0000E+00  0.0000E+00  0.2424E+00  0.2424E+00
    -41.458  0.0000E+00  0.0000E+00  0.2424E+00  0.2424E+00
    -41.240  0.0000E+00  0.0000E+00  0.2424E+00  0.2424E+00
    -41.023  0.0000E+00  0.0000E+00  0.2424E+00  0.2424E+00
    -40.806  0.0000E+00  0.0000E+00  0.2424E+00  0.2424E+00
    -40.588  0.0000E+00  0.0000E+00  0.2424E+00  0.2424E+00
    -40.371  0.0000E+00  0.0000E+00  0.2424E+00  0.2424E+00
    -40.154  0.0000E+00  0.0000E+00  0.2424E+00  0.2424E+00
    -39.936  0.0000E+00  0.0000E+00  0.2424E+00  0.2424E+00
    -39.719  0.0000E+00  0.0000E+00  0.2424E+00  0.2424E+00
    -39.502  0.0000E+00  0.0000E+00  0.2424E+00  0.2424E+00
    -39.284  0.0000E+00  0.0000E+00  0.2424E+00  0.2424E+00
    -39.067  0.0000E+00  0.0000E+00  0.2424E+00  0.2424E+00
    -38.850  0.0000E+00  0.0000E+00  0.2424E+00  0.2424E+00
    -38.633  0.0000E+00  0.0000E+00  0.2424E+00  0.2424E+00
    -38.415  0.0000E+00  0.0000E+00  0.2424E+00  0.2424E+00
    -38.198  0.0000E+00  0.0000E+00  0.2424E+00  0.2424E+00
    -37.981  0.0000E+00  0.0000E+00  0.2424E+00  0.2424E+00
    -37.763  0.0000E+00  0.0000E+00  0.2424E+00  0.2424E+00
    -37.546  0.0000E+00  0.0000E+00  0.2424E+00  0.2424E+00
    -37.329  0.0000E+00  0.0000E+00  0.2424E+00  0.2424E+00
    -37.111  0.0000E+00  0.0000E+00  0.2424E+00  0.2424E+00
    -36.894  0.0000E+00  0.0000E+00  0.2424E+00  0.2424E+00
    -36.677  0.0000E+00  0.0000E+00  0.2424E+00  0.2424E+00
    -36.459  0.0000E+00  0.0000E+00  0.2424E+00  0.2424E+00
    -36.242  0.0000E+00  0.0000E+00  0.2424E+00  0.2424E+00
    -36.025  0.0000E+00  0.0000E+00  0.2424E+00  0.2424E+00
    -35.807  0.0000E+00  0.0000E+00  0.2424E+00  0.2424E+00
    -35.590  0.0000E+00  0.0000E+00  0.2424E+00  0.2424E+00
    -35.373  0.0000E+00  0.0000E+00  0.2424E+00  0.2424E+00
    -35.155  0.0000E+00  0.0000E+00  0.2424E+00  0.2424E+00
    -34.938  0.0000E+00  0.0000E+00  0.2424E+00  0.2424E+00
    -34.721  0.0000E+00  0.0000E+00  0.2424E+00  0.2424E+00
    -34.503  0.0000E+00  0.0000E+00  0.2424E+00  0.2424E+00
    -34.286  0.0000E+00  0.0000E+00  0.2424E+00  0.2424E+00
    -34.069  0.0000E+00  0.0000E+00  0.2424E+00  0.2424E+00
    -33.851  0.0000E+00  0.0000E+00  0.2424E+00  0.2424E+00
    -33.634  0.0000E+00  0.0000E+00  0.2424E+00  0.2424E+00
    -33.417  0.0000E+00  0.0000E+00  0.2424E+00  0.2424E+00
    -33.199  0.0000E+00  0.0000E+00  0.2424E+00  0.2424E+00
    -32.982  0.0000E+00  0.0000E+00  0.2424E+00  0.2424E+00
    -32.765  0.0000E+00  0.0000E+00  0.2424E+00  0.2424E+00
    -32.547  0.0000E+00  0.0000E+00  0.2424E+00  0.2424E+00
    -32.330  0.0000E+00  0.0000E+00  0.2424E+00  0.2424E+00
    -32.113  0.0000E+00  0.0000E+00  0.2424E+00  0.2424E+00
    -31.895  0.0000E+00  0.0000E+00  0.2424E+00  0.2424E+00
    -31.678  0.0000E+00  0.0000E+00  0.2424E+00  0.2424E+00
    -31.461  0.0000E+00  0.0000E+00  0.2424E+00  0.2424E+00
    -31.243  0.0000E+00  0.0000E+00  0.2424E+00  0.2424E+00
    -31.026  0.0000E+00  0.0000E+00  0.2424E+00  0.2424E+00
    -30.809  0.0000E+00  0.0000E+00  0.2424E+00  0.2424E+00
    -30.591  0.0000E+00  0.0000E+00  0.2424E+00  0.2424E+00
    -30.374  0.0000E+00  0.0000E+00  0.2424E+00  0.2424E+00
    -30.157  0.0000E+00  0.0000E+00  0.2424E+00  0.2424E+00
    -29.939  0.0000E+00  0.0000E+00  0.2424E+00  0.2424E+00
    -29.722  0.0000E+00  0.0000E+00  0.2424E+00  0.2424E+00
    -29.505  0.0000E+00  0.0000E+00  0.2424E+00  0.2424E+00
    -29.287  0.0000E+00  0.0000E+00  0.2424E+00  0.2424E+00
    -29.070  0.0000E+00  0.0000E+00  0.2424E+00  0.2424E+00
    -28.853  0.0000E+00  0.0000E+00  0.2424E+00  0.2424E+00
    -28.635  0.0000E+00  0.0000E+00  0.2424E+00  0.2424E+00
    -28.418  0.0000E+00  0.0000E+00  0.2424E+00  0.2424E+00
    -28.201  0.0000E+00  0.0000E+00  0.2424E+00  0.2424E+00
    -27.983  0.0000E+00  0.0000E+00  0.2424E+00  0.2424E+00
    -27.766  0.0000E+00  0.0000E+00  0.2424E+00  0.2424E+00
    -27.549  0.0000E+00  0.0000E+00  0.2424E+00  0.2424E+00
    -27.331  0.0000E+00  0.0000E+00  0.2424E+00  0.2424E+00
    -27.114  0.0000E+00  0.0000E+00  0.2424E+00  0.2424E+00
    -26.897  0.0000E+00  0.0000E+00  0.2424E+00  0.2424E+00
    -26.679  0.0000E+00  0.0000E+00  0.2424E+00  0.2424E+00
    -26.462  0.0000E+00  0.0000E+00  0.2424E+00  0.2424E+00
    -26.245  0.0000E+00  0.0000E+00  0.2424E+00  0.2424E+00
    -26.028  0.0000E+00  0.0000E+00  0.2424E+00  0.2424E+00
    -25.810  0.0000E+00  0.0000E+00  0.2424E+00  0.2424E+00
    -25.593  0.0000E+00  0.0000E+00  0.2424E+00  0.2424E+00
    -25.376  0.0000E+00  0.0000E+00  0.2424E+00  0.2424E+00
    -25.158  0.0000E+00  0.0000E+00  0.2424E+00  0.2424E+00
    -24.941  0.0000E+00  0.0000E+00  0.2424E+00  0.2424E+00
    -24.724  0.0000E+00  0.0000E+00  0.2424E+00  0.2424E+00
    -24.506  0.0000E+00  0.0000E+00  0.2424E+00  0.2424E+00
    -24.289  0.0000E+00  0.0000E+00  0.2424E+00  0.2424E+00
    -24.072  0.0000E+00  0.0000E+00  0.2424E+00  0.2424E+00
    -23.854  0.0000E+00  0.0000E+00  0.2424E+00  0.2424E+00
    -23.637  0.0000E+00  0.0000E+00  0.2424E+00  0.2424E+00
    -23.420  0.0000E+00  0.0000E+00  0.2424E+00  0.2424E+00
    -23.202  0.0000E+00  0.0000E+00  0.2424E+00  0.2424E+00
    -22.985  0.0000E+00  0.0000E+00  0.2424E+00  0.2424E+00
    -22.768  0.0000E+00  0.0000E+00  0.2424E+00  0.2424E+00
    -22.550  0.0000E+00  0.0000E+00  0.2424E+00  0.2424E+00
    -22.333  0.0000E+00  0.0000E+00  0.2424E+00  0.2424E+00
    -22.116  0.0000E+00  0.0000E+00  0.2424E+00  0.2424E+00
    -21.898  0.0000E+00  0.0000E+00  0.2424E+00  0.2424E+00
    -21.681  0.0000E+00  0.0000E+00  0.2424E+00  0.2424E+00
    -21.464  0.0000E+00  0.0000E+00  0.2424E+00  0.2424E+00
    -21.246  0.0000E+00  0.0000E+00  0.2424E+00  0.2424E+00
    -21.029  0.0000E+00  0.0000E+00  0.2424E+00  0.2424E+00
    -20.812  0.0000E+00  0.0000E+00  0.2424E+00  0.2424E+00
    -20.594  0.0000E+00  0.0000E+00  0.2424E+00  0.2424E+00
    -20.377  0.0000E+00  0.0000E+00  0.2424E+00  0.2424E+00
    -20.160  0.0000E+00  0.0000E+00  0.2424E+00  0.2424E+00
    -19.942  0.0000E+00  0.0000E+00  0.2424E+00  0.2424E+00
    -19.725  0.0000E+00  0.0000E+00  0.2424E+00  0.2424E+00
    -19.508  0.0000E+00  0.0000E+00  0.2424E+00  0.2424E+00
    -19.290  0.0000E+00  0.0000E+00  0.2424E+00  0.2424E+00
    -19.073  0.0000E+00  0.0000E+00  0.2424E+00  0.2424E+00
    -18.856  0.0000E+00  0.0000E+00  0.2424E+00  0.2424E+00
    -18.638  0.0000E+00  0.0000E+00  0.2424E+00  0.2424E+00
    -18.421  0.0000E+00  0.0000E+00  0.2424E+00  0.2424E+00
    -18.204  0.0000E+00  0.0000E+00  0.2424E+00  0.2424E+00
    -17.986  0.0000E+00  0.0000E+00  0.2424E+00  0.2424E+00
    -17.769  0.0000E+00  0.0000E+00  0.2424E+00  0.2424E+00
    -17.552  0.0000E+00  0.0000E+00  0.2424E+00  0.2424E+00
    -17.334  0.0000E+00  0.0000E+00  0.2424E+00  0.2424E+00
    -17.117  0.0000E+00  0.0000E+00  0.2424E+00  0.2424E+00
    -16.900  0.0000E+00  0.0000E+00  0.2424E+00  0.2424E+00
    -16.682  0.0000E+00  0.0000E+00  0.2424E+00  0.2424E+00
    -16.465  0.0000E+00  0.0000E+00  0.2424E+00  0.2424E+00
    -16.248  0.0000E+00  0.0000E+00  0.2424E+00  0.2424E+00
    -16.030  0.0000E+00  0.0000E+00  0.2424E+00  0.2424E+00
    -15.813  0.0000E+00  0.0000E+00  0.2424E+00  0.2424E+00
    -15.596  0.0000E+00  0.0000E+00  0.2424E+00  0.2424E+00
    -15.378  0.0000E+00  0.0000E+00  0.2424E+00  0.2424E+00
    -15.161  0.0000E+00  0.0000E+00  0.2424E+00  0.2424E+00
    -14.944  0.0000E+00  0.0000E+00  0.2424E+00  0.2424E+00
    -14.726  0.0000E+00  0.0000E+00  0.2424E+00  0.2424E+00
    -14.509  0.0000E+00  0.0000E+00  0.2424E+00  0.2424E+00
    -14.292  0.0000E+00  0.0000E+00  0.2424E+00  0.2424E+00
    -14.074  0.0000E+00  0.0000E+00  0.2424E+00  0.2424E+00
    -13.857  0.0000E+00  0.0000E+00  0.2424E+00  0.2424E+00
    -13.640  0.0000E+00  0.0000E+00  0.2424E+00  0.2424E+00
    -13.423  0.0000E+00  0.0000E+00  0.2424E+00  0.2424E+00
    -13.205  0.0000E+00  0.0000E+00  0.2424E+00  0.2424E+00
    -12.988  0.0000E+00  0.0000E+00  0.2424E+00  0.2424E+00
    -12.771  0.0000E+00  0.0000E+00  0.2424E+00  0.2424E+00
    -12.553  0.0000E+00  0.0000E+00  0.2424E+00  0.2424E+00
    -12.336  0.0000E+00  0.0000E+00  0.2424E+00  0.2424E+00
    -12.119  0.0000E+00  0.0000E+00  0.2424E+00  0.2424E+00
    -11.901  0.0000E+00  0.0000E+00  0.2424E+00  0.2424E+00
    -11.684  0.0000E+00  0.0000E+00  0.2424E+00  0.2424E+00
    -11.467  0.0000E+00  0.0000E+00  0.2424E+00  0.2424E+00
    -11.249  0.0000E+00  0.0000E+00  0.2424E+00  0.2424E+00
    -11.032  0.0000E+00  0.0000E+00  0.2424E+00  0.2424E+00
    -10.815  0.0000E+00  0.0000E+00  0.2424E+00  0.2424E+00
    -10.597  0.0000E+00  0.0000E+00  0.2424E+00  0.2424E+00
    -10.380  0.1598E-05  0.1598E-05  0.2424E+00  0.2424E+00
    -10.163  0.3298E-02  0.3298E-02  0.2431E+00  0.2431E+00
     -9.945  0.1181E-01  0.1181E-01  0.2457E+00  0.2457E+00
     -9.728  0.1917E-01  0.1917E-01  0.2499E+00  0.2499E+00
     -9.511  0.2282E-01  0.2282E-01  0.2548E+00  0.2548E+00
     -9.293  0.2637E-01  0.2637E-01  0.2606E+00  0.2606E+00
     -9.076  0.3108E-01  0.3108E-01  0.2673E+00  0.2673E+00
     -8.859  0.4247E-01  0.4247E-01  0.2765E+00  0.2765E+00
     -8.641  0.6375E-01  0.6375E-01  0.2904E+00  0.2904E+00
     -8.424  0.6512E-01  0.6512E-01  0.3046E+00  0.3046E+00
     -8.207  0.6219E-01  0.6219E-01  0.3181E+00  0.3181E+00
     -7.989  0.2355E-01  0.2355E-01  0.3232E+00  0.3232E+00
     -7.772  0.2203E-03  0.2203E-03  0.3232E+00  0.3232E+00
     -7.555  0.0000E+00  0.0000E+00  0.3232E+00  0.3232E+00
     -7.337  0.0000E+00  0.0000E+00  0.3232E+00  0.3232E+00
     -7.120  0.0000E+00  0.0000E+00  0.3232E+00  0.3232E+00
     -6.903  0.0000E+00  0.0000E+00  0.3232E+00  0.3232E+00
     -6.685  0.0000E+00  0.0000E+00  0.3232E+00  0.3232E+00
     -6.468  0.0000E+00  0.0000E+00  0.3232E+00  0.3232E+00
     -6.251  0.0000E+00  0.0000E+00  0.3232E+00  0.3232E+00
     -6.033  0.0000E+00  0.0000E+00  0.3232E+00  0.3232E+00
     -5.816  0.0000E+00  0.0000E+00  0.3232E+00  0.3232E+00
     -5.599  0.0000E+00  0.0000E+00  0.3232E+00  0.3232E+00
     -5.381  0.0000E+00  0.0000E+00  0.3232E+00  0.3232E+00
     -5.164  0.0000E+00  0.0000E+00  0.3232E+00  0.3232E+00
     -4.947  0.0000E+00  0.0000E+00  0.3232E+00  0.3232E+00
     -4.729  0.0000E+00  0.0000E+00  0.3232E+00  0.3232E+00
     -4.512  0.0000E+00  0.0000E+00  0.3232E+00  0.3232E+00
     -4.295  0.0000E+00  0.0000E+00  0.3232E+00  0.3232E+00
     -4.077  0.0000E+00  0.0000E+00  0.3232E+00  0.3232E+00
     -3.860  0.0000E+00  0.0000E+00  0.3232E+00  0.3232E+00
     -3.643  0.0000E+00  0.0000E+00  0.3232E+00  0.3232E+00
     -3.425  0.0000E+00  0.0000E+00  0.3232E+00  0.3232E+00
     -3.208  0.0000E+00  0.0000E+00  0.3232E+00  0.3232E+00
     -2.991  0.0000E+00  0.0000E+00  0.3232E+00  0.3232E+00
     -2.773  0.0000E+00  0.0000E+00  0.3232E+00  0.3232E+00
     -2.556  0.0000E+00  0.0000E+00  0.3232E+00  0.3232E+00
     -2.339  0.0000E+00  0.0000E+00  0.3232E+00  0.3232E+00
     -2.121  0.9689E-10  0.9689E-10  0.3232E+00  0.3232E+00
     -1.904  0.3367E-03  0.3367E-03  0.3233E+00  0.3233E+00
     -1.687  0.7312E-02  0.7312E-02  0.3249E+00  0.3249E+00
     -1.469  0.2941E-01  0.2941E-01  0.3313E+00  0.3313E+00
     -1.252  0.5978E-01  0.5978E-01  0.3443E+00  0.3443E+00
     -1.035  0.7021E-01  0.7021E-01  0.3595E+00  0.3595E+00
     -0.817  0.5609E-01  0.5609E-01  0.3717E+00  0.3717E+00
     -0.600  0.5995E-01  0.5995E-01  0.3848E+00  0.3848E+00
     -0.383  0.3889E-01  0.3889E-01  0.3932E+00  0.3932E+00
     -0.166  0.3900E-01  0.3900E-01  0.4017E+00  0.4017E+00
      0.052  0.5456E-01  0.5456E-01  0.4135E+00  0.4135E+00
      0.269  0.4996E-01  0.4996E-01  0.4244E+00  0.4244E+00
      0.486  0.7951E-01  0.7951E-01  0.4417E+00  0.4417E+00
      0.704  0.9334E-01  0.9334E-01  0.4620E+00  0.4620E+00
      0.921  0.1052E+00  0.1052E+00  0.4848E+00  0.4848E+00
      1.138  0.1147E+00  0.1147E+00  0.5098E+00  0.5098E+00
      1.356  0.9440E-01  0.9440E-01  0.5303E+00  0.5303E+00
      1.573  0.7733E-01  0.7733E-01  0.5471E+00  0.5471E+00
      1.790  0.7122E-01  0.7122E-01  0.5626E+00  0.5626E+00
      2.008  0.1095E+00  0.1095E+00  0.5864E+00  0.5864E+00
      2.225  0.1077E+00  0.1077E+00  0.6098E+00  0.6098E+00
      2.442  0.1343E+00  0.1343E+00  0.6389E+00  0.6389E+00
      2.660  0.1588E+00  0.1588E+00  0.6735E+00  0.6735E+00
      2.877  0.1333E+00  0.1333E+00  0.7024E+00  0.7024E+00
      3.094  0.8778E-01  0.8778E-01  0.7215E+00  0.7215E+00
      3.312  0.6703E-01  0.6703E-01  0.7361E+00  0.7361E+00
      3.529  0.6657E-01  0.6657E-01  0.7506E+00  0.7506E+00
      3.746  0.5937E-01  0.5937E-01  0.7635E+00  0.7635E+00
      3.964  0.4463E-01  0.4463E-01  0.7732E+00  0.7732E+00
      4.181  0.6533E-01  0.6533E-01  0.7874E+00  0.7874E+00
      4.398  0.7245E-01  0.7245E-01  0.8031E+00  0.8031E+00
      4.616  0.6859E-01  0.6859E-01  0.8180E+00  0.8180E+00
      4.833  0.1060E+00  0.1060E+00  0.8411E+00  0.8411E+00
      5.050  0.1282E+00  0.1282E+00  0.8689E+00  0.8689E+00
      5.268  0.9279E-01  0.9279E-01  0.8891E+00  0.8891E+00
      5.485  0.8926E-01  0.8926E-01  0.9085E+00  0.9085E+00
      5.702  0.8324E-01  0.8324E-01  0.9266E+00  0.9266E+00
      5.920  0.1016E+00  0.1016E+00  0.9487E+00  0.9487E+00
      6.137  0.4570E-01  0.4570E-01  0.9586E+00  0.9586E+00
      6.354  0.1289E-01  0.1289E-01  0.9614E+00  0.9614E+00
      6.572  0.1292E-01  0.1292E-01  0.9642E+00  0.9642E+00
      6.789  0.1701E-01  0.1701E-01  0.9679E+00  0.9679E+00
      7.006  0.1105E-01  0.1105E-01  0.9703E+00  0.9703E+00
      7.224  0.7015E-02  0.7015E-02  0.9718E+00  0.9718E+00
      7.441  0.9154E-02  0.9154E-02  0.9738E+00  0.9738E+00
      7.658  0.1322E-01  0.1322E-01  0.9767E+00  0.9767E+00
      7.876  0.1454E-01  0.1454E-01  0.9798E+00  0.9798E+00
      8.093  0.2584E-01  0.2585E-01  0.9855E+00  0.9855E+00
      8.310  0.4012E-01  0.4010E-01  0.9942E+00  0.9942E+00
      8.528  0.4052E-01  0.4059E-01  0.1003E+01  0.1003E+01
      8.745  0.2156E-01  0.2143E-01  0.1008E+01  0.1008E+01
      8.962  0.9762E-02  0.9906E-02  0.1010E+01  0.1010E+01
      9.180  0.1405E-02  0.1328E-02  0.1010E+01  0.1010E+01
      9.397  0.3864E-07  0.3725E-07  0.1010E+01  0.1010E+01
      9.614  0.0000E+00  0.0000E+00  0.1010E+01  0.1010E+01
      9.832  0.0000E+00  0.0000E+00  0.1010E+01  0.1010E+01
     10.049  0.0000E+00  0.0000E+00  0.1010E+01  0.1010E+01
     10.266  0.0000E+00  0.0000E+00  0.1010E+01  0.1010E+01
     10.484  0.0000E+00  0.0000E+00  0.1010E+01  0.1010E+01
     10.701  0.0000E+00  0.0000E+00  0.1010E+01  0.1010E+01
     10.918  0.0000E+00  0.0000E+00  0.1010E+01  0.1010E+01
     11.136  0.0000E+00  0.0000E+00  0.1010E+01  0.1010E+01
     11.353  0.0000E+00  0.0000E+00  0.1010E+01  0.1010E+01
     11.570  0.0000E+00  0.0000E+00  0.1010E+01  0.1010E+01
     11.788  0.0000E+00  0.0000E+00  0.1010E+01  0.1010E+01
     12.005  0.0000E+00  0.0000E+00  0.1010E+01  0.1010E+01
     12.00483436    -53.19346682  301      4.45553860      1.00000000
    -53.193  0.0000E+00  0.0000E+00  0.0000E+00  0.0000E+00  0.0000E+00  0.0000E+00  0.0000E+00  0.0000E+00  0.0000E+00  0.0000E+00  0.0000E+00  0.0000E+00  0.0000E+00  0.0000E+00  0.0000E+00  0.0000E+00  0.0000E+00  0.0000E+00
    -52.976  0.0000E+00  0.0000E+00  0.0000E+00  0.0000E+00  0.0000E+00  0.0000E+00  0.0000E+00  0.0000E+00  0.0000E+00  0.0000E+00  0.0000E+00  0.0000E+00  0.0000E+00  0.0000E+00  0.0000E+00  0.0000E+00  0.0000E+00  0.0000E+00
    -52.759  0.0000E+00  0.0000E+00  0.0000E+00  0.0000E+00  0.0000E+00  0.0000E+00  0.0000E+00  0.0000E+00  0.0000E+00  0.0000E+00  0.0000E+00  0.0000E+00  0.0000E+00  0.0000E+00  0.0000E+00  0.0000E+00  0.0000E+00  0.0000E+00
    -52.541  0.0000E+00  0.0000E+00  0.0000E+00  0.0000E+00  0.0000E+00  0.0000E+00  0.0000E+00  0.0000E+00  0.0000E+00  0.0000E+00  0.0000E+00  0.0000E+00  0.0000E+00  0.0000E+00  0.0000E+00  0.0000E+00  0.0000E+00  0.0000E+00
    -52.324  0.0000E+00  0.0000E+00  0.0000E+00  0.0000E+00  0.0000E+00  0.0000E+00  0.0000E+00  0.0000E+00  0.0000E+00  0.0000E+00  0.0000E+00  0.0000E+00  0.0000E+00  0.0000E+00  0.0000E+00  0.0000E+00  0.0000E+00  0.0000E+00
    -52.107  0.0000E+00  0.0000E+00  0.0000E+00  0.0000E+00  0.0000E+00  0.0000E+00  0.0000E+00  0.0000E+00  0.0000E+00  0.0000E+00  0.0000E+00  0.0000E+00  0.0000E+00  0.0000E+00  0.0000E+00  0.0000E+00  0.0000E+00  0.0000E+00
    -51.890  0.0000E+00  0.0000E+00  0.0000E+00  0.0000E+00  0.0000E+00  0.0000E+00  0.0000E+00  0.0000E+00  0.0000E+00  0.0000E+00  0.0000E+00  0.0000E+00  0.0000E+00  0.0000E+00  0.0000E+00  0.0000E+00  0.0000E+00  0.0000E+00
    -51.672  0.0000E+00  0.0000E+00  0.0000E+00  0.0000E+00  0.0000E+00  0.0000E+00  0.0000E+00  0.0000E+00  0.0000E+00  0.0000E+00  0.0000E+00  0.0000E+00  0.0000E+00  0.0000E+00  0.0000E+00  0.0000E+00  0.0000E+00  0.0000E+00
    -51.455  0.0000E+00  0.0000E+00  0.0000E+00  0.0000E+00  0.0000E+00  0.0000E+00  0.0000E+00  0.0000E+00  0.0000E+00  0.0000E+00  0.0000E+00  0.0000E+00  0.0000E+00  0.0000E+00  0.0000E+00  0.0000E+00  0.0000E+00  0.0000E+00
    -51.238  0.0000E+00  0.0000E+00  0.0000E+00  0.0000E+00  0.0000E+00  0.0000E+00  0.0000E+00  0.0000E+00  0.0000E+00  0.0000E+00  0.0000E+00  0.0000E+00  0.0000E+00  0.0000E+00  0.0000E+00  0.0000E+00  0.0000E+00  0.0000E+00
    -51.020  0.0000E+00  0.0000E+00  0.0000E+00  0.0000E+00  0.0000E+00  0.0000E+00  0.0000E+00  0.0000E+00  0.0000E+00  0.0000E+00  0.0000E+00  0.0000E+00  0.0000E+00  0.0000E+00  0.0000E+00  0.0000E+00  0.0000E+00  0.0000E+00
    -50.803  0.0000E+00  0.0000E+00  0.0000E+00  0.0000E+00  0.0000E+00  0.0000E+00  0.0000E+00  0.0000E+00  0.0000E+00  0.0000E+00  0.0000E+00  0.0000E+00  0.0000E+00  0.0000E+00  0.0000E+00  0.0000E+00  0.0000E+00  0.0000E+00
    -50.586  0.0000E+00  0.0000E+00  0.0000E+00  0.0000E+00  0.0000E+00  0.0000E+00  0.0000E+00  0.0000E+00  0.0000E+00  0.0000E+00  0.0000E+00  0.0000E+00  0.0000E+00  0.0000E+00  0.0000E+00  0.0000E+00  0.0000E+00  0.0000E+00
    -50.368  0.1223E-14  0.2245E-10  0.1033E-04  0.1270E-08  0.6158E-04  0.1598E-09  0.1212E-09  0.5346E-12  0.2048E-10  0.4883E-13  0.5968E-15  0.8295E-11  0.1092E-14  0.6479E-11  0.1082E-09  0.5142E-14  0.2101E-14  0.2671E-10
    -50.151  0.3760E-05  0.1914E-05  0.8537E+00  0.1074E-03  0.3596E+01  0.9792E-05  0.3757E+00  0.6124E-06  0.1991E-05  0.4391E-07  0.5632E-10  0.4867E-06  0.1737E-05  0.5840E-06  0.8557E-05  0.4283E-09  0.5208E-05  0.2161E-05
    -49.934  0.1082E-03  0.6626E-05  0.3728E+01  0.4150E-03  0.9864E+00  0.1401E-05  0.2168E+01  0.2911E-05  0.8937E-05  0.2092E-06  0.4811E-09  0.2584E-07  0.4992E-04  0.2585E-05  0.2286E-05  0.2265E-09  0.1498E-03  0.8186E-05
    -49.716  0.7418E-04  0.5804E-08  0.1003E-02  0.2400E-06  0.1739E-03  0.1707E-08  0.2018E+01  0.1305E-05  0.1902E-08  0.1013E-06  0.3496E-09  0.4081E-10  0.3420E-04  0.2169E-08  0.3640E-09  0.1248E-09  0.1026E-03  0.2328E-08
    -49.499  0.1268E-06  0.6829E-11  0.9253E-12  0.2460E-09  0.1693E-13  0.2602E-11  0.2205E-01  0.1165E-07  0.1785E-12  0.9444E-09  0.6641E-12  0.4110E-12  0.5847E-07  0.2538E-11  0.3086E-13  0.2045E-11  0.1754E-06  0.3919E-12
    -49.282  0.0000E+00  0.0000E+00  0.0000E+00  0.0000E+00  0.0000E+00  0.0000E+00  0.0000E+00  0.0000E+00  0.0000E+00  0.0000E+00  0.0000E+00  0.0000E+00  0.0000E+00  0.0000E+00  0.0000E+00  0.0000E+00  0.0000E+00  0.0000E+00
    -49.064  0.0000E+00  0.0000E+00  0.0000E+00  0.0000E+00  0.0000E+00  0.0000E+00  0.0000E+00  0.0000E+00  0.0000E+00  0.0000E+00  0.0000E+00  0.0000E+00  0.0000E+00  0.0000E+00  0.0000E+00  0.0000E+00  0.0000E+00  0.0000E+00
    -48.847  0.0000E+00  0.0000E+00  0.0000E+00  0.0000E+00  0.0000E+00  0.0000E+00  0.0000E+00  0.0000E+00  0.0000E+00  0.0000E+00  0.0000E+00  0.0000E+00  0.0000E+00  0.0000E+00  0.0000E+00  0.0000E+00  0.0000E+00  0.0000E+00
    -48.630  0.0000E+00  0.0000E+00  0.0000E+00  0.0000E+00  0.0000E+00  0.0000E+00  0.0000E+00  0.0000E+00  0.0000E+00  0.0000E+00  0.0000E+00  0.0000E+00  0.0000E+00  0.0000E+00  0.0000E+00  0.0000E+00  0.0000E+00  0.0000E+00
    -48.412  0.0000E+00  0.0000E+00  0.0000E+00  0.0000E+00  0.0000E+00  0.0000E+00  0.0000E+00  0.0000E+00  0.0000E+00  0.0000E+00  0.0000E+00  0.0000E+00  0.0000E+00  0.0000E+00  0.0000E+00  0.0000E+00  0.0000E+00  0.0000E+00
    -48.195  0.0000E+00  0.0000E+00  0.0000E+00  0.0000E+00  0.0000E+00  0.0000E+00  0.0000E+00  0.0000E+00  0.0000E+00  0.0000E+00  0.0000E+00  0.0000E+00  0.0000E+00  0.0000E+00  0.0000E+00  0.0000E+00  0.0000E+00  0.0000E+00
    -47.978  0.0000E+00  0.0000E+00  0.0000E+00  0.0000E+00  0.0000E+00  0.0000E+00  0.0000E+00  0.0000E+00  0.0000E+00  0.0000E+00  0.0000E+00  0.0000E+00  0.0000E+00  0.0000E+00  0.0000E+00  0.0000E+00  0.0000E+00  0.0000E+00
    -47.760  0.1400E-14  0.1795E-16  0.7908E-13  0.4920E-09  0.1571E-14  0.6463E-09  0.6713E-16  0.7533E-11  0.2129E-17  0.1291E-14  0.1643E-15  0.3206E-19  0.4504E-15  0.8276E-17  0.3463E-19  0.1672E-14  0.1642E-14  0.2489E-16
    -47.543  0.2714E-05  0.2063E-05  0.1567E-03  0.9516E+00  0.2908E-05  0.1191E+01  0.5199E-06  0.2189E+00  0.3442E-07  0.2658E-05  0.2983E-06  0.1084E-09  0.8769E-06  0.9512E-06  0.8529E-10  0.3360E-05  0.3124E-05  0.2865E-05
    -47.326  0.3118E-05  0.1073E-03  0.1812E-03  0.1092E+01  0.3297E-05  0.1348E+01  0.3454E-05  0.2059E+01  0.2672E-06  0.3083E-05  0.3361E-06  0.2435E-08  0.1009E-05  0.4951E-04  0.2131E-09  0.3871E-05  0.3567E-05  0.1491E-03
    -47.108  0.5943E-05  0.1112E-03  0.2803E-03  0.2515E+01  0.1845E-05  0.2025E+01  0.1908E-05  0.2031E+01  0.1563E-06  0.7204E-05  0.1148E-06  0.2361E-08  0.2394E-05  0.5131E-04  0.2138E-09  0.5863E-05  0.7337E-05  0.1545E-03
    -46.891  0.5915E-07  0.2817E-05  0.2840E-05  0.2540E-01  0.1843E-07  0.2001E-01  0.1773E-06  0.2754E+00  0.1655E-07  0.7032E-07  0.1128E-08  0.6013E-10  0.2382E-07  0.1302E-05  0.1843E-10  0.5658E-07  0.7359E-07  0.3917E-05
    -46.674  0.0000E+00  0.0000E+00  0.0000E+00  0.0000E+00  0.0000E+00  0.0000E+00  0.0000E+00  0.0000E+00  0.0000E+00  0.0000E+00  0.0000E+00  0.0000E+00  0.0000E+00  0.0000E+00  0.0000E+00  0.0000E+00  0.0000E+00  0.0000E+00
    -46.456  0.0000E+00  0.0000E+00  0.0000E+00  0.0000E+00  0.0000E+00  0.0000E+00  0.0000E+00  0.0000E+00  0.0000E+00  0.0000E+00  0.0000E+00  0.0000E+00  0.0000E+00  0.0000E+00  0.0000E+00  0.0000E+00  0.0000E+00  0.0000E+00
    -46.239  0.0000E+00  0.0000E+00  0.0000E+00  0.0000E+00  0.0000E+00  0.0000E+00  0.0000E+00  0.0000E+00  0.0000E+00  0.0000E+00  0.0000E+00  0.0000E+00  0.0000E+00  0.0000E+00  0.0000E+00  0.0000E+00  0.0000E+00  0.0000E+00
    -46.022  0.0000E+00  0.0000E+00  0.0000E+00  0.0000E+00  0.0000E+00  0.0000E+00  0.0000E+00  0.0000E+00  0.0000E+00  0.0000E+00  0.0000E+00  0.0000E+00  0.0000E+00  0.0000E+00  0.0000E+00  0.0000E+00  0.0000E+00  0.0000E+00
    -45.804  0.0000E+00  0.0000E+00  0.0000E+00  0.0000E+00  0.0000E+00  0.0000E+00  0.0000E+00  0.0000E+00  0.0000E+00  0.0000E+00  0.0000E+00  0.0000E+00  0.0000E+00  0.0000E+00  0.0000E+00  0.0000E+00  0.0000E+00  0.0000E+00
    -45.587  0.0000E+00  0.0000E+00  0.0000E+00  0.0000E+00  0.0000E+00  0.0000E+00  0.0000E+00  0.0000E+00  0.0000E+00  0.0000E+00  0.0000E+00  0.0000E+00  0.0000E+00  0.0000E+00  0.0000E+00  0.0000E+00  0.0000E+00  0.0000E+00
    -45.370  0.0000E+00  0.0000E+00  0.0000E+00  0.0000E+00  0.0000E+00  0.0000E+00  0.0000E+00  0.0000E+00  0.0000E+00  0.0000E+00  0.0000E+00  0.0000E+00  0.0000E+00  0.0000E+00  0.0000E+00  0.0000E+00  0.0000E+00  0.0000E+00
    -45.152  0.0000E+00  0.0000E+00  0.0000E+00  0.0000E+00  0.0000E+00  0.0000E+00  0.0000E+00  0.0000E+00  0.0000E+00  0.0000E+00  0.0000E+00  0.0000E+00  0.0000E+00  0.0000E+00  0.0000E+00  0.0000E+00  0.0000E+00  0.0000E+00
    -44.935  0.0000E+00  0.0000E+00  0.0000E+00  0.0000E+00  0.0000E+00  0.0000E+00  0.0000E+00  0.0000E+00  0.0000E+00  0.0000E+00  0.0000E+00  0.0000E+00  0.0000E+00  0.0000E+00  0.0000E+00  0.0000E+00  0.0000E+00  0.0000E+00
    -44.718  0.0000E+00  0.0000E+00  0.0000E+00  0.0000E+00  0.0000E+00  0.0000E+00  0.0000E+00  0.0000E+00  0.0000E+00  0.0000E+00  0.0000E+00  0.0000E+00  0.0000E+00  0.0000E+00  0.0000E+00  0.0000E+00  0.0000E+00  0.0000E+00
    -44.500  0.0000E+00  0.0000E+00  0.0000E+00  0.0000E+00  0.0000E+00  0.0000E+00  0.0000E+00  0.0000E+00  0.0000E+00  0.0000E+00  0.0000E+00  0.0000E+00  0.0000E+00  0.0000E+00  0.0000E+00  0.0000E+00  0.0000E+00  0.0000E+00
    -44.283  0.0000E+00  0.0000E+00  0.0000E+00  0.0000E+00  0.0000E+00  0.0000E+00  0.0000E+00  0.0000E+00  0.0000E+00  0.0000E+00  0.0000E+00  0.0000E+00  0.0000E+00  0.0000E+00  0.0000E+00  0.0000E+00  0.0000E+00  0.0000E+00
    -44.066  0.0000E+00  0.0000E+00  0.0000E+00  0.0000E+00  0.0000E+00  0.0000E+00  0.0000E+00  0.0000E+00  0.0000E+00  0.0000E+00  0.0000E+00  0.0000E+00  0.0000E+00  0.0000E+00  0.0000E+00  0.0000E+00  0.0000E+00  0.0000E+00
    -43.848  0.0000E+00  0.0000E+00  0.0000E+00  0.0000E+00  0.0000E+00  0.0000E+00  0.0000E+00  0.0000E+00  0.0000E+00  0.0000E+00  0.0000E+00  0.0000E+00  0.0000E+00  0.0000E+00  0.0000E+00  0.0000E+00  0.0000E+00  0.0000E+00
    -43.631  0.0000E+00  0.0000E+00  0.0000E+00  0.0000E+00  0.0000E+00  0.0000E+00  0.0000E+00  0.0000E+00  0.0000E+00  0.0000E+00  0.0000E+00  0.0000E+00  0.0000E+00  0.0000E+00  0.0000E+00  0.0000E+00  0.0000E+00  0.0000E+00
    -43.414  0.0000E+00  0.0000E+00  0.0000E+00  0.0000E+00  0.0000E+00  0.0000E+00  0.0000E+00  0.0000E+00  0.0000E+00  0.0000E+00  0.0000E+00  0.0000E+00  0.0000E+00  0.0000E+00  0.0000E+00  0.0000E+00  0.0000E+00  0.0000E+00
    -43.196  0.0000E+00  0.0000E+00  0.0000E+00  0.0000E+00  0.0000E+00  0.0000E+00  0.0000E+00  0.0000E+00  0.0000E+00  0.0000E+00  0.0000E+00  0.0000E+00  0.0000E+00  0.0000E+00  0.0000E+00  0.0000E+00  0.0000E+00  0.0000E+00
    -42.979  0.0000E+00  0.0000E+00  0.0000E+00  0.0000E+00  0.0000E+00  0.0000E+00  0.0000E+00  0.0000E+00  0.0000E+00  0.0000E+00  0.0000E+00  0.0000E+00  0.0000E+00  0.0000E+00  0.0000E+00  0.0000E+00  0.0000E+00  0.0000E+00
    -42.762  0.0000E+00  0.0000E+00  0.0000E+00  0.0000E+00  0.0000E+00  0.0000E+00  0.0000E+00  0.0000E+00  0.0000E+00  0.0000E+00  0.0000E+00  0.0000E+00  0.0000E+00  0.0000E+00  0.0000E+00  0.0000E+00  0.0000E+00  0.0000E+00
    -42.544  0.0000E+00  0.0000E+00  0.0000E+00  0.0000E+00  0.0000E+00  0.0000E+00  0.0000E+00  0.0000E+00  0.0000E+00  0.0000E+00  0.0000E+00  0.0000E+00  0.0000E+00  0.0000E+00  0.0000E+00  0.0000E+00  0.0000E+00  0.0000E+00
    -42.327  0.0000E+00  0.0000E+00  0.0000E+00  0.0000E+00  0.0000E+00  0.0000E+00  0.0000E+00  0.0000E+00  0.0000E+00  0.0000E+00  0.0000E+00  0.0000E+00  0.0000E+00  0.0000E+00  0.0000E+00  0.0000E+00  0.0000E+00  0.0000E+00