  16  16   1   0
  0.1818750E+02  0.7321854E-09  0.7321854E-09  0.5492777E-09  0.5000000E-15
  1.000000000000000E-004
  CAR 
 unknown system                          
     12.14841738    -53.19746307  301      4.45967073      1.00000000
    -53.197  0.0000E+00  0.0000E+00  0.0000E+00  0.0000E+00
    -52.980  0.0000E+00  0.0000E+00  0.0000E+00  0.0000E+00
    -52.762  0.0000E+00  0.0000E+00  0.0000E+00  0.0000E+00
    -52.544  0.0000E+00  0.0000E+00  0.0000E+00  0.0000E+00
    -52.326  0.0000E+00  0.0000E+00  0.0000E+00  0.0000E+00
    -52.108  0.0000E+00  0.0000E+00  0.0000E+00  0.0000E+00
    -51.891  0.0000E+00  0.0000E+00  0.0000E+00  0.0000E+00
    -51.673  0.0000E+00  0.0000E+00  0.0000E+00  0.0000E+00
    -51.455  0.0000E+00  0.0000E+00  0.0000E+00  0.0000E+00
    -51.237  0.0000E+00  0.0000E+00  0.0000E+00  0.0000E+00
    -51.019  0.0000E+00  0.0000E+00  0.0000E+00  0.0000E+00
    -50.801  0.0000E+00  0.0000E+00  0.0000E+00  0.0000E+00
    -50.584  0.0000E+00  0.0000E+00  0.0000E+00  0.0000E+00
    -50.366  0.0000E+00  0.0000E+00  0.0000E+00  0.0000E+00
    -50.148  0.1836E+02  0.1836E+02  0.4000E+01  0.4000E+01
    -49.930  0.3439E+02  0.3439E+02  0.1015E+02  0.1015E+02
    -49.712  0.7870E+01  0.7870E+01  0.1200E+02  0.1200E+02
    -49.495  0.0000E+00  0.0000E+00  0.1200E+02  0.1200E+02
    -49.277  0.0000E+00  0.0000E+00  0.1200E+02  0.1200E+02
    -49.059  0.0000E+00  0.0000E+00  0.1200E+02  0.1200E+02
    -48.841  0.0000E+00  0.0000E+00  0.1200E+02  0.1200E+02
    -48.623  0.0000E+00  0.0000E+00  0.1200E+02  0.1200E+02
    -48.405  0.0000E+00  0.0000E+00  0.1200E+02  0.1200E+02
    -48.188  0.0000E+00  0.0000E+00  0.1200E+02  0.1200E+02
    -47.970  0.0000E+00  0.0000E+00  0.1200E+02  0.1200E+02
    -47.752  0.0000E+00  0.0000E+00  0.1200E+02  0.1200E+02
    -47.534  0.4489E+03  0.4489E+03  0.1385E+02  0.1385E+02
    -47.316  0.2329E+02  0.2329E+02  0.1798E+02  0.1798E+02
    -47.099  0.2755E+02  0.2755E+02  0.2400E+02  0.2400E+02
    -46.881  0.0000E+00  0.0000E+00  0.2400E+02  0.2400E+02
    -46.663  0.0000E+00  0.0000E+00  0.2400E+02  0.2400E+02
    -46.445  0.0000E+00  0.0000E+00  0.2400E+02  0.2400E+02
    -46.227  0.0000E+00  0.0000E+00  0.2400E+02  0.2400E+02
    -46.009  0.0000E+00  0.0000E+00  0.2400E+02  0.2400E+02
    -45.792  0.0000E+00  0.0000E+00  0.2400E+02  0.2400E+02
    -45.574  0.0000E+00  0.0000E+00  0.2400E+02  0.2400E+02
    -45.356  0.0000E+00  0.0000E+00  0.2400E+02  0.2400E+02
    -45.138  0.0000E+00  0.0000E+00  0.2400E+02  0.2400E+02
    -44.920  0.0000E+00  0.0000E+00  0.2400E+02  0.2400E+02
    -44.702  0.0000E+00  0.0000E+00  0.2400E+02  0.2400E+02
    -44.485  0.0000E+00  0.0000E+00  0.2400E+02  0.2400E+02
    -44.267  0.0000E+00  0.0000E+00  0.2400E+02  0.2400E+02
    -44.049  0.0000E+00  0.0000E+00  0.2400E+02  0.2400E+02
    -43.831  0.0000E+00  0.0000E+00  0.2400E+02  0.2400E+02
    -43.613  0.0000E+00  0.0000E+00  0.2400E+02  0.2400E+02
    -43.396  0.0000E+00  0.0000E+00  0.2400E+02  0.2400E+02
    -43.178  0.0000E+00  0.0000E+00  0.2400E+02  0.2400E+02
    -42.960  0.0000E+00  0.0000E+00  0.2400E+02  0.2400E+02
    -42.742  0.0000E+00  0.0000E+00  0.2400E+02  0.2400E+02
    -42.524  0.0000E+00  0.0000E+00  0.2400E+02  0.2400E+02
    -42.306  0.0000E+00  0.0000E+00  0.2400E+02  0.2400E+02
    -42.089  0.0000E+00  0.0000E+00  0.2400E+02  0.2400E+02
    -41.871  0.0000E+00  0.0000E+00  0.2400E+02  0.2400E+02
    -41.653  0.0000E+00  0.0000E+00  0.2400E+02  0.2400E+02
    -41.435  0.0000E+00  0.0000E+00  0.2400E+02  0.2400E+02
    -41.217  0.0000E+00  0.0000E+00  0.2400E+02  0.2400E+02
    -41.000  0.0000E+00  0.0000E+00  0.2400E+02  0.2400E+02
    -40.782  0.0000E+00  0.0000E+00  0.2400E+02  0.2400E+02
    -40.564  0.0000E+00  0.0000E+00  0.2400E+02  0.2400E+02
    -40.346  0.0000E+00  0.0000E+00  0.2400E+02  0.2400E+02
    -40.128  0.0000E+00  0.0000E+00  0.2400E+02  0.2400E+02
    -39.910  0.0000E+00  0.0000E+00  0.2400E+02  0.2400E+02
    -39.693  0.0000E+00  0.0000E+00  0.2400E+02  0.2400E+02
    -39.475  0.0000E+00  0.0000E+00  0.2400E+02  0.2400E+02
    -39.257  0.0000E+00  0.0000E+00  0.2400E+02  0.2400E+02
    -39.039  0.0000E+00  0.0000E+00  0.2400E+02  0.2400E+02
    -38.821  0.0000E+00  0.0000E+00  0.2400E+02  0.2400E+02
    -38.604  0.0000E+00  0.0000E+00  0.2400E+02  0.2400E+02
    -38.386  0.0000E+00  0.0000E+00  0.2400E+02  0.2400E+02
    -38.168  0.0000E+00  0.0000E+00  0.2400E+02  0.2400E+02
    -37.950  0.0000E+00  0.0000E+00  0.2400E+02  0.2400E+02
    -37.732  0.0000E+00  0.0000E+00  0.2400E+02  0.2400E+02
    -37.514  0.0000E+00  0.0000E+00  0.2400E+02  0.2400E+02
    -37.297  0.0000E+00  0.0000E+00  0.2400E+02  0.2400E+02
    -37.079  0.0000E+00  0.0000E+00  0.2400E+02  0.2400E+02
    -36.861  0.0000E+00  0.0000E+00  0.2400E+02  0.2400E+02
    -36.643  0.0000E+00  0.0000E+00  0.2400E+02  0.2400E+02
    -36.425  0.0000E+00  0.0000E+00  0.2400E+02  0.2400E+02
    -36.208  0.0000E+00  0.0000E+00  0.2400E+02  0.2400E+02
    -35.990  0.0000E+00  0.0000E+00  0.2400E+02  0.2400E+02
    -35.772  0.0000E+00  0.0000E+00  0.2400E+02  0.2400E+02
    -35.554  0.0000E+00  0.0000E+00  0.2400E+02  0.2400E+02
    -35.336  0.0000E+00  0.0000E+00  0.2400E+02  0.2400E+02
    -35.118  0.0000E+00  0.0000E+00  0.2400E+02  0.2400E+02
    -34.901  0.0000E+00  0.0000E+00  0.2400E+02  0.2400E+02
    -34.683  0.0000E+00  0.0000E+00  0.2400E+02  0.2400E+02
    -34.465  0.0000E+00  0.0000E+00  0.2400E+02  0.2400E+02
    -34.247  0.0000E+00  0.0000E+00  0.2400E+02  0.2400E+02
    -34.029  0.0000E+00  0.0000E+00  0.2400E+02  0.2400E+02
    -33.812  0.0000E+00  0.0000E+00  0.2400E+02  0.2400E+02
    -33.594  0.0000E+00  0.0000E+00  0.2400E+02  0.2400E+02
    -33.376  0.0000E+00  0.0000E+00  0.2400E+02  0.2400E+02
    -33.158  0.0000E+00  0.0000E+00  0.2400E+02  0.2400E+02
    -32.940  0.0000E+00  0.0000E+00  0.2400E+02  0.2400E+02
    -32.722  0.0000E+00  0.0000E+00  0.2400E+02  0.2400E+02
    -32.505  0.0000E+00  0.0000E+00  0.2400E+02  0.2400E+02
    -32.287  0.0000E+00  0.0000E+00  0.2400E+02  0.2400E+02
    -32.069  0.0000E+00  0.0000E+00  0.2400E+02  0.2400E+02
    -31.851  0.0000E+00  0.0000E+00  0.2400E+02  0.2400E+02
    -31.633  0.0000E+00  0.0000E+00  0.2400E+02  0.2400E+02
    -31.416  0.0000E+00  0.0000E+00  0.2400E+02  0.2400E+02
    -31.198  0.0000E+00  0.0000E+00  0.2400E+02  0.2400E+02
    -30.980  0.0000E+00  0.0000E+00  0.2400E+02  0.2400E+02
    -30.762  0.0000E+00  0.0000E+00  0.2400E+02  0.2400E+02
    -30.544  0.0000E+00  0.0000E+00  0.2400E+02  0.2400E+02
    -30.326  0.0000E+00  0.0000E+00  0.2400E+02  0.2400E+02
    -30.109  0.0000E+00  0.0000E+00  0.2400E+02  0.2400E+02
    -29.891  0.0000E+00  0.0000E+00  0.2400E+02  0.2400E+02
    -29.673  0.0000E+00  0.0000E+00  0.2400E+02  0.2400E+02
    -29.455  0.0000E+00  0.0000E+00  0.2400E+02  0.2400E+02
    -29.237  0.0000E+00  0.0000E+00  0.2400E+02  0.2400E+02
    -29.019  0.0000E+00  0.0000E+00  0.2400E+02  0.2400E+02
    -28.802  0.0000E+00  0.0000E+00  0.2400E+02  0.2400E+02
    -28.584  0.0000E+00  0.0000E+00  0.2400E+02  0.2400E+02
    -28.366  0.0000E+00  0.0000E+00  0.2400E+02  0.2400E+02
    -28.148  0.0000E+00  0.0000E+00  0.2400E+02  0.2400E+02
    -27.930  0.0000E+00  0.0000E+00  0.2400E+02  0.2400E+02
    -27.713  0.0000E+00  0.0000E+00  0.2400E+02  0.2400E+02
    -27.495  0.0000E+00  0.0000E+00  0.2400E+02  0.2400E+02
    -27.277  0.0000E+00  0.0000E+00  0.2400E+02  0.2400E+02
    -27.059  0.0000E+00  0.0000E+00  0.2400E+02  0.2400E+02
    -26.841  0.0000E+00  0.0000E+00  0.2400E+02  0.2400E+02
    -26.623  0.0000E+00  0.0000E+00  0.2400E+02  0.2400E+02
    -26.406  0.0000E+00  0.0000E+00  0.2400E+02  0.2400E+02
    -26.188  0.0000E+00  0.0000E+00  0.2400E+02  0.2400E+02
    -25.970  0.0000E+00  0.0000E+00  0.2400E+02  0.2400E+02
    -25.752  0.0000E+00  0.0000E+00  0.2400E+02  0.2400E+02
    -25.534  0.0000E+00  0.0000E+00  0.2400E+02  0.2400E+02
    -25.317  0.0000E+00  0.0000E+00  0.2400E+02  0.2400E+02
    -25.099  0.0000E+00  0.0000E+00  0.2400E+02  0.2400E+02
    -24.881  0.0000E+00  0.0000E+00  0.2400E+02  0.2400E+02
    -24.663  0.0000E+00  0.0000E+00  0.2400E+02  0.2400E+02
    -24.445  0.0000E+00  0.0000E+00  0.2400E+02  0.2400E+02
    -24.227  0.0000E+00  0.0000E+00  0.2400E+02  0.2400E+02
    -24.010  0.0000E+00  0.0000E+00  0.2400E+02  0.2400E+02
    -23.792  0.0000E+00  0.0000E+00  0.2400E+02  0.2400E+02
    -23.574  0.0000E+00  0.0000E+00  0.2400E+02  0.2400E+02
    -23.356  0.0000E+00  0.0000E+00  0.2400E+02  0.2400E+02
    -23.138  0.0000E+00  0.0000E+00  0.2400E+02  0.2400E+02
    -22.921  0.0000E+00  0.0000E+00  0.2400E+02  0.2400E+02
    -22.703  0.0000E+00  0.0000E+00  0.2400E+02  0.2400E+02
    -22.485  0.0000E+00  0.0000E+00  0.2400E+02  0.2400E+02
    -22.267  0.0000E+00  0.0000E+00  0.2400E+02  0.2400E+02
    -22.049  0.0000E+00  0.0000E+00  0.2400E+02  0.2400E+02
    -21.831  0.0000E+00  0.0000E+00  0.2400E+02  0.2400E+02
    -21.614  0.0000E+00  0.0000E+00  0.2400E+02  0.2400E+02
    -21.396  0.0000E+00  0.0000E+00  0.2400E+02  0.2400E+02
    -21.178  0.0000E+00  0.0000E+00  0.2400E+02  0.2400E+02
    -20.960  0.0000E+00  0.0000E+00  0.2400E+02  0.2400E+02
    -20.742  0.0000E+00  0.0000E+00  0.2400E+02  0.2400E+02
    -20.525  0.0000E+00  0.0000E+00  0.2400E+02  0.2400E+02
    -20.307  0.0000E+00  0.0000E+00  0.2400E+02  0.2400E+02
    -20.089  0.0000E+00  0.0000E+00  0.2400E+02  0.2400E+02
    -19.871  0.0000E+00  0.0000E+00  0.2400E+02  0.2400E+02
    -19.653  0.0000E+00  0.0000E+00  0.2400E+02  0.2400E+02
    -19.435  0.0000E+00  0.0000E+00  0.2400E+02  0.2400E+02
    -19.218  0.0000E+00  0.0000E+00  0.2400E+02  0.2400E+02
    -19.000  0.0000E+00  0.0000E+00  0.2400E+02  0.2400E+02
    -18.782  0.0000E+00  0.0000E+00  0.2400E+02  0.2400E+02
    -18.564  0.0000E+00  0.0000E+00  0.2400E+02  0.2400E+02
    -18.346  0.0000E+00  0.0000E+00  0.2400E+02  0.2400E+02
    -18.129  0.0000E+00  0.0000E+00  0.2400E+02  0.2400E+02
    -17.911  0.0000E+00  0.0000E+00  0.2400E+02  0.2400E+02
    -17.693  0.0000E+00  0.0000E+00  0.2400E+02  0.2400E+02
    -17.475  0.0000E+00  0.0000E+00  0.2400E+02  0.2400E+02
    -17.257  0.0000E+00  0.0000E+00  0.2400E+02  0.2400E+02
    -17.039  0.0000E+00  0.0000E+00  0.2400E+02  0.2400E+02
    -16.822  0.0000E+00  0.0000E+00  0.2400E+02  0.2400E+02
    -16.604  0.0000E+00  0.0000E+00  0.2400E+02  0.2400E+02
    -16.386  0.0000E+00  0.0000E+00  0.2400E+02  0.2400E+02
    -16.168  0.0000E+00  0.0000E+00  0.2400E+02  0.2400E+02
    -15.950  0.0000E+00  0.0000E+00  0.2400E+02  0.2400E+02
    -15.732  0.0000E+00  0.0000E+00  0.2400E+02  0.2400E+02
    -15.515  0.0000E+00  0.0000E+00  0.2400E+02  0.2400E+02
    -15.297  0.0000E+00  0.0000E+00  0.2400E+02  0.2400E+02
    -15.079  0.0000E+00  0.0000E+00  0.2400E+02  0.2400E+02
    -14.861  0.0000E+00  0.0000E+00  0.2400E+02  0.2400E+02
    -14.643  0.0000E+00  0.0000E+00  0.2400E+02  0.2400E+02
    -14.426  0.0000E+00  0.0000E+00  0.2400E+02  0.2400E+02
    -14.208  0.0000E+00  0.0000E+00  0.2400E+02  0.2400E+02
    -13.990  0.0000E+00  0.0000E+00  0.2400E+02  0.2400E+02
    -13.772  0.0000E+00  0.0000E+00  0.2400E+02  0.2400E+02
    -13.554  0.0000E+00  0.0000E+00  0.2400E+02  0.2400E+02
    -13.336  0.0000E+00  0.0000E+00  0.2400E+02  0.2400E+02
    -13.119  0.0000E+00  0.0000E+00  0.2400E+02  0.2400E+02
    -12.901  0.0000E+00  0.0000E+00  0.2400E+02  0.2400E+02
    -12.683  0.0000E+00  0.0000E+00  0.2400E+02  0.2400E+02
    -12.465  0.0000E+00  0.0000E+00  0.2400E+02  0.2400E+02
    -12.247  0.0000E+00  0.0000E+00  0.2400E+02  0.2400E+02
    -12.030  0.0000E+00  0.0000E+00  0.2400E+02  0.2400E+02
    -11.812  0.0000E+00  0.0000E+00  0.2400E+02  0.2400E+02
    -11.594  0.0000E+00  0.0000E+00  0.2400E+02  0.2400E+02
    -11.376  0.0000E+00  0.0000E+00  0.2400E+02  0.2400E+02
    -11.158  0.0000E+00  0.0000E+00  0.2400E+02  0.2400E+02
    -10.940  0.0000E+00  0.0000E+00  0.2400E+02  0.2400E+02
    -10.723  0.0000E+00  0.0000E+00  0.2400E+02  0.2400E+02
    -10.505  0.0000E+00  0.0000E+00  0.2400E+02  0.2400E+02
    -10.287  0.4983E-01  0.4983E-01  0.2400E+02  0.2400E+02
    -10.069  0.1419E+01  0.1419E+01  0.2415E+02  0.2415E+02
     -9.851  0.2334E+01  0.2334E+01  0.2449E+02  0.2449E+02
     -9.634  0.2693E+01  0.2693E+01  0.2495E+02  0.2495E+02
     -9.416  0.2924E+01  0.2924E+01  0.2546E+02  0.2546E+02
     -9.198  0.3077E+01  0.3077E+01  0.2605E+02  0.2605E+02
     -8.980  0.4871E+01  0.4871E+01  0.2681E+02  0.2681E+02
     -8.762  0.7231E+01  0.7231E+01  0.2797E+02  0.2797E+02
     -8.544  0.1010E+02  0.1010E+02  0.2942E+02  0.2942E+02
     -8.327  0.9379E+01  0.9379E+01  0.3080E+02  0.3080E+02
     -8.109  0.4787E+01  0.4787E+01  0.3192E+02  0.3192E+02
     -7.891  0.9369E-01  0.9369E-01  0.3200E+02  0.3200E+02
     -7.673  0.0000E+00  0.0000E+00  0.3200E+02  0.3200E+02
     -7.455  0.0000E+00  0.0000E+00  0.3200E+02  0.3200E+02
     -7.238  0.0000E+00  0.0000E+00  0.3200E+02  0.3200E+02
     -7.020  0.0000E+00  0.0000E+00  0.3200E+02  0.3200E+02
     -6.802  0.0000E+00  0.0000E+00  0.3200E+02  0.3200E+02
     -6.584  0.0000E+00  0.0000E+00  0.3200E+02  0.3200E+02
     -6.366  0.0000E+00  0.0000E+00  0.3200E+02  0.3200E+02
     -6.148  0.0000E+00  0.0000E+00  0.3200E+02  0.3200E+02
     -5.931  0.0000E+00  0.0000E+00  0.3200E+02  0.3200E+02
     -5.713  0.0000E+00  0.0000E+00  0.3200E+02  0.3200E+02
     -5.495  0.0000E+00  0.0000E+00  0.3200E+02  0.3200E+02
     -5.277  0.0000E+00  0.0000E+00  0.3200E+02  0.3200E+02
     -5.059  0.0000E+00  0.0000E+00  0.3200E+02  0.3200E+02
     -4.842  0.0000E+00  0.0000E+00  0.3200E+02  0.3200E+02
     -4.624  0.0000E+00  0.0000E+00  0.3200E+02  0.3200E+02
     -4.406  0.0000E+00  0.0000E+00  0.3200E+02  0.3200E+02
     -4.188  0.0000E+00  0.0000E+00  0.3200E+02  0.3200E+02
     -3.970  0.0000E+00  0.0000E+00  0.3200E+02  0.3200E+02
     -3.752  0.0000E+00  0.0000E+00  0.3200E+02  0.3200E+02
     -3.535  0.0000E+00  0.0000E+00  0.3200E+02  0.3200E+02
     -3.317  0.0000E+00  0.0000E+00  0.3200E+02  0.3200E+02
     -3.099  0.0000E+00  0.0000E+00  0.3200E+02  0.3200E+02
     -2.881  0.0000E+00  0.0000E+00  0.3200E+02  0.3200E+02
     -2.663  0.0000E+00  0.0000E+00  0.3200E+02  0.3200E+02
     -2.445  0.0000E+00  0.0000E+00  0.3200E+02  0.3200E+02
     -2.228  0.0000E+00  0.0000E+00  0.3200E+02  0.3200E+02
     -2.010  0.0000E+00  0.0000E+00  0.3200E+02  0.3200E+02
     -1.792  0.3393E+00  0.3393E+00  0.3202E+02  0.3202E+02
     -1.574  0.3503E+01  0.3503E+01  0.3236E+02  0.3236E+02
     -1.356  0.7324E+01  0.7324E+01  0.3344E+02  0.3344E+02
     -1.139  0.7989E+01  0.7989E+01  0.3489E+02  0.3489E+02
     -0.921  0.6763E+01  0.6763E+01  0.3624E+02  0.3624E+02
     -0.703  0.7907E+01  0.7907E+01  0.3757E+02  0.3757E+02
     -0.485  0.4390E+01  0.4390E+01  0.3858E+02  0.3858E+02
     -0.267  0.3244E+01  0.3244E+01  0.3940E+02  0.3940E+02
     -0.049  0.7231E+01  0.7231E+01  0.4032E+02  0.4032E+02
      0.168  0.5692E+01  0.5692E+01  0.4151E+02  0.4151E+02
      0.386  0.9245E+01  0.9245E+01  0.4281E+02  0.4281E+02
      0.604  0.1277E+02  0.1277E+02  0.4467E+02  0.4467E+02
      0.822  0.1421E+02  0.1421E+02  0.4697E+02  0.4697E+02
      1.040  0.1567E+02  0.1567E+02  0.4929E+02  0.4929E+02
      1.257  0.1310E+02  0.1310E+02  0.5160E+02  0.5160E+02
      1.475  0.1254E+02  0.1254E+02  0.5336E+02  0.5336E+02
      1.693  0.1057E+02  0.1057E+02  0.5496E+02  0.5496E+02
      1.911  0.1815E+02  0.1815E+02  0.5689E+02  0.5689E+02
      2.129  0.1587E+02  0.1587E+02  0.5935E+02  0.5935E+02
      2.347  0.1788E+02  0.1788E+02  0.6175E+02  0.6175E+02
      2.564  0.2290E+02  0.2290E+02  0.6505E+02  0.6505E+02
      2.782  0.2355E+02  0.2355E+02  0.6818E+02  0.6818E+02
      3.000  0.1603E+02  0.1603E+02  0.7081E+02  0.7081E+02
      3.218  0.7782E+01  0.7782E+01  0.7209E+02  0.7209E+02
      3.436  0.8900E+01  0.8900E+01  0.7372E+02  0.7372E+02
      3.653  0.8728E+01  0.8728E+01  0.7514E+02  0.7514E+02
      3.871  0.5270E+01  0.5270E+01  0.7606E+02  0.7606E+02
      4.089  0.7146E+01  0.7146E+01  0.7720E+02  0.7720E+02
      4.307  0.8877E+01  0.8877E+01  0.7883E+02  0.7883E+02
      4.525  0.1027E+02  0.1027E+02  0.8051E+02  0.8051E+02
      4.743  0.1606E+02  0.1606E+02  0.8204E+02  0.8204E+02
      4.960  0.2028E+02  0.2028E+02  0.8511E+02  0.8511E+02
      5.178  0.1250E+02  0.1250E+02  0.8713E+02  0.8713E+02
      5.396  0.1362E+02  0.1362E+02  0.8911E+02  0.8911E+02
      5.614  0.1208E+02  0.1208E+02  0.9103E+02  0.9103E+02
      5.832  0.2198E+02  0.2198E+02  0.9288E+02  0.9288E+02
      6.049  0.7968E+01  0.7968E+01  0.9472E+02  0.9472E+02
      6.267  0.1344E+01  0.1345E+01  0.9506E+02  0.9506E+02
      6.485  0.1823E+01  0.1823E+01  0.9534E+02  0.9534E+02
      6.703  0.1661E+01  0.1660E+01  0.9569E+02  0.9569E+02
      6.921  0.1008E+01  0.1019E+01  0.9598E+02  0.9598E+02
      7.139  0.6095E+00  0.6171E+00  0.9614E+02  0.9614E+02
      7.356  0.8698E+00  0.8547E+00  0.9629E+02  0.9629E+02
      7.574  0.1359E+01  0.1361E+01  0.9651E+02  0.9651E+02
      7.792  0.1647E+01  0.1710E+01  0.9685E+02  0.9686E+02
      8.010  0.2699E+01  0.2670E+01  0.9731E+02  0.9731E+02
      8.228  0.3785E+01  0.3791E+01  0.9798E+02  0.9798E+02
      8.445  0.4556E+01  0.4748E+01  0.9885E+02  0.9886E+02
      8.663  0.2243E+01  0.2136E+01  0.9957E+02  0.9957E+02
      8.881  0.1385E+01  0.1114E+01  0.9992E+02  0.9991E+02
      9.099  0.2674E-01  0.1525E+00  0.1000E+03  0.1000E+03
      9.317  0.0000E+00  0.0000E+00  0.1000E+03  0.1000E+03
      9.535  0.0000E+00  0.0000E+00  0.1000E+03  0.1000E+03
      9.752  0.0000E+00  0.0000E+00  0.1000E+03  0.1000E+03
      9.970  0.0000E+00  0.0000E+00  0.1000E+03  0.1000E+03
     10.188  0.0000E+00  0.0000E+00  0.1000E+03  0.1000E+03
     10.406  0.0000E+00  0.0000E+00  0.1000E+03  0.1000E+03
     10.624  0.0000E+00  0.0000E+00  0.1000E+03  0.1000E+03
     10.841  0.0000E+00  0.0000E+00  0.1000E+03  0.1000E+03
     11.059  0.0000E+00  0.0000E+00  0.1000E+03  0.1000E+03
     11.277  0.0000E+00  0.0000E+00  0.1000E+03  0.1000E+03
     11.495  0.0000E+00  0.0000E+00  0.1000E+03  0.1000E+03
     11.713  0.0000E+00  0.0000E+00  0.1000E+03  0.1000E+03
     11.931  0.0000E+00  0.0000E+00  0.1000E+03  0.1000E+03
     12.148  0.0000E+00  0.0000E+00  0.1000E+03  0.1000E+03
     12.14841738    -53.19746307  301      4.45967073      1.00000000
    -53.197  0.0000E+00  0.0000E+00  0.0000E+00  0.0000E+00  0.0000E+00  0.0000E+00  0.0000E+00  0.0000E+00  0.0000E+00  0.0000E+00  0.0000E+00  0.0000E+00  0.0000E+00  0.0000E+00  0.0000E+00  0.0000E+00  0.0000E+00  0.0000E+00
    -52.980  0.0000E+00  0.0000E+00  0.0000E+00  0.0000E+00  0.0000E+00  0.0000E+00  0.0000E+00  0.0000E+00  0.0000E+00  0.0000E+00  0.0000E+00  0.0000E+00  0.0000E+00  0.0000E+00  0.0000E+00  0.0000E+00  0.0000E+00  0.0000E+00
    -52.762  0.0000E+00  0.0000E+00  0.0000E+00  0.0000E+00  0.0000E+00  0.0000E+00  0.0000E+00  0.0000E+00  0.0000E+00  0.0000E+00  0.0000E+00  0.0000E+00  0.0000E+00  0.0000E+00  0.0000E+00  0.0000E+00  0.0000E+00  0.0000E+00
    -52.544  0.0000E+00  0.0000E+00  0.0000E+00  0.0000E+00  0.0000E+00  0.0000E+00  0.0000E+00  0.0000E+00  0.0000E+00  0.0000E+00  0.0000E+00  0.0000E+00  0.0000E+00  0.0000E+00  0.0000E+00  0.0000E+00  0.0000E+00  0.0000E+00
    -52.326  0.0000E+00  0.0000E+00  0.0000E+00  0.0000E+00  0.0000E+00  0.0000E+00  0.0000E+00  0.0000E+00  0.0000E+00  0.0000E+00  0.0000E+00  0.0000E+00  0.0000E+00  0.0000E+00  0.0000E+00  0.0000E+00  0.0000E+00  0.0000E+00
    -52.108  0.0000E+00  0.0000E+00  0.0000E+00  0.0000E+00  0.0000E+00  0.0000E+00  0.0000E+00  0.0000E+00  0.0000E+00  0.0000E+00  0.0000E+00  0.0000E+00  0.0000E+00  0.0000E+00  0.0000E+00  0.0000E+00  0.0000E+00  0.0000E+00
    -51.891  0.0000E+00  0.0000E+00  0.0000E+00  0.0000E+00  0.0000E+00  0.0000E+00  0.0000E+00  0.0000E+00  0.0000E+00  0.0000E+00  0.0000E+00  0.0000E+00  0.0000E+00  0.0000E+00  0.0000E+00  0.0000E+00  0.0000E+00  0.0000E+00
    -51.673  0.0000E+00  0.0000E+00  0.0000E+00  0.0000E+00  0.0000E+00  0.0000E+00  0.0000E+00  0.0000E+00  0.0000E+00  0.0000E+00  0.0000E+00  0.0000E+00  0.0000E+00  0.0000E+00  0.0000E+00  0.0000E+00  0.0000E+00  0.0000E+00
    -51.455  0.0000E+00  0.0000E+00  0.0000E+00  0.0000E+00  0.0000E+00  0.0000E+00  0.0000E+00  0.0000E+00  0.0000E+00  0.0000E+00  0.0000E+00  0.0000E+00  0.0000E+00  0.0000E+00  0.0000E+00  0.0000E+00  0.0000E+00  0.0000E+00
    -51.237  0.0000E+00  0.0000E+00  0.0000E+00  0.0000E+00  0.0000E+00  0.0000E+00  0.0000E+00  0.0000E+00  0.0000E+00  0.0000E+00  0.0000E+00  0.0000E+00  0.0000E+00  0.0000E+00  0.0000E+00  0.0000E+00  0.0000E+00  0.0000E+00
    -51.019  0.0000E+00  0.0000E+00  0.0000E+00  0.0000E+00  0.0000E+00  0.0000E+00  0.0000E+00  0.0000E+00  0.0000E+00  0.0000E+00  0.0000E+00  0.0000E+00  0.0000E+00  0.0000E+00  0.0000E+00  0.0000E+00  0.0000E+00  0.0000E+00
    -50.801  0.0000E+00  0.0000E+00  0.0000E+00  0.0000E+00  0.0000E+00  0.0000E+00  0.0000E+00  0.0000E+00  0.0000E+00  0.0000E+00  0.0000E+00  0.0000E+00  0.0000E+00  0.0000E+00  0.0000E+00  0.0000E+00  0.0000E+00  0.0000E+00
    -50.584  0.0000E+00  0.0000E+00  0.0000E+00  0.0000E+00  0.0000E+00  0.0000E+00  0.0000E+00  0.0000E+00  0.0000E+00  0.0000E+00  0.0000E+00  0.0000E+00  0.0000E+00  0.0000E+00  0.0000E+00  0.0000E+00  0.0000E+00  0.0000E+00
    -50.366  0.0000E+00  0.0000E+00  0.0000E+00  0.0000E+00  0.0000E+00  0.0000E+00  0.0000E+00  0.0000E+00  0.0000E+00  0.0000E+00  0.0000E+00  0.0000E+00  0.0000E+00  0.0000E+00  0.0000E+00  0.0000E+00  0.0000E+00  0.0000E+00
    -50.148  0.1107E-09  0.1999E-05  0.8877E+00  0.1113E-03  0.3684E+01  0.1015E-04  0.2806E-09  0.5105E-07  0.2084E-05  0.4619E-08  0.9038E-10  0.5021E-06  0.1344E-09  0.6033E-06  0.8848E-05  0.3290E-09  0.1875E-09  0.2238E-05
    -49.930  0.2287E-03  0.6549E-05  0.3685E+01  0.4121E-03  0.8890E+00  0.1023E-05  0.3988E+01  0.4824E-05  0.8943E-05  0.3420E-06  0.9907E-09  0.1018E-07  0.1058E-03  0.2588E-05  0.2087E-05  0.3025E-09  0.3175E-03  0.8168E-05
    -49.712  0.6838E-04  0.3641E-08  0.7950E-09  0.1248E-06  0.2665E-10  0.1294E-08  0.1964E+01  0.1248E-05  0.1347E-10  0.9771E-07  0.3143E-09  0.8467E-10  0.3163E-04  0.1333E-08  0.4821E-11  0.1055E-09  0.9490E-04  0.1194E-09
    -49.495  0.0000E+00  0.0000E+00  0.0000E+00  0.0000E+00  0.0000E+00  0.0000E+00  0.0000E+00  0.0000E+00  0.0000E+00  0.0000E+00  0.0000E+00  0.0000E+00  0.0000E+00  0.0000E+00  0.0000E+00  0.0000E+00  0.0000E+00  0.0000E+00
    -49.277  0.0000E+00  0.0000E+00  0.0000E+00  0.0000E+00  0.0000E+00  0.0000E+00  0.0000E+00  0.0000E+00  0.0000E+00  0.0000E+00  0.0000E+00  0.0000E+00  0.0000E+00  0.0000E+00  0.0000E+00  0.0000E+00  0.0000E+00  0.0000E+00
    -49.059  0.0000E+00  0.0000E+00  0.0000E+00  0.0000E+00  0.0000E+00  0.0000E+00  0.0000E+00  0.0000E+00  0.0000E+00  0.0000E+00  0.0000E+00  0.0000E+00  0.0000E+00  0.0000E+00  0.0000E+00  0.0000E+00  0.0000E+00  0.0000E+00
    -48.841  0.0000E+00  0.0000E+00  0.0000E+00  0.0000E+00  0.0000E+00  0.0000E+00  0.0000E+00  0.0000E+00  0.0000E+00  0.0000E+00  0.0000E+00  0.0000E+00  0.0000E+00  0.0000E+00  0.0000E+00  0.0000E+00  0.0000E+00  0.0000E+00
    -48.623  0.0000E+00  0.0000E+00  0.0000E+00  0.0000E+00  0.0000E+00  0.0000E+00  0.0000E+00  0.0000E+00  0.0000E+00  0.0000E+00  0.0000E+00  0.0000E+00  0.0000E+00  0.0000E+00  0.0000E+00  0.0000E+00  0.0000E+00  0.0000E+00
    -48.405  0.0000E+00  0.0000E+00  0.0000E+00  0.0000E+00  0.0000E+00  0.0000E+00  0.0000E+00  0.0000E+00  0.0000E+00  0.0000E+00  0.0000E+00  0.0000E+00  0.0000E+00  0.0000E+00  0.0000E+00  0.0000E+00  0.0000E+00  0.0000E+00
    -48.188  0.0000E+00  0.0000E+00  0.0000E+00  0.0000E+00  0.0000E+00  0.0000E+00  0.0000E+00  0.0000E+00  0.0000E+00  0.0000E+00  0.0000E+00  0.0000E+00  0.0000E+00  0.0000E+00  0.0000E+00  0.0000E+00  0.0000E+00  0.0000E+00
    -47.970  0.0000E+00  0.0000E+00  0.0000E+00  0.0000E+00  0.0000E+00  0.0000E+00  0.0000E+00  0.0000E+00  0.0000E+00  0.0000E+00  0.0000E+00  0.0000E+00  0.0000E+00  0.0000E+00  0.0000E+00  0.0000E+00  0.0000E+00  0.0000E+00
    -47.752  0.0000E+00  0.0000E+00  0.0000E+00  0.0000E+00  0.0000E+00  0.0000E+00  0.0000E+00  0.0000E+00  0.0000E+00  0.0000E+00  0.0000E+00  0.0000E+00  0.0000E+00  0.0000E+00  0.0000E+00  0.0000E+00  0.0000E+00  0.0000E+00
    -47.534  0.1375E-03  0.1178E-07  0.7920E-02  0.4853E+02  0.1499E-03  0.6321E+02  0.1073E-04  0.1226E-06  0.2017E-06  0.2662E-03  0.1565E-04  0.5482E-08  0.4440E-04  0.1650E-07  0.9997E-08  0.3495E-03  0.1617E-03  0.1577E-07
    -47.316  0.3322E-05  0.2293E-03  0.1877E-03  0.1099E+01  0.2704E-05  0.1187E+01  0.5420E-05  0.3510E+01  0.4224E-06  0.3029E-05  0.2929E-06  0.4160E-08  0.1086E-05  0.1062E-03  0.2701E-09  0.3497E-05  0.3613E-05  0.3198E-03
    -47.099  0.6044E-05  0.1134E-03  0.2857E-03  0.2550E+01  0.1914E-05  0.2024E+01  0.2072E-05  0.2291E+01  0.1725E-06  0.7367E-05  0.1142E-06  0.2261E-08  0.2443E-05  0.5252E-04  0.2132E-09  0.5900E-05  0.7481E-05  0.1581E-03
    -46.881  0.0000E+00  0.0000E+00  0.0000E+00  0.0000E+00  0.0000E+00  0.0000E+00  0.0000E+00  0.0000E+00  0.0000E+00  0.0000E+00  0.0000E+00  0.0000E+00  0.0000E+00  0.0000E+00  0.0000E+00  0.0000E+00  0.0000E+00  0.0000E+00
    -46.663  0.0000E+00  0.0000E+00  0.0000E+00  0.0000E+00  0.0000E+00  0.0000E+00  0.0000E+00  0.0000E+00  0.0000E+00  0.0000E+00  0.0000E+00  0.0000E+00  0.0000E+00  0.0000E+00  0.0000E+00  0.0000E+00  0.0000E+00  0.0000E+00
    -46.445  0.0000E+00  0.0000E+00  0.0000E+00  0.0000E+00  0.0000E+00  0.0000E+00  0.0000E+00  0.0000E+00  0.0000E+00  0.0000E+00  0.0000E+00  0.0000E+00  0.0000E+00  0.0000E+00  0.0000E+00  0.0000E+00  0.0000E+00  0.0000E+00
    -46.227  0.0000E+00  0.0000E+00  0.0000E+00  0.0000E+00  0.0000E+00  0.0000E+00  0.0000E+00  0.0000E+00  0.0000E+00  0.0000E+00  0.0000E+00  0.0000E+00  0.0000E+00  0.0000E+00  0.0000E+00  0.0000E+00  0.0000E+00  0.0000E+00
    -46.009  0.0000E+00  0.0000E+00  0.0000E+00  0.0000E+00  0.0000E+00  0.0000E+00  0.0000E+00  0.0000E+00  0.0000E+00  0.0000E+00  0.0000E+00  0.0000E+00  0.0000E+00  0.0000E+00  0.0000E+00  0.0000E+00  0.0000E+00  0.0000E+00
    -45.792  0.0000E+00  0.0000E+00  0.0000E+00  0.0000E+00  0.0000E+00  0.0000E+00  0.0000E+00  0.0000E+00  0.0000E+00  0.0000E+00  0.0000E+00  0.0000E+00  0.0000E+00  0.0000E+00  0.0000E+00  0.0000E+00  0.0000E+00  0.0000E+00
    -45.574  0.0000E+00  0.0000E+00  0.0000E+00  0.0000E+00  0.0000E+00  0.0000E+00  0.0000E+00  0.0000E+00  0.0000E+00  0.0000E+00  0.0000E+00  0.0000E+00  0.0000E+00  0.0000E+00  0.0000E+00  0.0000E+00  0.0000E+00  0.0000E+00
    -45.356  0.0000E+00  0.0000E+00  0.0000E+00  0.0000E+00  0.0000E+00  0.0000E+00  0.0000E+00  0.0000E+00  0.0000E+00  0.0000E+00  0.0000E+00  0.0000E+00  0.0000E+00  0.0000E+00  0.0000E+00  0.0000E+00  0.0000E+00  0.0000E+00
    -45.138  0.0000E+00  0.0000E+00  0.0000E+00  0.0000E+00  0.0000E+00  0.0000E+00  0.0000E+00  0.0000E+00  0.0000E+00  0.0000E+00  0.0000E+00  0.0000E+00  0.0000E+00  0.0000E+00  0.0000E+00  0.0000E+00  0.0000E+00  0.0000E+00
    -44.920  0.0000E+00  0.0000E+00  0.0000E+00  0.0000E+00  0.0000E+00  0.0000E+00  0.0000E+00  0.0000E+00  0.0000E+00  0.0000E+00  0.0000E+00  0.0000E+00  0.0000E+00  0.0000E+00  0.0000E+00  0.0000E+00  0.0000E+00  0.0000E+00
    -44.702  0.0000E+00  0.0000E+00  0.0000E+00  0.0000E+00  0.0000E+00  0.0000E+00  0.0000E+00  0.0000E+00  0.0000E+00  0.0000E+00  0.0000E+00  0.0000E+00  0.0000E+00  0.0000E+00  0.0000E+00  0.0000E+00  0.0000E+00  0.0000E+00
    -44.485  0.0000E+00  0.0000E+00  0.0000E+00  0.0000E+00  0.0000E+00  0.0000E+00  0.0000E+00  0.0000E+00  0.0000E+00  0.0000E+00  0.0000E+00  0.0000E+00  0.0000E+00  0.0000E+00  0.0000E+00  0.0000E+00  0.0000E+00  0.0000E+00
    -44.267  0.0000E+00  0.0000E+00  0.0000E+00  0.0000E+00  0.0000E+00  0.0000E+00  0.0000E+00  0.0000E+00  0.0000E+00  0.0000E+00  0.0000E+00  0.0000E+00  0.0000E+00  0.0000E+00  0.0000E+00  0.0000E+00  0.0000E+00  0.0000E+00
    -44.049  0.0000E+00  0.0000E+00  0.0000E+00  0.0000E+00  0.0000E+00  0.0000E+00  0.0000E+00  0.0000E+00  0.0000E+00  0.0000E+00  0.0000E+00  0.0000E+00  0.0000E+00  0.0000E+00  0.0000E+00  0.0000E+00  0.0000E+00  0.0000E+00
    -43.831  0.0000E+00  0.0000E+00  0.0000E+00  0.0000E+00  0.0000E+00  0.0000E+00  0.0000E+00  0.0000E+00  0.0000E+00  0.0000E+00  0.0000E+00  0.0000E+00  0.0000E+00  0.0000E+00  0.0000E+00  0.0000E+00  0.0000E+00  0.0000E+00
    -43.613  0.0000E+00  0.0000E+00  0.0000E+00  0.0000E+00  0.0000E+00  0.0000E+00  0.0000E+00  0.0000E+00  0.0000E+00  0.0000E+00  0.0000E+00  0.0000E+00  0.0000E+00  0.0000E+00  0.0000E+00  0.0000E+00  0.0000E+00  0.0000E+00
    -43.396  0.0000E+00  0.0000E+00  0.0000E+00  0.0000E+00  0.0000E+00  0.0000E+00  0.0000E+00  0.0000E+00  0.0000E+00  0.0000E+00  0.0000E+00  0.0000E+00  0.0000E+00  0.0000E+00  0.0000E+00  0.0000E+00  0.0000E+00  0.0000E+00
    -43.178  0.0000E+00  0.0000E+00  0.0000E+00  0.0000E+00  0.0000E+00  0.0000E+00  0.0000E+00  0.0000E+00  0.0000E+00  0.0000E+00  0.0000E+00  0.0000E+00  0.0000E+00  0.0000E+00  0.0000E+00  0.0000E+00  0.0000E+00  0.0000E+00
    -42.960  0.0000E+00  0.0000E+00  0.0000E+00  0.0000E+00  0.0000E+00  0.0000E+00  0.0000E+00  0.0000E+00  0.0000E+00  0.0000E+00  0.0000E+00  0.0000E+00  0.0000E+00  0.0000E+00  0.0000E+00  0.0000E+00  0.0000E+00  0.0000E+00
    -42.742  0.0000E+00  0.0000E+00  0.0000E+00  0.0000E+00  0.0000E+00  0.0000E+00  0.0000E+00  0.0000E+00  0.0000E+00  0.0000E+00  0.0000E+00  0.0000E+00  0.0000E+00  0.0000E+00  0.0000E+00  0.0000E+00  0.0000E+00  0.0000E+00
    -42.524  0.0000E+00  0.0000E+00  0.0000E+00  0.0000E+00  0.0000E+00  0.0000E+00  0.0000E+00  0.0000E+00  0.0000E+00  0.0000E+00  0.0000E+00  0.0000E+00  0.0000E+00  0.0000E+00  0.0000E+00  0.0000E+00  0.0000E+00  0.0000E+00
    -42.306  0.0000E+00  0.0000E+00  0.0000E+00  0.0000E+00  0.0000E+00  0.0000E+00  0.0000E+00  0.0000E+00  0.0000E+00  0.0000E+00  0.0000E+00  0.0000E+00  0.0000E+00  0.0000E+00  0.0000E+00  0.0000E+00  0.0000E+00  0.0000E+00