       N       E                     dE             d eps       ncg     rms          rms(c)
DAV:   1     0.204169114556E+04    0.20417E+04   -0.88892E+04 34200   0.200E+03
DAV:   2     0.121158758127E+03   -0.19205E+04   -0.18650E+04 32000   0.586E+02
DAV:   3    -0.841827458562E+02   -0.20534E+03   -0.18242E+03 45320   0.191E+02
DAV:   4    -0.982104942357E+02   -0.14028E+02   -0.13690E+02 46480   0.511E+01
DAV:   5    -0.985327182498E+02   -0.32222E+00   -0.32103E+00 45540   0.816E+00    0.269E+01
RMM:   6    -0.112119534893E+03   -0.13587E+02   -0.15895E+02 32037   0.823E+01    0.488E+01
RMM:   7    -0.905994922265E+02    0.21520E+02   -0.40196E+01 32008   0.489E+01    0.955E+00
RMM:   8    -0.910946299253E+02   -0.49514E+00   -0.28965E+00 41210   0.500E+00    0.426E+00
RMM:   9    -0.911441576477E+02   -0.49528E-01   -0.76259E-01 45940   0.261E+00    0.224E+00
RMM:  10    -0.911505874085E+02   -0.64298E-02   -0.21384E-01 45741   0.140E+00    0.936E-01
RMM:  11    -0.911572336433E+02   -0.66462E-02   -0.42242E-02 43916   0.756E-01    0.338E-01
RMM:  12    -0.911607559900E+02   -0.35223E-02   -0.95546E-03 42206   0.307E-01    0.163E-01
RMM:  13    -0.911607018547E+02    0.54135E-04   -0.19598E-03 28994   0.157E-01
   1 F= -.98390905E+02 E0= -.98379693E+02  d E =-.983909E+02  mag=     0.0000
       N       E                     dE             d eps       ncg     rms          rms(c)
DAV:   1    -0.911611119168E+02   -0.35593E-03   -0.14572E-02 36600   0.454E-01    0.137E-01
RMM:   2    -0.911610089627E+02    0.10295E-03   -0.12278E-03 28784   0.186E-01
   2 F= -.98391104E+02 E0= -.98379848E+02  d E =-.199162E-03  mag=    -0.0000
       N       E                     dE             d eps       ncg     rms          rms(c)
DAV:   1    -0.911609689341E+02    0.14298E-03   -0.85846E-04 34560   0.280E-01    0.753E-02
RMM:   2    -0.911609826240E+02   -0.13690E-04   -0.51274E-04 22081   0.160E-01
   3 F= -.98391066E+02 E0= -.98379794E+02  d E =-.161122E-03  mag=     0.0000
