 vasp.6.4.1 05Apr23 (build Jun 01 2023 13:46:15) complex                        
  
 executed on             LinuxIFC date 2023.12.17  00:31:01
 running   20 mpi-ranks, on    5 nodes
 distrk:  each k-point on   20 cores,    1 groups
 distr:  one band on NCORE=   1 cores,   20 groups


--------------------------------------------------------------------------------------------------------


 INCAR:
   ALGO = Fast
   EDIFF = 0.0002
   ENCUT = 550
   IBRION = -1
   ISIF = 4
   ISMEAR = -5
   ISPIN = 2
   IVDW = 13
   LASPH = True
   LMAXMIX = 4
   LORBIT = 11
   LREAL = Auto
   LWAVE = False
   MAGMOM = 1*2.469 2*-2.469 2*2.469 2*-2.469 1*2.469 8*0.0
   NELM = 100
   NSW = 0
   PREC = Accurate
   SIGMA = 0.05

 POTCAR:   PAW_PBE Fe_pv 06Sep2000                
 POTCAR:   PAW_PBE Se 06Sep2000                   
 -----------------------------------------------------------------------------
|                                                                             |
|           W    W    AA    RRRRR   N    N  II  N    N   GGGG   !!!           |
|           W    W   A  A   R    R  NN   N  II  NN   N  G    G  !!!           |
|           W    W  A    A  R    R  N N  N  II  N N  N  G       !!!           |
|           W WW W  AAAAAA  RRRRR   N  N N  II  N  N N  G  GGG   !            |
|           WW  WW  A    A  R   R   N   NN  II  N   NN  G    G                |
|           W    W  A    A  R    R  N    N  II  N    N   GGGG   !!!           |
|                                                                             |
|     For optimal performance we recommend to set                             |
|       NCORE = 2 up to number-of-cores-per-socket                            |
|     NCORE specifies how many cores store one orbital (NPAR=cpu/NCORE).      |
|     This setting can greatly improve the performance of VASP for DFT.       |
|     The default, NCORE=1 might be grossly inefficient on modern             |
|     multi-core architectures or massively parallel machines. Do your        |
|     own testing! More info at https://www.vasp.at/wiki/index.php/NCORE      |
|     Unfortunately you need to use the default for GW and RPA                |
|     calculations (for HF NCORE is supported but not extensively tested      |
|     yet).                                                                   |
|                                                                             |
 -----------------------------------------------------------------------------

 POTCAR:   PAW_PBE Fe_pv 06Sep2000                
   VRHFIN =Fe:  3pd7s1                                                                              
   LEXCH  = PE                                                                                      
   EATOM  =  2456.8974 eV,  180.5769 Ry                                                             
                                                                                                    
   TITEL  = PAW_PBE Fe_pv 06Sep2000                                                                 
   LULTRA =        F    use ultrasoft PP ?                                                          
   IUNSCR =        1    unscreen: 0-lin 1-nonlin 2-no                                               
   RPACOR =    1.750    partial core radius                                                         
   POMASS =   55.847; ZVAL   =   14.000    mass and valenz                                          
   RCORE  =    2.200    outmost cutoff radius                                                       
   RWIGS  =    2.200; RWIGS  =    1.164    wigner-seitz radius (au A)                               
   ENMAX  =  293.238; ENMIN  =  219.929 eV                                                          
   RCLOC  =    1.701    cutoff for local pot                                                        
   LCOR   =        T    correct aug charges                                                         
   LPAW   =        T    paw PP                                                                      
   EAUG   =  578.342                                                                                
   DEXC   =    -.002                                                                                
   RMAX   =    2.693    core radius for proj-oper                                                   
   RAUG   =    1.300    factor for augmentation sphere                                              
   RDEP   =    2.296    radius for radial grids                                                     
   QCUT   =   -4.642; QGAM   =    9.285    optimization parameters                                  
                                                                                                    
   Description                                                                                      
     l     E      TYP  RCUT    TYP  RCUT                                                            
     1   .000     23  2.000                                                                         
     1  -.400     23  2.000                                                                         
     2   .000     23  2.200                                                                         
     2   .000     23  2.200                                                                         
     0   .000     23  2.000                                                                         
     0  2.000     23  2.000                                                                         
     3   .000      7   .000                                                                         
  local pseudopotential read in
  partial core-charges read in
  atomic valenz-charges read in
  non local Contribution for L=           1  read in
    real space projection operators read in
  non local Contribution for L=           1  read in
    real space projection operators read in
  non local Contribution for L=           2  read in
    real space projection operators read in
  non local Contribution for L=           2  read in
    real space projection operators read in
  non local Contribution for L=           0  read in
    real space projection operators read in
  non local Contribution for L=           0  read in
    real space projection operators read in
    PAW grid and wavefunctions read in
 
   number of l-projection  operators is LMAX  =           6
   number of lm-projection operators is LMMAX =          18
 
 POTCAR:   PAW_PBE Se 06Sep2000                   
   VRHFIN =Se: s2p4                                                                                 
   LEXCH  = PE                                                                                      
   EATOM  =   256.9644 eV,   18.8864 Ry                                                             
                                                                                                    
   TITEL  = PAW_PBE Se 06Sep2000                                                                    
   LULTRA =        F    use ultrasoft PP ?                                                          
   IUNSCR =        1    unscreen: 0-lin 1-nonlin 2-no                                               
   RPACOR =    1.900    partial core radius                                                         
   POMASS =   78.960; ZVAL   =    6.000    mass and valenz                                          
   RCORE  =    2.100    outmost cutoff radius                                                       
   RWIGS  =    2.200; RWIGS  =    1.164    wigner-seitz radius (au A)                               
   ENMAX  =  211.534; ENMIN  =  158.651 eV                                                          
   ICORE  =        3    local potential                                                             
   LCOR   =        T    correct aug charges                                                         
   LPAW   =        T    paw PP                                                                      
   EAUG   =  446.842                                                                                
   DEXC   =    -.031                                                                                
   RMAX   =    3.170    core radius for proj-oper                                                   
   RAUG   =    1.300    factor for augmentation sphere                                              
   RDEP   =    2.177    radius for radial grids                                                     
   QCUT   =   -3.943; QGAM   =    7.886    optimization parameters                                  
                                                                                                    
   Description                                                                                      
     l     E      TYP  RCUT    TYP  RCUT                                                            
     0   .000     23  2.100                                                                         
     0   .000     23  2.100                                                                         
     1   .000     23  2.100                                                                         
     1   .000     23  2.100                                                                         
     2   .000     23  2.100                                                                         
     3  -.100      7  2.100                                                                         
  local pseudopotential read in
  partial core-charges read in
  atomic valenz-charges read in
  non local Contribution for L=           0  read in
    real space projection operators read in
  non local Contribution for L=           0  read in
    real space projection operators read in
  non local Contribution for L=           1  read in
    real space projection operators read in
  non local Contribution for L=           1  read in
    real space projection operators read in
  non local Contribution for L=           2  read in
    real space projection operators read in
    PAW grid and wavefunctions read in
 
   number of l-projection  operators is LMAX  =           5
   number of lm-projection operators is LMMAX =          13
 
 Optimization of the real space projectors (new method)

 maximal supplied QI-value         = 17.01
 optimisation between [QCUT,QGAM] = [ 11.91, 23.98] = [ 39.69,161.04] Ry 
 Optimized for a Real-space Cutoff    1.45 Angstroem

   l    n(q)    QCUT    max X(q) W(low)/X(q) W(high)/X(q)  e(spline) 
   1     10    11.905     4.550    0.27E-05    0.11E-05    0.28E-07
   1     10    11.905     5.234    0.10E-04    0.61E-04    0.17E-06
   2      9    11.905     3.960    0.19E-04    0.73E-05    0.50E-07
   2      9    11.905    29.565    0.24E-03    0.51E-04    0.27E-06
   0     10    11.905    23.582    0.17E-04    0.10E-05    0.14E-07
   0     10    11.905    39.747    0.23E-04    0.68E-05    0.74E-07
 Optimization of the real space projectors (new method)

 maximal supplied QI-value         = 17.95
 optimisation between [QCUT,QGAM] = [ 11.85, 23.88] = [ 39.31,159.64] Ry 
 Optimized for a Real-space Cutoff    1.18 Angstroem

   l    n(q)    QCUT    max X(q) W(low)/X(q) W(high)/X(q)  e(spline) 
   0      8    11.849     6.499    0.17E-04    0.94E-05    0.89E-08
   0      8    11.849    52.623    0.21E-03    0.78E-04    0.81E-07
   1      8    11.849     4.229    0.79E-04    0.83E-04    0.23E-07
   1      8    11.849    29.991    0.12E-03    0.43E-03    0.14E-06
   2      7    11.849     3.719    0.22E-03    0.64E-04    0.38E-07
 PAW_PBE Fe_pv 06Sep2000                :
 energy of atom  1       EATOM=-2456.8974
 kinetic energy error for atom=    0.0060 (will be added to EATOM!!)
 PAW_PBE Se 06Sep2000                   :
 energy of atom  2       EATOM= -256.9644
 kinetic energy error for atom=    0.0007 (will be added to EATOM!!)
 
 
 POSCAR: Fe8 Se8
  positions in direct lattice
  velocities in cartesian coordinates
 exchange correlation table for  LEXCH =        8
   RHO(1)=    0.500       N(1)  =     2000
   RHO(2)=  100.500       N(2)  =     4000
 


--------------------------------------------------------------------------------------------------------


 ion  position               nearest neighbor table
   1  0.000  0.000  0.000-  11 2.29  14 2.29   5 2.38   8 2.38   7 2.78   6 2.78
   2  0.000  0.500  0.000-  12 2.29  13 2.29   6 2.38   7 2.38   5 2.78   8 2.78
   3  0.500  0.000  0.000-   9 2.29  16 2.29   6 2.38   7 2.38   5 2.78   8 2.78
   4  0.500  0.500  0.000-  10 2.29  15 2.29   5 2.38   8 2.38   7 2.78   6 2.78
   5  0.250  0.250  0.000-   9 2.29  13 2.29   1 2.38   4 2.38   3 2.78   2 2.78
   6  0.250  0.750  0.000-  10 2.29  14 2.29   2 2.38   3 2.38   1 2.78   4 2.78
   7  0.750  0.250  0.000-  11 2.29  15 2.29   2 2.38   3 2.38   1 2.78   4 2.78
   8  0.750  0.750  0.000-  12 2.29  16 2.29   1 2.38   4 2.38   3 2.78   2 2.78
   9  0.375  0.125  0.669-   3 2.29   5 2.29
  10  0.375  0.625  0.669-   4 2.29   6 2.29
  11  0.875  0.125  0.669-   1 2.29   7 2.29
  12  0.875  0.625  0.669-   2 2.29   8 2.29
  13  0.125  0.375  0.331-   2 2.29   5 2.29
  14  0.125  0.875  0.331-   1 2.29   6 2.29
  15  0.625  0.375  0.331-   4 2.29   7 2.29
  16  0.625  0.875  0.331-   3 2.29   8 2.29
 
  LATTYP: Found a base centered orthorhombic cell.
 ALAT       =     9.5298792788
 B/A-ratio  =     1.1666920980
 C/A-ratio  =     0.5763741977
  
  Lattice vectors:
  
 A1 = (   4.7649396394,  -5.5592174248,   0.0000000000)
 A2 = (   4.7649396394,   5.5592174248,   0.0000000000)
 A3 = (   0.0000000000,   0.0000000000,   5.4927765235)


Analysis of symmetry for initial positions (statically):
=====================================================================
 Subroutine PRICEL returns following result:
 
  LATTYP: Found a base centered orthorhombic cell.
 ALAT       =     4.7649396394
 B/A-ratio  =     1.1666920980
 C/A-ratio  =     1.1527483954
  
  Lattice vectors:
  
 A1 = (   2.3824698197,  -2.7796087124,   0.0000000000)
 A2 = (   2.3824698197,   2.7796087124,   0.0000000000)
 A3 = (   0.0000000000,   0.0000000000,   5.4927765235)
 
   4 primitive cells build up your supercell.
 

 Routine SETGRP: Setting up the symmetry group for a 
 base centered orthorhombic supercell.


 Subroutine GETGRP returns: Found  8 space group operations
 (whereof  4 operations were pure point group operations)
 out of a pool of  8 trial point group operations.


The static configuration has the point symmetry C_2h.
 The point group associated with its full space group is D_2h.


Analysis of symmetry for dynamics (positions and initial velocities):
=====================================================================
 Subroutine PRICEL returns following result:
 
  LATTYP: Found a base centered orthorhombic cell.
 ALAT       =     4.7649396394
 B/A-ratio  =     1.1666920980
 C/A-ratio  =     1.1527483954
  
  Lattice vectors:
  
 A1 = (   2.3824698197,  -2.7796087124,   0.0000000000)
 A2 = (   2.3824698197,   2.7796087124,   0.0000000000)
 A3 = (   0.0000000000,   0.0000000000,   5.4927765235)
 
   4 primitive cells build up your supercell.
 

 Routine SETGRP: Setting up the symmetry group for a 
 base centered orthorhombic supercell.


 Subroutine GETGRP returns: Found  8 space group operations
 (whereof  4 operations were pure point group operations)
 out of a pool of  8 trial point group operations.


The dynamic configuration has the point symmetry C_2h.
 The point group associated with its full space group is D_2h.


Analysis of structural, dynamic, and magnetic symmetry:
=====================================================================
 Subroutine PRICEL returns following result:
 
  LATTYP: Found a base centered orthorhombic cell.
 ALAT       =     4.7649396394
 B/A-ratio  =     1.1666920980
 C/A-ratio  =     1.1527483954
  
  Lattice vectors:
  
 A1 = (   2.3824698197,  -2.7796087124,   0.0000000000)
 A2 = (   2.3824698197,   2.7796087124,   0.0000000000)
 A3 = (   0.0000000000,   0.0000000000,   5.4927765235)
 
   4 primitive cells build up your supercell.
 

 Routine SETGRP: Setting up the symmetry group for a 
 base centered orthorhombic supercell.


 Subroutine GETGRP returns: Found  8 space group operations
 (whereof  4 operations were pure point group operations)
 out of a pool of  8 trial point group operations.


The overall configuration has the point symmetry C_2h.
 The point group associated with its full space group is D_2h.


 Subroutine INISYM returns: Found  8 space group operations
 (whereof  4 operations are pure point group operations),
 and found     4 'primitive' translations


----------------------------------------------------------------------------------------

                                     Primitive cell                                     

  volume of cell :      72.7500

  direct lattice vectors                    reciprocal lattice vectors
     2.382469820 -2.779608712  0.000000000     0.209866247 -0.179881434  0.000000000
     2.382469820  2.779608712  0.000000000     0.209866247  0.179881434  0.000000000
     0.000000000  0.000000000  5.492776524     0.000000000  0.000000000  0.182057288

  length of vectors
     3.660927073  3.660927073  5.492776524     0.276407619  0.276407619  0.182057288

  position of ions in fractional coordinates (direct lattice)
     0.000000000  0.000000000  0.000000000
     0.500000000  0.500000000  0.000000000
     0.750000000  0.250000000  0.668612132
     0.250000000  0.750000000  0.331387868

  ion indices of the primitive-cell ions
   primitive index   ion index
                 1           1
                 2           5
                 3          11
                 4          14

----------------------------------------------------------------------------------------

 
 
 KPOINTS: KPOINTS                                 

Automatic generation of k-mesh.
 Grid dimensions read from file:
 generate k-points for:    7    7    9

 Generating k-lattice:

  Cartesian coordinates                     Fractional coordinates (reciprocal lattice)
     0.014990446 -0.012848674  0.000000000     0.142857143 -0.000000000  0.000000000
     0.014990446  0.012848674  0.000000000    -0.000000000  0.142857143  0.000000000
     0.000000000  0.000000000  0.020228588     0.000000000  0.000000000  0.111111111

  Length of vectors
     0.019743401  0.019743401  0.020228588

  Shift w.r.t. Gamma in fractional coordinates (k-lattice)
     0.000000000  0.000000000  0.000000000

 TETIRR: Found    664 inequivalent tetrahedra from     2646
 
 Subroutine IBZKPT returns following result:
 ===========================================
 
 Found     80 irreducible k-points:
 
 Following reciprocal coordinates:
            Coordinates               Weight
  0.000000  0.000000  0.000000      1.000000
  0.142857  0.000000  0.000000      4.000000
  0.285714 -0.000000  0.000000      4.000000
  0.428571  0.000000  0.000000      4.000000
  0.142857  0.142857  0.000000      2.000000
  0.285714  0.142857  0.000000      4.000000
  0.428571  0.142857  0.000000      4.000000
 -0.428571  0.142857  0.000000      4.000000
 -0.285714  0.142857  0.000000      4.000000
 -0.142857  0.142857  0.000000      2.000000
  0.285714  0.285714  0.000000      2.000000
  0.428571  0.285714  0.000000      4.000000
 -0.428571  0.285714  0.000000      4.000000
 -0.285714  0.285714  0.000000      2.000000
  0.428571  0.428571  0.000000      2.000000
 -0.428571  0.428571  0.000000      2.000000
  0.000000  0.000000  0.111111      2.000000
  0.142857  0.000000  0.111111      8.000000
  0.285714 -0.000000  0.111111      8.000000
  0.428571  0.000000  0.111111      8.000000
  0.142857  0.142857  0.111111      4.000000
  0.285714  0.142857  0.111111      8.000000
  0.428571  0.142857  0.111111      8.000000
 -0.428571  0.142857  0.111111      8.000000
 -0.285714  0.142857  0.111111      8.000000
 -0.142857  0.142857  0.111111      4.000000
  0.285714  0.285714  0.111111      4.000000
  0.428571  0.285714  0.111111      8.000000
 -0.428571  0.285714  0.111111      8.000000
 -0.285714  0.285714  0.111111      4.000000
  0.428571  0.428571  0.111111      4.000000
 -0.428571  0.428571  0.111111      4.000000
  0.000000  0.000000  0.222222      2.000000
  0.142857  0.000000  0.222222      8.000000
  0.285714 -0.000000  0.222222      8.000000
  0.428571  0.000000  0.222222      8.000000
  0.142857  0.142857  0.222222      4.000000
  0.285714  0.142857  0.222222      8.000000
  0.428571  0.142857  0.222222      8.000000
 -0.428571  0.142857  0.222222      8.000000
 -0.285714  0.142857  0.222222      8.000000
 -0.142857  0.142857  0.222222      4.000000
  0.285714  0.285714  0.222222      4.000000
  0.428571  0.285714  0.222222      8.000000
 -0.428571  0.285714  0.222222      8.000000
 -0.285714  0.285714  0.222222      4.000000
  0.428571  0.428571  0.222222      4.000000
 -0.428571  0.428571  0.222222      4.000000
  0.000000  0.000000  0.333333      2.000000
  0.142857  0.000000  0.333333      8.000000
  0.285714 -0.000000  0.333333      8.000000
  0.428571  0.000000  0.333333      8.000000
  0.142857  0.142857  0.333333      4.000000
  0.285714  0.142857  0.333333      8.000000
  0.428571  0.142857  0.333333      8.000000
 -0.428571  0.142857  0.333333      8.000000
 -0.285714  0.142857  0.333333      8.000000
 -0.142857  0.142857  0.333333      4.000000
  0.285714  0.285714  0.333333      4.000000
  0.428571  0.285714  0.333333      8.000000
 -0.428571  0.285714  0.333333      8.000000
 -0.285714  0.285714  0.333333      4.000000
  0.428571  0.428571  0.333333      4.000000
 -0.428571  0.428571  0.333333      4.000000
  0.000000  0.000000  0.444444      2.000000
  0.142857  0.000000  0.444444      8.000000
  0.285714 -0.000000  0.444444      8.000000
  0.428571  0.000000  0.444444      8.000000
  0.142857  0.142857  0.444444      4.000000
  0.285714  0.142857  0.444444      8.000000
  0.428571  0.142857  0.444444      8.000000
 -0.428571  0.142857  0.444444      8.000000
 -0.285714  0.142857  0.444444      8.000000
 -0.142857  0.142857  0.444444      4.000000
  0.285714  0.285714  0.444444      4.000000
  0.428571  0.285714  0.444444      8.000000
 -0.428571  0.285714  0.444444      8.000000
 -0.285714  0.285714  0.444444      4.000000
  0.428571  0.428571  0.444444      4.000000
 -0.428571  0.428571  0.444444      4.000000
 
 Following cartesian coordinates:
            Coordinates               Weight
  0.000000  0.000000  0.000000      1.000000
  0.014990 -0.012849  0.000000      4.000000
  0.029981 -0.025697  0.000000      4.000000
  0.044971 -0.038546  0.000000      4.000000
  0.029981 -0.000000  0.000000      2.000000
  0.044971 -0.012849  0.000000      4.000000
  0.059962 -0.025697  0.000000      4.000000
 -0.029981  0.051395  0.000000      4.000000
 -0.014990  0.038546  0.000000      4.000000
  0.000000  0.025697  0.000000      2.000000
  0.059962 -0.000000  0.000000      2.000000
  0.074952 -0.012849  0.000000      4.000000
 -0.014990  0.064243  0.000000      4.000000
  0.000000  0.051395  0.000000      2.000000
  0.089943  0.000000  0.000000      2.000000
 -0.000000  0.077092  0.000000      2.000000
  0.000000  0.000000  0.020229      2.000000
  0.014990 -0.012849  0.020229      8.000000
  0.029981 -0.025697  0.020229      8.000000
  0.044971 -0.038546  0.020229      8.000000
  0.029981 -0.000000  0.020229      4.000000
  0.044971 -0.012849  0.020229      8.000000
  0.059962 -0.025697  0.020229      8.000000
 -0.029981  0.051395  0.020229      8.000000
 -0.014990  0.038546  0.020229      8.000000
  0.000000  0.025697  0.020229      4.000000
  0.059962 -0.000000  0.020229      4.000000
  0.074952 -0.012849  0.020229      8.000000
 -0.014990  0.064243  0.020229      8.000000
  0.000000  0.051395  0.020229      4.000000
  0.089943  0.000000  0.020229      4.000000
 -0.000000  0.077092  0.020229      4.000000
  0.000000  0.000000  0.040457      2.000000
  0.014990 -0.012849  0.040457      8.000000
  0.029981 -0.025697  0.040457      8.000000
  0.044971 -0.038546  0.040457      8.000000
  0.029981 -0.000000  0.040457      4.000000
  0.044971 -0.012849  0.040457      8.000000
  0.059962 -0.025697  0.040457      8.000000
 -0.029981  0.051395  0.040457      8.000000
 -0.014990  0.038546  0.040457      8.000000
  0.000000  0.025697  0.040457      4.000000
  0.059962 -0.000000  0.040457      4.000000
  0.074952 -0.012849  0.040457      8.000000
 -0.014990  0.064243  0.040457      8.000000
  0.000000  0.051395  0.040457      4.000000
  0.089943  0.000000  0.040457      4.000000
 -0.000000  0.077092  0.040457      4.000000
  0.000000  0.000000  0.060686      2.000000
  0.014990 -0.012849  0.060686      8.000000
  0.029981 -0.025697  0.060686      8.000000
  0.044971 -0.038546  0.060686      8.000000
  0.029981 -0.000000  0.060686      4.000000
  0.044971 -0.012849  0.060686      8.000000
  0.059962 -0.025697  0.060686      8.000000
 -0.029981  0.051395  0.060686      8.000000
 -0.014990  0.038546  0.060686      8.000000
  0.000000  0.025697  0.060686      4.000000
  0.059962 -0.000000  0.060686      4.000000
  0.074952 -0.012849  0.060686      8.000000
 -0.014990  0.064243  0.060686      8.000000
  0.000000  0.051395  0.060686      4.000000
  0.089943  0.000000  0.060686      4.000000
 -0.000000  0.077092  0.060686      4.000000
  0.000000  0.000000  0.080914      2.000000
  0.014990 -0.012849  0.080914      8.000000
  0.029981 -0.025697  0.080914      8.000000
  0.044971 -0.038546  0.080914      8.000000
  0.029981 -0.000000  0.080914      4.000000
  0.044971 -0.012849  0.080914      8.000000
  0.059962 -0.025697  0.080914      8.000000
 -0.029981  0.051395  0.080914      8.000000
 -0.014990  0.038546  0.080914      8.000000
  0.000000  0.025697  0.080914      4.000000
  0.059962 -0.000000  0.080914      4.000000
  0.074952 -0.012849  0.080914      8.000000
 -0.014990  0.064243  0.080914      8.000000
  0.000000  0.051395  0.080914      4.000000
  0.089943  0.000000  0.080914      4.000000
 -0.000000  0.077092  0.080914      4.000000
 


--------------------------------------------------------------------------------------------------------




 Dimension of arrays:
   k-points           NKPTS =     80   k-points in BZ     NKDIM =     80   number of bands    NBANDS=    100
   number of dos      NEDOS =    301   number of ions     NIONS =     16
   non local maximal  LDIM  =      6   non local SUM 2l+1 LMDIM =     18
   total plane-waves  NPLWV = 131712
   max r-space proj   IRMAX =   5805   max aug-charges    IRDMAX=  19936
   dimension x,y,z NGX =    56 NGY =   56 NGZ =   42
   dimension x,y,z NGXF=   112 NGYF=  112 NGZF=   84
   support grid    NGXF=   112 NGYF=  112 NGZF=   84
   ions per type =               8   8
   NGX,Y,Z   is equivalent  to a cutoff of  12.72, 12.72, 12.71 a.u.
   NGXF,Y,Z  is equivalent  to a cutoff of  25.43, 25.43, 25.42 a.u.

 SYSTEM =  unknown system                          
 POSCAR =  Fe8 Se8                                 

 Startparameter for this run:
   NWRITE =      2    write-flag & timer
   PREC   = accura    normal or accurate (medium, high low for compatibility)
   ISTART =      0    job   : 0-new  1-cont  2-samecut
   ICHARG =      2    charge: 1-file 2-atom 10-const
   ISPIN  =      2    spin polarized calculation?
   LNONCOLLINEAR =      F non collinear calculations
   LSORBIT =      F    spin-orbit coupling
   INIWAV =      1    electr: 0-lowe 1-rand  2-diag
   LASPH  =      T    aspherical Exc in radial PAW
 Electronic Relaxation 1
   ENCUT  =  550.0 eV  40.42 Ry    6.36 a.u.  14.00 14.00 10.50*2*pi/ulx,y,z
   ENINI  =  550.0     initial cutoff
   ENAUG  =  578.3 eV  augmentation charge cutoff
   NELM   =    100;   NELMIN=  2; NELMDL=  0     # of ELM steps 
   EDIFF  = 0.2E-03   stopping-criterion for ELM
   LREAL  =      T    real-space projection
   NLSPLINE    = F    spline interpolate recip. space projectors
   LCOMPAT=      F    compatible to vasp.4.4
   GGA_COMPAT  = T    GGA compatible to vasp.4.4-vasp.4.6
   LMAXPAW     = -100 max onsite density
   LMAXMIX     =    4 max onsite mixed and CHGCAR
   VOSKOWN=      0    Vosko Wilk Nusair interpolation
   ROPT   =   -0.00025  -0.00025
 Ionic relaxation
   EDIFFG = 0.2E-02   stopping-criterion for IOM
   NSW    =      0    number of steps for IOM
   NBLOCK =      1;   KBLOCK =      1    inner block; outer block 
   IBRION =     -1    ionic relax: 0-MD 1-quasi-New 2-CG
   NFREE  =      0    steps in history (QN), initial steepest desc. (CG)
   ISIF   =      4    stress and relaxation
   IWAVPR =     10    prediction:  0-non 1-charg 2-wave 3-comb
   ISYM   =      2    0-nonsym 1-usesym 2-fastsym
   LCORR  =      T    Harris-Foulkes like correction to forces

   POTIM  = 0.5000    time-step for ionic-motion
   TEIN   =    0.0    initial temperature
   TEBEG  =    0.0;   TEEND  =   0.0 temperature during run
   SMASS  =  -3.00    Nose mass-parameter (am)
   estimated Nose-frequenzy (Omega)   =  0.10E-29 period in steps = 0.13E+47 mass=  -0.123E-26a.u.
   SCALEE = 1.0000    scale energy and forces
   NPACO  =    256;   APACO  = 10.0  distance and # of slots for P.C.
   PSTRESS=    0.0 pullay stress

  Mass of Ions in am
   POMASS =  55.85 78.96
  Ionic Valenz
   ZVAL   =  14.00  6.00
  Atomic Wigner-Seitz radii
   RWIGS  =  -1.00 -1.00
  virtual crystal weights 
   VCA    =   1.00  1.00
   NELECT =     160.0000    total number of electrons
   NUPDOWN=      -1.0000    fix difference up-down

 DOS related values:
   EMIN   =  10.00;   EMAX   =-10.00  energy-range for DOS
   EFERMI =   0.00;   METHOD = LEGACY      
   ISMEAR =    -5;   SIGMA  =   0.05  broadening in eV -4-tet -1-fermi 0-gaus

 Electronic relaxation 2 (details)
   IALGO  =     68    algorithm
   LDIAG  =      T    sub-space diagonalisation (order eigenvalues)
   LSUBROT=      F    optimize rotation matrix (better conditioning)
   TURBO    =      0    0=normal 1=particle mesh
   IRESTART =      0    0=no restart 2=restart with 2 vectors
   NREBOOT  =      0    no. of reboots
   NMIN     =      0    reboot dimension
   EREF     =   0.00    reference energy to select bands
   IMIX   =      4    mixing-type and parameters
     AMIX     =   0.40;   BMIX     =  1.00
     AMIX_MAG =   1.60;   BMIX_MAG =  1.00
     AMIN     =   0.10
     WC   =   100.;   INIMIX=   1;  MIXPRE=   1;  MAXMIX= -45

 Intra band minimization:
   WEIMIN = 0.0000     energy-eigenvalue tresh-hold
   EBREAK =  0.50E-06  absolut break condition
   DEPER  =   0.30     relativ break condition  

   TIME   =   0.40     timestep for ELM

  volume/ion in A,a.u.               =      18.19       122.74
  Fermi-wavevector in a.u.,A,eV,Ry     =   1.341170  2.534444 24.473302  1.798737
  Thomas-Fermi vector in A             =   2.469425
 
 Write flags
   LWAVE        =      F    write WAVECAR
   LDOWNSAMPLE  =      F    k-point downsampling of WAVECAR
   LCHARG       =      T    write CHGCAR
   LVTOT        =      F    write LOCPOT, total local potential
   LVHAR        =      F    write LOCPOT, Hartree potential only
   LELF         =      F    write electronic localiz. function (ELF)
   LORBIT       =     11    0 simple, 1 ext, 2 COOP (PROOUT), +10 PAW based schemes


 Dipole corrections
   LMONO  =      F    monopole corrections only (constant potential shift)
   LDIPOL =      F    correct potential (dipole corrections)
   IDIPOL =      0    1-x, 2-y, 3-z, 4-all directions 
   EPSILON=  1.0000000 bulk dielectric constant

 Exchange correlation treatment:
   GGA     =    --    GGA type
   LEXCH   =     8    internal setting for exchange type
   LIBXC   =     F    Libxc                    
   VOSKOWN =     0    Vosko Wilk Nusair interpolation
   LHFCALC =     F    Hartree Fock is set to
   LHFONE  =     F    Hartree Fock one center treatment
   AEXX    =    0.0000 exact exchange contribution

 Linear response parameters
   LEPSILON=     F    determine dielectric tensor
   LRPA    =     F    only Hartree local field effects (RPA)
   LNABLA  =     F    use nabla operator in PAW spheres
   LVEL    =     F    velocity operator in full k-point grid
   CSHIFT  =0.1000    complex shift for real part using Kramers Kronig
   OMEGAMAX=  -1.0    maximum frequency
   DEG_THRESHOLD= 0.2000000E-02 threshold for treating states as degnerate
   RTIME   =   -0.100 relaxation time in fs
  (WPLASMAI=    0.000 imaginary part of plasma frequency in eV, 0.658/RTIME)
   DFIELD  = 0.0000000 0.0000000 0.0000000 field for delta impulse in time
 
  Optional k-point grid parameters
   LKPOINTS_OPT  =     F    use optional k-point grid
   KPOINTS_OPT_MODE=     1    mode for optional k-point grid
 
 Orbital magnetization related:
   ORBITALMAG=     F  switch on orbital magnetization
   LCHIMAG   =     F  perturbation theory with respect to B field
   DQ        =  0.001000  dq finite difference perturbation B field
   LLRAUG    =     F  two centre corrections for induced B field
   LBONE     =     F  B-component reconstruction in AE one-centre
   LVGVCALC  =     T  calculate vGv susceptibility
   LVGVAPPL  =     F  apply vGv susceptibility instead of pGv for G=0

 Random number generation:
   RANDOM_GENERATOR = DEFAULT
   PCG_SEED         = not used


--------------------------------------------------------------------------------------------------------


 Static calculation
 charge density and potential will be updated during run
 spin polarized calculation
 RMM-DIIS sequential band-by-band and
  variant of blocked Davidson during initial phase
 perform sub-space diagonalisation
    before iterative eigenvector-optimisation
 modified Broyden-mixing scheme, WC =      100.0
 initial mixing is a Kerker type mixing with AMIX =  0.4000 and BMIX =      1.0000
 Hartree-type preconditioning will be used
 using additional bands           20
 real space projection scheme for non local part
 use partial core corrections
 calculate Harris-corrections to forces 
   (improved forces if not selfconsistent)
 use gradient corrections 
 use of overlap-Matrix (Vanderbilt PP)
 Fermi weights with tetrahedron method with Bloechl corrections


--------------------------------------------------------------------------------------------------------


  energy-cutoff  :      550.00
  volume of cell :      291.00
      direct lattice vectors                 reciprocal lattice vectors
     4.764939639 -5.559217425  0.000000000     0.104933124 -0.089940717  0.000000000
     4.764939639  5.559217425  0.000000000     0.104933124  0.089940717  0.000000000
     0.000000000  0.000000000  5.492776524     0.000000000  0.000000000  0.182057288

  length of vectors
     7.321854147  7.321854147  5.492776524     0.138203810  0.138203810  0.182057288


 
 k-points in units of 2pi/SCALE and weight: KPOINTS                                 
   0.00000000  0.00000000  0.00000000       0.002
   0.01499045 -0.01284867  0.00000000       0.009
   0.02998089 -0.02569735  0.00000000       0.009
   0.04497134 -0.03854602  0.00000000       0.009
   0.02998089 -0.00000000  0.00000000       0.005
   0.04497134 -0.01284867  0.00000000       0.009
   0.05996178 -0.02569735  0.00000000       0.009
  -0.02998089  0.05139470  0.00000000       0.009
  -0.01499045  0.03854602  0.00000000       0.009
  -0.00000000  0.02569735  0.00000000       0.005
   0.05996178  0.00000000  0.00000000       0.005
   0.07495223 -0.01284867  0.00000000       0.009
  -0.01499045  0.06424337  0.00000000       0.009
  -0.00000000  0.05139470  0.00000000       0.005
   0.08994268  0.00000000  0.00000000       0.005
   0.00000000  0.07709204  0.00000000       0.005
   0.00000000  0.00000000  0.02022859       0.005
   0.01499045 -0.01284867  0.02022859       0.018
   0.02998089 -0.02569735  0.02022859       0.018
   0.04497134 -0.03854602  0.02022859       0.018
   0.02998089 -0.00000000  0.02022859       0.009
   0.04497134 -0.01284867  0.02022859       0.018
   0.05996178 -0.02569735  0.02022859       0.018
  -0.02998089  0.05139470  0.02022859       0.018
  -0.01499045  0.03854602  0.02022859       0.018
  -0.00000000  0.02569735  0.02022859       0.009
   0.05996178  0.00000000  0.02022859       0.009
   0.07495223 -0.01284867  0.02022859       0.018
  -0.01499045  0.06424337  0.02022859       0.018
  -0.00000000  0.05139470  0.02022859       0.009
   0.08994268  0.00000000  0.02022859       0.009
   0.00000000  0.07709204  0.02022859       0.009
   0.00000000  0.00000000  0.04045718       0.005
   0.01499045 -0.01284867  0.04045718       0.018
   0.02998089 -0.02569735  0.04045718       0.018
   0.04497134 -0.03854602  0.04045718       0.018
   0.02998089 -0.00000000  0.04045718       0.009
   0.04497134 -0.01284867  0.04045718       0.018
   0.05996178 -0.02569735  0.04045718       0.018
  -0.02998089  0.05139470  0.04045718       0.018
  -0.01499045  0.03854602  0.04045718       0.018
  -0.00000000  0.02569735  0.04045718       0.009
   0.05996178  0.00000000  0.04045718       0.009
   0.07495223 -0.01284867  0.04045718       0.018
  -0.01499045  0.06424337  0.04045718       0.018
  -0.00000000  0.05139470  0.04045718       0.009
   0.08994268  0.00000000  0.04045718       0.009
   0.00000000  0.07709204  0.04045718       0.009
   0.00000000  0.00000000  0.06068576       0.005
   0.01499045 -0.01284867  0.06068576       0.018
   0.02998089 -0.02569735  0.06068576       0.018
   0.04497134 -0.03854602  0.06068576       0.018
   0.02998089 -0.00000000  0.06068576       0.009
   0.04497134 -0.01284867  0.06068576       0.018
   0.05996178 -0.02569735  0.06068576       0.018
  -0.02998089  0.05139470  0.06068576       0.018
  -0.01499045  0.03854602  0.06068576       0.018
  -0.00000000  0.02569735  0.06068576       0.009
   0.05996178  0.00000000  0.06068576       0.009
   0.07495223 -0.01284867  0.06068576       0.018
  -0.01499045  0.06424337  0.06068576       0.018
  -0.00000000  0.05139470  0.06068576       0.009
   0.08994268  0.00000000  0.06068576       0.009
   0.00000000  0.07709204  0.06068576       0.009
   0.00000000  0.00000000  0.08091435       0.005
   0.01499045 -0.01284867  0.08091435       0.018
   0.02998089 -0.02569735  0.08091435       0.018
   0.04497134 -0.03854602  0.08091435       0.018
   0.02998089 -0.00000000  0.08091435       0.009
   0.04497134 -0.01284867  0.08091435       0.018
   0.05996178 -0.02569735  0.08091435       0.018
  -0.02998089  0.05139470  0.08091435       0.018
  -0.01499045  0.03854602  0.08091435       0.018
  -0.00000000  0.02569735  0.08091435       0.009
   0.05996178  0.00000000  0.08091435       0.009
   0.07495223 -0.01284867  0.08091435       0.018
  -0.01499045  0.06424337  0.08091435       0.018
  -0.00000000  0.05139470  0.08091435       0.009
   0.08994268  0.00000000  0.08091435       0.009
   0.00000000  0.07709204  0.08091435       0.009
 
 k-points in reciprocal lattice and weights: KPOINTS                                 
   0.00000000  0.00000000  0.00000000       0.002
   0.14285714  0.00000000  0.00000000       0.009
   0.28571429 -0.00000000  0.00000000       0.009
   0.42857143  0.00000000  0.00000000       0.009
   0.14285714  0.14285714  0.00000000       0.005
   0.28571429  0.14285714  0.00000000       0.009
   0.42857143  0.14285714  0.00000000       0.009
  -0.42857143  0.14285714  0.00000000       0.009
  -0.28571429  0.14285714  0.00000000       0.009
  -0.14285714  0.14285714  0.00000000       0.005
   0.28571429  0.28571429  0.00000000       0.005
   0.42857143  0.28571429  0.00000000       0.009
  -0.42857143  0.28571429  0.00000000       0.009
  -0.28571429  0.28571429  0.00000000       0.005
   0.42857143  0.42857143  0.00000000       0.005
  -0.42857143  0.42857143  0.00000000       0.005
   0.00000000  0.00000000  0.11111111       0.005
   0.14285714  0.00000000  0.11111111       0.018
   0.28571429 -0.00000000  0.11111111       0.018
   0.42857143  0.00000000  0.11111111       0.018
   0.14285714  0.14285714  0.11111111       0.009
   0.28571429  0.14285714  0.11111111       0.018
   0.42857143  0.14285714  0.11111111       0.018
  -0.42857143  0.14285714  0.11111111       0.018
  -0.28571429  0.14285714  0.11111111       0.018
  -0.14285714  0.14285714  0.11111111       0.009
   0.28571429  0.28571429  0.11111111       0.009
   0.42857143  0.28571429  0.11111111       0.018
  -0.42857143  0.28571429  0.11111111       0.018
  -0.28571429  0.28571429  0.11111111       0.009
   0.42857143  0.42857143  0.11111111       0.009
  -0.42857143  0.42857143  0.11111111       0.009
   0.00000000  0.00000000  0.22222222       0.005
   0.14285714  0.00000000  0.22222222       0.018
   0.28571429 -0.00000000  0.22222222       0.018
   0.42857143  0.00000000  0.22222222       0.018
   0.14285714  0.14285714  0.22222222       0.009
   0.28571429  0.14285714  0.22222222       0.018
   0.42857143  0.14285714  0.22222222       0.018
  -0.42857143  0.14285714  0.22222222       0.018
  -0.28571429  0.14285714  0.22222222       0.018
  -0.14285714  0.14285714  0.22222222       0.009
   0.28571429  0.28571429  0.22222222       0.009
   0.42857143  0.28571429  0.22222222       0.018
  -0.42857143  0.28571429  0.22222222       0.018
  -0.28571429  0.28571429  0.22222222       0.009
   0.42857143  0.42857143  0.22222222       0.009
  -0.42857143  0.42857143  0.22222222       0.009
   0.00000000  0.00000000  0.33333333       0.005
   0.14285714  0.00000000  0.33333333       0.018
   0.28571429 -0.00000000  0.33333333       0.018
   0.42857143  0.00000000  0.33333333       0.018
   0.14285714  0.14285714  0.33333333       0.009
   0.28571429  0.14285714  0.33333333       0.018
   0.42857143  0.14285714  0.33333333       0.018
  -0.42857143  0.14285714  0.33333333       0.018
  -0.28571429  0.14285714  0.33333333       0.018
  -0.14285714  0.14285714  0.33333333       0.009
   0.28571429  0.28571429  0.33333333       0.009
   0.42857143  0.28571429  0.33333333       0.018
  -0.42857143  0.28571429  0.33333333       0.018
  -0.28571429  0.28571429  0.33333333       0.009
   0.42857143  0.42857143  0.33333333       0.009
  -0.42857143  0.42857143  0.33333333       0.009
   0.00000000  0.00000000  0.44444444       0.005
   0.14285714  0.00000000  0.44444444       0.018
   0.28571429 -0.00000000  0.44444444       0.018
   0.42857143  0.00000000  0.44444444       0.018
   0.14285714  0.14285714  0.44444444       0.009
   0.28571429  0.14285714  0.44444444       0.018
   0.42857143  0.14285714  0.44444444       0.018
  -0.42857143  0.14285714  0.44444444       0.018
  -0.28571429  0.14285714  0.44444444       0.018
  -0.14285714  0.14285714  0.44444444       0.009
   0.28571429  0.28571429  0.44444444       0.009
   0.42857143  0.28571429  0.44444444       0.018
  -0.42857143  0.28571429  0.44444444       0.018
  -0.28571429  0.28571429  0.44444444       0.009
   0.42857143  0.42857143  0.44444444       0.009
  -0.42857143  0.42857143  0.44444444       0.009
 
 position of ions in fractional coordinates (direct lattice) 
   0.00000000  0.00000000  0.00000000
   0.00000000  0.50000000  0.00000000
   0.50000000  0.00000000  0.00000000
   0.50000000  0.50000000  0.00000000
   0.25000000  0.25000000  0.00000000
   0.25000000  0.75000000  0.00000000
   0.75000000  0.25000000  0.00000000
   0.75000000  0.75000000  0.00000000
   0.37500000  0.12500000  0.66861213
   0.37500000  0.62500000  0.66861213
   0.87500000  0.12500000  0.66861213
   0.87500000  0.62500000  0.66861213
   0.12500000  0.37500000  0.33138787
   0.12500000  0.87500000  0.33138787
   0.62500000  0.37500000  0.33138787
   0.62500000  0.87500000  0.33138787
 
 position of ions in cartesian coordinates  (Angst):
   0.00000000  0.00000000  0.00000000
   2.38246982  2.77960871  0.00000000
   2.38246982 -2.77960871  0.00000000
   4.76493964  0.00000000  0.00000000
   2.38246982  0.00000000  0.00000000
   4.76493964  2.77960871  0.00000000
   4.76493964 -2.77960871  0.00000000
   7.14740946  0.00000000  0.00000000
   2.38246982 -1.38980436  3.67253702
   4.76493964  1.38980436  3.67253702
   4.76493964 -4.16941307  3.67253702
   7.14740946 -1.38980436  3.67253702
   2.38246982  1.38980436  1.82023950
   4.76493964  4.16941307  1.82023950
   4.76493964 -1.38980436  1.82023950
   7.14740946  1.38980436  1.82023950
 


--------------------------------------------------------------------------------------------------------


 k-point   1 :   0.0000 0.0000 0.0000  plane waves:    8507
 k-point   2 :   0.1429 0.0000 0.0000  plane waves:    8520
 k-point   3 :   0.2857-0.0000 0.0000  plane waves:    8543
 k-point   4 :   0.4286 0.0000 0.0000  plane waves:    8530
 k-point   5 :   0.1429 0.1429 0.0000  plane waves:    8550
 k-point   6 :   0.2857 0.1429 0.0000  plane waves:    8556
 k-point   7 :   0.4286 0.1429 0.0000  plane waves:    8537
 k-point   8 :  -0.4286 0.1429 0.0000  plane waves:    8540
 k-point   9 :  -0.2857 0.1429 0.0000  plane waves:    8541
 k-point  10 :  -0.1429 0.1429 0.0000  plane waves:    8531
 k-point  11 :   0.2857 0.2857 0.0000  plane waves:    8514
 k-point  12 :   0.4286 0.2857 0.0000  plane waves:    8523
 k-point  13 :  -0.4286 0.2857 0.0000  plane waves:    8520
 k-point  14 :  -0.2857 0.2857 0.0000  plane waves:    8541
 k-point  15 :   0.4286 0.4286 0.0000  plane waves:    8524
 k-point  16 :  -0.4286 0.4286 0.0000  plane waves:    8510
 k-point  17 :   0.0000 0.0000 0.1111  plane waves:    8495
 k-point  18 :   0.1429 0.0000 0.1111  plane waves:    8518
 k-point  19 :   0.2857-0.0000 0.1111  plane waves:    8535
 k-point  20 :   0.4286 0.0000 0.1111  plane waves:    8524
 k-point  21 :   0.1429 0.1429 0.1111  plane waves:    8543
 k-point  22 :   0.2857 0.1429 0.1111  plane waves:    8541
 k-point  23 :   0.4286 0.1429 0.1111  plane waves:    8542
 k-point  24 :  -0.4286 0.1429 0.1111  plane waves:    8532
 k-point  25 :  -0.2857 0.1429 0.1111  plane waves:    8536
 k-point  26 :  -0.1429 0.1429 0.1111  plane waves:    8535
 k-point  27 :   0.2857 0.2857 0.1111  plane waves:    8548
 k-point  28 :   0.4286 0.2857 0.1111  plane waves:    8534
 k-point  29 :  -0.4286 0.2857 0.1111  plane waves:    8515
 k-point  30 :  -0.2857 0.2857 0.1111  plane waves:    8533
 k-point  31 :   0.4286 0.4286 0.1111  plane waves:    8538
 k-point  32 :  -0.4286 0.4286 0.1111  plane waves:    8524
 k-point  33 :   0.0000 0.0000 0.2222  plane waves:    8533
 k-point  34 :   0.1429 0.0000 0.2222  plane waves:    8523
 k-point  35 :   0.2857-0.0000 0.2222  plane waves:    8509
 k-point  36 :   0.4286 0.0000 0.2222  plane waves:    8524
 k-point  37 :   0.1429 0.1429 0.2222  plane waves:    8520
 k-point  38 :   0.2857 0.1429 0.2222  plane waves:    8517
 k-point  39 :   0.4286 0.1429 0.2222  plane waves:    8538
 k-point  40 :  -0.4286 0.1429 0.2222  plane waves:    8528
 k-point  41 :  -0.2857 0.1429 0.2222  plane waves:    8525
 k-point  42 :  -0.1429 0.1429 0.2222  plane waves:    8521
 k-point  43 :   0.2857 0.2857 0.2222  plane waves:    8539
 k-point  44 :   0.4286 0.2857 0.2222  plane waves:    8527
 k-point  45 :  -0.4286 0.2857 0.2222  plane waves:    8526
 k-point  46 :  -0.2857 0.2857 0.2222  plane waves:    8515
 k-point  47 :   0.4286 0.4286 0.2222  plane waves:    8537
 k-point  48 :  -0.4286 0.4286 0.2222  plane waves:    8533
 k-point  49 :   0.0000 0.0000 0.3333  plane waves:    8513
 k-point  50 :   0.1429 0.0000 0.3333  plane waves:    8503
 k-point  51 :   0.2857-0.0000 0.3333  plane waves:    8508
 k-point  52 :   0.4286 0.0000 0.3333  plane waves:    8515
 k-point  53 :   0.1429 0.1429 0.3333  plane waves:    8493
 k-point  54 :   0.2857 0.1429 0.3333  plane waves:    8511
 k-point  55 :   0.4286 0.1429 0.3333  plane waves:    8512
 k-point  56 :  -0.4286 0.1429 0.3333  plane waves:    8517
 k-point  57 :  -0.2857 0.1429 0.3333  plane waves:    8517
 k-point  58 :  -0.1429 0.1429 0.3333  plane waves:    8541
 k-point  59 :   0.2857 0.2857 0.3333  plane waves:    8520
 k-point  60 :   0.4286 0.2857 0.3333  plane waves:    8531
 k-point  61 :  -0.4286 0.2857 0.3333  plane waves:    8538
 k-point  62 :  -0.2857 0.2857 0.3333  plane waves:    8532
 k-point  63 :   0.4286 0.4286 0.3333  plane waves:    8522
 k-point  64 :  -0.4286 0.4286 0.3333  plane waves:    8533
 k-point  65 :   0.0000 0.0000 0.4444  plane waves:    8479
 k-point  66 :   0.1429 0.0000 0.4444  plane waves:    8480
 k-point  67 :   0.2857-0.0000 0.4444  plane waves:    8480
 k-point  68 :   0.4286 0.0000 0.4444  plane waves:    8502
 k-point  69 :   0.1429 0.1429 0.4444  plane waves:    8493
 k-point  70 :   0.2857 0.1429 0.4444  plane waves:    8506
 k-point  71 :   0.4286 0.1429 0.4444  plane waves:    8513
 k-point  72 :  -0.4286 0.1429 0.4444  plane waves:    8521
 k-point  73 :  -0.2857 0.1429 0.4444  plane waves:    8514
 k-point  74 :  -0.1429 0.1429 0.4444  plane waves:    8492
 k-point  75 :   0.2857 0.2857 0.4444  plane waves:    8509
 k-point  76 :   0.4286 0.2857 0.4444  plane waves:    8533
 k-point  77 :  -0.4286 0.2857 0.4444  plane waves:    8528
 k-point  78 :  -0.2857 0.2857 0.4444  plane waves:    8529
 k-point  79 :   0.4286 0.4286 0.4444  plane waves:    8542
 k-point  80 :  -0.4286 0.4286 0.4444  plane waves:    8525

 maximum and minimum number of plane-waves per node :      8556     8479

 maximum number of plane-waves:      8556
 maximum index in each direction: 
   IXMAX=   14   IYMAX=   14   IZMAX=   10
   IXMIN=  -14   IYMIN=  -14   IZMIN=  -10


 serial   3D FFT for wavefunctions
 parallel 3D FFT for charge:
    minimum data exchange during FFTs selected (reduces bandwidth)


 total amount of memory used by VASP MPI-rank0   172444. kBytes
=======================================================================

   base      :      30000. kBytes
   nonlr-proj:      11354. kBytes
   fftplans  :       2458. kBytes
   grid      :      15239. kBytes
   one-center:        497. kBytes
   wavefun   :     112896. kBytes
 
     INWAV:  cpu time      0.0000: real time      0.0001
 Broyden mixing: mesh for mixing (old mesh)
   NGX = 29   NGY = 29   NGZ = 21
  (NGX  =112   NGY  =112   NGZ  = 84)
  gives a total of  17661 points

 initial charge density was supplied:
 charge density of overlapping atoms calculated
 number of electron     160.0000000 magnetization       0.0000000
 keeping initial charge density in first step


--------------------------------------------------------------------------------------------------------


 Maximum index for non-local projection operator         5575
 Maximum index for augmentation-charges         1104 (set IRDMAX)


--------------------------------------------------------------------------------------------------------


 First call to EWALD:  gamma=   0.267
 Maximum number of real-space cells 3x 3x 3
 Maximum number of reciprocal cells 3x 3x 2

    FEWALD:  cpu time      0.0015: real time      0.0015


--------------------------------------- Ionic step        1  -------------------------------------------




--------------------------------------- Iteration      1(   1)  ---------------------------------------


    POTLOK:  cpu time      0.0473: real time      0.0620
    SETDIJ:  cpu time      0.2722: real time      0.2731
     EDDAV:  cpu time     24.0941: real time     24.1855
 BZINTS: Fermi energy:   21.480064;  160.000000 electrons
         Band energy:-0.142502E+02;  BLOECHL correction:   -0.093045
       DOS:  cpu time      0.1352: real time      0.1356
    --------------------------------------------
      LOOP:  cpu time     24.5489: real time     24.6563

 eigenvalue-minimisations  : 34080
 total energy-change (2. order) : 0.2041828E+04  (-0.8886145E+04)
 number of electron     160.0000000 magnetization       0.0000000
 augmentation part      160.0000000 magnetization       0.0000000

 Free energy of the ion-electron system (eV)
  ---------------------------------------------------
  alpha Z        PSCENC =       872.68586007
  Ewald energy   TEWEN  =    -11807.15060667
  -Hartree energ DENC   =     -8691.33378832
  -exchange      EXHF   =         0.00000000
  -V(xc)+E(xc)   XCENC  =       566.85928245
  PAW double counting   =     15528.56767168   -16124.39167750
  entropy T*S    EENTRO =         0.00000000
  eigenvalues    EBANDS =       -14.25019646
  atomic energy  EATOM  =     21710.84102437
  Solvation  Ediel_sol  =         0.00000000
  ---------------------------------------------------
  free energy    TOTEN  =      2041.82756962 eV

  energy without entropy =     2041.82756962  energy(sigma->0) =     2041.82756962


--------------------------------------------------------------------------------------------------------




--------------------------------------- Iteration      1(   2)  ---------------------------------------


     EDDAV:  cpu time     22.5542: real time     22.6564
 BZINTS: Fermi energy:    7.637834;  160.000000 electrons
         Band energy:-0.193528E+04;  BLOECHL correction:   -0.030914
       DOS:  cpu time      0.1234: real time      0.1238
    --------------------------------------------
      LOOP:  cpu time     22.6777: real time     22.7803

 eigenvalue-minimisations  : 32000
 total energy-change (2. order) :-0.1921032E+04  (-0.1864711E+04)
 number of electron     160.0000000 magnetization       0.0000000
 augmentation part      160.0000000 magnetization       0.0000000

 Free energy of the ion-electron system (eV)
  ---------------------------------------------------
  alpha Z        PSCENC =       872.68586007
  Ewald energy   TEWEN  =    -11807.15060667
  -Hartree energ DENC   =     -8691.33378832
  -exchange      EXHF   =         0.00000000
  -V(xc)+E(xc)   XCENC  =       566.85928245
  PAW double counting   =     15528.56767168   -16124.39167750
  entropy T*S    EENTRO =         0.00000000
  eigenvalues    EBANDS =     -1935.28175934
  atomic energy  EATOM  =     21710.84102437
  Solvation  Ediel_sol  =         0.00000000
  ---------------------------------------------------
  free energy    TOTEN  =       120.79600674 eV

  energy without entropy =      120.79600674  energy(sigma->0) =      120.79600674


--------------------------------------------------------------------------------------------------------




--------------------------------------- Iteration      1(   3)  ---------------------------------------


     EDDAV:  cpu time     29.6316: real time     29.7899
 BZINTS: Fermi energy:    5.717963;  160.000000 electrons
         Band energy:-0.214031E+04;  BLOECHL correction:   -0.022895
       DOS:  cpu time      0.1263: real time      0.1267
    --------------------------------------------
      LOOP:  cpu time     29.7578: real time     29.9166

 eigenvalue-minimisations  : 45080
 total energy-change (2. order) :-0.2050278E+03  (-0.1819819E+03)
 number of electron     160.0000000 magnetization       0.0000000
 augmentation part      160.0000000 magnetization       0.0000000

 Free energy of the ion-electron system (eV)
  ---------------------------------------------------
  alpha Z        PSCENC =       872.68586007
  Ewald energy   TEWEN  =    -11807.15060667
  -Hartree energ DENC   =     -8691.33378832
  -exchange      EXHF   =         0.00000000
  -V(xc)+E(xc)   XCENC  =       566.85928245
  PAW double counting   =     15528.56767168   -16124.39167750
  entropy T*S    EENTRO =         0.00000000
  eigenvalues    EBANDS =     -2140.30956802
  atomic energy  EATOM  =     21710.84102437
  Solvation  Ediel_sol  =         0.00000000
  ---------------------------------------------------
  free energy    TOTEN  =       -84.23180194 eV

  energy without entropy =      -84.23180194  energy(sigma->0) =      -84.23180194


--------------------------------------------------------------------------------------------------------




--------------------------------------- Iteration      1(   4)  ---------------------------------------


     EDDAV:  cpu time     30.0905: real time     30.2110
 BZINTS: Fermi energy:    5.600349;  160.000000 electrons
         Band energy:-0.215427E+04;  BLOECHL correction:   -0.019853
       DOS:  cpu time      0.1276: real time      0.1281
    --------------------------------------------
      LOOP:  cpu time     30.2181: real time     30.3390

 eigenvalue-minimisations  : 46320
 total energy-change (2. order) :-0.1396349E+02  (-0.1359754E+02)
 number of electron     160.0000000 magnetization       0.0000000
 augmentation part      160.0000000 magnetization       0.0000000

 Free energy of the ion-electron system (eV)
  ---------------------------------------------------
  alpha Z        PSCENC =       872.68586007
  Ewald energy   TEWEN  =    -11807.15060667
  -Hartree energ DENC   =     -8691.33378832
  -exchange      EXHF   =         0.00000000
  -V(xc)+E(xc)   XCENC  =       566.85928245
  PAW double counting   =     15528.56767168   -16124.39167750
  entropy T*S    EENTRO =         0.00000000
  eigenvalues    EBANDS =     -2154.27305534
  atomic energy  EATOM  =     21710.84102437
  Solvation  Ediel_sol  =         0.00000000
  ---------------------------------------------------
  free energy    TOTEN  =       -98.19528926 eV

  energy without entropy =      -98.19528926  energy(sigma->0) =      -98.19528926


--------------------------------------------------------------------------------------------------------




--------------------------------------- Iteration      1(   5)  ---------------------------------------


     EDDAV:  cpu time     29.8675: real time     30.1074
 BZINTS: Fermi energy:    5.596951;  160.000000 electrons
         Band energy:-0.215460E+04;  BLOECHL correction:   -0.019667
       DOS:  cpu time      0.1261: real time      0.1265
    CHARGE:  cpu time      0.6055: real time      0.6084
    MIXING:  cpu time      0.0015: real time      0.0015
    --------------------------------------------
      LOOP:  cpu time     30.6006: real time     30.8439

 eigenvalue-minimisations  : 45480
 total energy-change (2. order) :-0.3286316E+00  (-0.3278278E+00)
 number of electron     159.9999820 magnetization      -0.0000000
 augmentation part       53.2556389 magnetization      -0.0000000

 Broyden mixing:
  rms(total) = 0.26905E+01    rms(broyden)= 0.26903E+01
  rms(prec ) = 0.42342E+01
  weight for this iteration     100.00

 Free energy of the ion-electron system (eV)
  ---------------------------------------------------
  alpha Z        PSCENC =       872.68586007
  Ewald energy   TEWEN  =    -11807.15060667
  -Hartree energ DENC   =     -8691.33378832
  -exchange      EXHF   =         0.00000000
  -V(xc)+E(xc)   XCENC  =       566.85928245
  PAW double counting   =     15528.56767168   -16124.39167750
  entropy T*S    EENTRO =         0.00000000
  eigenvalues    EBANDS =     -2154.60168694
  atomic energy  EATOM  =     21710.84102437
  Solvation  Ediel_sol  =         0.00000000
  ---------------------------------------------------
  free energy    TOTEN  =       -98.52392087 eV

  energy without entropy =      -98.52392087  energy(sigma->0) =      -98.52392087


--------------------------------------------------------------------------------------------------------




--------------------------------------- Iteration      1(   6)  ---------------------------------------


    POTLOK:  cpu time      0.0582: real time      0.0585
    SETDIJ:  cpu time      0.2693: real time      0.2701
    EDDIAG:  cpu time      3.6610: real time      3.6753
  RMM-DIIS:  cpu time     13.7033: real time     13.7480
    ORTHCH:  cpu time      0.5604: real time      0.5624
 BZINTS: Fermi energy:    2.728774;  160.000000 electrons
         Band energy:-0.263022E+04;  BLOECHL correction:   -0.036420
       DOS:  cpu time      0.1310: real time      0.1314
    CHARGE:  cpu time      0.6151: real time      0.6183
    MIXING:  cpu time      0.0011: real time      0.0011
    --------------------------------------------
      LOOP:  cpu time     18.9994: real time     19.0652

 eigenvalue-minimisations  : 34743
 total energy-change (2. order) :-0.1363485E+02  (-0.1590365E+02)
 number of electron     159.9999777 magnetization      -0.0000000
 augmentation part       69.6088950 magnetization      -0.0000000

 Broyden mixing:
  rms(total) = 0.48762E+01    rms(broyden)= 0.48761E+01
  rms(prec ) = 0.80165E+01
  weight for this iteration     100.00

 eigenvalues of (default mixing * dielectric matrix)
  average eigenvalue GAMMA=   0.3130
  0.3130

 Free energy of the ion-electron system (eV)
  ---------------------------------------------------
  alpha Z        PSCENC =       872.68586007
  Ewald energy   TEWEN  =    -11807.15060667
  -Hartree energ DENC   =     -8248.41017271
  -exchange      EXHF   =         0.00000000
  -V(xc)+E(xc)   XCENC  =       554.71138433
  PAW double counting   =     15029.99350048   -15594.61322131
  entropy T*S    EENTRO =         0.00000000
  eigenvalues    EBANDS =     -2630.21654383
  atomic energy  EATOM  =     21710.84102437
  Solvation  Ediel_sol  =         0.00000000
  ---------------------------------------------------
  free energy    TOTEN  =      -112.15877527 eV

  energy without entropy =     -112.15877527  energy(sigma->0) =     -112.15877527


--------------------------------------------------------------------------------------------------------




--------------------------------------- Iteration      1(   7)  ---------------------------------------


    POTLOK:  cpu time      0.0518: real time      0.0521
    SETDIJ:  cpu time      0.2693: real time      0.2702
    EDDIAG:  cpu time      3.6612: real time      3.6753
  RMM-DIIS:  cpu time     12.4805: real time     12.5218
    ORTHCH:  cpu time      0.5661: real time      0.5681
 BZINTS: Fermi energy:    4.535926;  160.000000 electrons
         Band energy:-0.231023E+04;  BLOECHL correction:   -0.019866
       DOS:  cpu time      0.1251: real time      0.1256
    CHARGE:  cpu time      0.6080: real time      0.6101
    MIXING:  cpu time      0.0014: real time      0.0014
    --------------------------------------------
      LOOP:  cpu time     17.7633: real time     17.8244

 eigenvalue-minimisations  : 32079
 total energy-change (2. order) : 0.2162732E+02  (-0.4061190E+01)
 number of electron     159.9999814 magnetization      -0.0000000
 augmentation part       58.1042687 magnetization      -0.0000000

 Broyden mixing:
  rms(total) = 0.95524E+00    rms(broyden)= 0.95470E+00
  rms(prec ) = 0.11345E+01
  weight for this iteration     100.00

 eigenvalues of (default mixing * dielectric matrix)
  average eigenvalue GAMMA=   0.4450
  0.6181  0.2720

 Free energy of the ion-electron system (eV)
  ---------------------------------------------------
  alpha Z        PSCENC =       872.68586007
  Ewald energy   TEWEN  =    -11807.15060667
  -Hartree energ DENC   =     -8519.90592186
  -exchange      EXHF   =         0.00000000
  -V(xc)+E(xc)   XCENC  =       559.94704925
  PAW double counting   =     15510.55068568   -16107.27064990
  entropy T*S    EENTRO =         0.00000000
  eigenvalues    EBANDS =     -2310.22889822
  atomic energy  EATOM  =     21710.84102437
  Solvation  Ediel_sol  =         0.00000000
  ---------------------------------------------------
  free energy    TOTEN  =       -90.53145729 eV

  energy without entropy =      -90.53145729  energy(sigma->0) =      -90.53145729


--------------------------------------------------------------------------------------------------------




--------------------------------------- Iteration      1(   8)  ---------------------------------------


    POTLOK:  cpu time      0.0417: real time      0.0885
    SETDIJ:  cpu time      0.2703: real time      0.2714
    EDDIAG:  cpu time      3.4806: real time      3.4934
  RMM-DIIS:  cpu time     17.1404: real time     17.1964
    ORTHCH:  cpu time      0.5535: real time      0.5553
 BZINTS: Fermi energy:    4.530062;  160.000000 electrons
         Band energy:-0.231462E+04;  BLOECHL correction:   -0.020448
       DOS:  cpu time      0.1299: real time      0.1303
    CHARGE:  cpu time      0.5814: real time      0.5836
    MIXING:  cpu time      0.0015: real time      0.0015
    --------------------------------------------
      LOOP:  cpu time     22.1992: real time     22.3204

 eigenvalue-minimisations  : 46103
 total energy-change (2. order) :-0.5493437E+00  (-0.3424429E+00)
 number of electron     159.9999815 magnetization      -0.0000000
 augmentation part       58.4746042 magnetization      -0.0000000

 Broyden mixing:
  rms(total) = 0.43331E+00    rms(broyden)= 0.43312E+00
  rms(prec ) = 0.57819E+00
  weight for this iteration     100.00

 eigenvalues of (default mixing * dielectric matrix)
  average eigenvalue GAMMA=   0.6988
  0.3170  0.8897  0.8897

 Free energy of the ion-electron system (eV)
  ---------------------------------------------------
  alpha Z        PSCENC =       872.68586007
  Ewald energy   TEWEN  =    -11807.15060667
  -Hartree energ DENC   =     -8509.46786944
  -exchange      EXHF   =         0.00000000
  -V(xc)+E(xc)   XCENC  =       560.30312343
  PAW double counting   =     15579.13174211   -16182.80736959
  entropy T*S    EENTRO =         0.00000000
  eigenvalues    EBANDS =     -2314.61670526
  atomic energy  EATOM  =     21710.84102437
  Solvation  Ediel_sol  =         0.00000000
  ---------------------------------------------------
  free energy    TOTEN  =       -91.08080098 eV

  energy without entropy =      -91.08080098  energy(sigma->0) =      -91.08080098


--------------------------------------------------------------------------------------------------------




--------------------------------------- Iteration      1(   9)  ---------------------------------------


    POTLOK:  cpu time      0.0395: real time      0.0398
    SETDIJ:  cpu time      0.2701: real time      0.2708
    EDDIAG:  cpu time      3.4501: real time      3.4629
  RMM-DIIS:  cpu time     18.5526: real time     18.6159
    ORTHCH:  cpu time      0.5609: real time      0.5628
 BZINTS: Fermi energy:    4.479839;  160.000000 electrons
         Band energy:-0.232251E+04;  BLOECHL correction:   -0.017337
       DOS:  cpu time      0.1301: real time      0.1305
    CHARGE:  cpu time      0.5734: real time      0.5756
    MIXING:  cpu time      0.0012: real time      0.0012
    --------------------------------------------
      LOOP:  cpu time     23.5778: real time     23.6596

 eigenvalue-minimisations  : 52045
 total energy-change (2. order) :-0.5303740E-01  (-0.8210589E-01)
 number of electron     159.9999816 magnetization       0.0000000
 augmentation part       58.7760011 magnetization       0.0000000

 Broyden mixing:
  rms(total) = 0.23226E+00    rms(broyden)= 0.23209E+00
  rms(prec ) = 0.29027E+00
  weight for this iteration     100.00

 eigenvalues of (default mixing * dielectric matrix)
  average eigenvalue GAMMA=   0.9166
  0.3140  1.3058  1.3058  0.7407

 Free energy of the ion-electron system (eV)
  ---------------------------------------------------
  alpha Z        PSCENC =       872.68586007
  Ewald energy   TEWEN  =    -11807.15060667
  -Hartree energ DENC   =     -8495.52723513
  -exchange      EXHF   =         0.00000000
  -V(xc)+E(xc)   XCENC  =       560.47225330
  PAW double counting   =     15671.19892472   -16281.14905196
  entropy T*S    EENTRO =         0.00000000
  eigenvalues    EBANDS =     -2322.50500708
  atomic energy  EATOM  =     21710.84102437
  Solvation  Ediel_sol  =         0.00000000
  ---------------------------------------------------
  free energy    TOTEN  =       -91.13383838 eV

  energy without entropy =      -91.13383838  energy(sigma->0) =      -91.13383838


--------------------------------------------------------------------------------------------------------




--------------------------------------- Iteration      1(  10)  ---------------------------------------


    POTLOK:  cpu time      0.0602: real time      0.0605
    SETDIJ:  cpu time      0.2675: real time      0.2685
    EDDIAG:  cpu time      3.4528: real time      3.4654
  RMM-DIIS:  cpu time     20.0007: real time     20.0660
    ORTHCH:  cpu time      0.5601: real time      0.5619
 BZINTS: Fermi energy:    4.441259;  160.000000 electrons
         Band energy:-0.232590E+04;  BLOECHL correction:   -0.015878
       DOS:  cpu time      0.1244: real time      0.1248
    CHARGE:  cpu time      0.6021: real time      0.6042
    MIXING:  cpu time      0.0014: real time      0.0014
    --------------------------------------------
      LOOP:  cpu time     25.0691: real time     25.1528

 eigenvalue-minimisations  : 51557
 total energy-change (2. order) :-0.6904571E-02  (-0.2243904E-01)
 number of electron     159.9999816 magnetization      -0.0000000
 augmentation part       58.9799473 magnetization      -0.0000000

 Broyden mixing:
  rms(total) = 0.10129E+00    rms(broyden)= 0.10115E+00
  rms(prec ) = 0.11415E+00
  weight for this iteration     100.00

 eigenvalues of (default mixing * dielectric matrix)
  average eigenvalue GAMMA=   1.0745
  2.3958  0.3139  0.9891  0.9891  0.6848

 Free energy of the ion-electron system (eV)
  ---------------------------------------------------
  alpha Z        PSCENC =       872.68586007
  Ewald energy   TEWEN  =    -11807.15060667
  -Hartree energ DENC   =     -8487.57344681
  -exchange      EXHF   =         0.00000000
  -V(xc)+E(xc)   XCENC  =       560.58552191
  PAW double counting   =     15753.86676227   -16368.49228492
  entropy T*S    EENTRO =         0.00000000
  eigenvalues    EBANDS =     -2325.90357317
  atomic energy  EATOM  =     21710.84102437
  Solvation  Ediel_sol  =         0.00000000
  ---------------------------------------------------
  free energy    TOTEN  =       -91.14074295 eV

  energy without entropy =      -91.14074295  energy(sigma->0) =      -91.14074295


--------------------------------------------------------------------------------------------------------




--------------------------------------- Iteration      1(  11)  ---------------------------------------


    POTLOK:  cpu time      0.0400: real time      0.0959
    SETDIJ:  cpu time      0.2733: real time      0.2741
    EDDIAG:  cpu time      3.6112: real time      3.6246
  RMM-DIIS:  cpu time     19.8457: real time     19.9109
    ORTHCH:  cpu time      0.5611: real time      0.5629
 BZINTS: Fermi energy:    4.446101;  160.000000 electrons
         Band energy:-0.232595E+04;  BLOECHL correction:   -0.015968
       DOS:  cpu time      0.1192: real time      0.1196
    CHARGE:  cpu time      0.5909: real time      0.5935
    MIXING:  cpu time      0.0015: real time      0.0015
    --------------------------------------------
      LOOP:  cpu time     25.0431: real time     25.1830

 eigenvalue-minimisations  : 50741
 total energy-change (2. order) :-0.5713767E-02  (-0.4448666E-02)
 number of electron     159.9999816 magnetization      -0.0000000
 augmentation part       58.9929235 magnetization      -0.0000000

 Broyden mixing:
  rms(total) = 0.37611E-01    rms(broyden)= 0.37580E-01
  rms(prec ) = 0.43525E-01
  weight for this iteration     100.00

 eigenvalues of (default mixing * dielectric matrix)
  average eigenvalue GAMMA=   1.1027
  2.0084  1.8322  0.3139  0.9059  0.9059  0.6499

 Free energy of the ion-electron system (eV)
  ---------------------------------------------------
  alpha Z        PSCENC =       872.68586007
  Ewald energy   TEWEN  =    -11807.15060667
  -Hartree energ DENC   =     -8485.67565047
  -exchange      EXHF   =         0.00000000
  -V(xc)+E(xc)   XCENC  =       560.61950333
  PAW double counting   =     15796.49633722   -16413.01772472
  entropy T*S    EENTRO =         0.00000000
  eigenvalues    EBANDS =     -2325.94519984
  atomic energy  EATOM  =     21710.84102437
  Solvation  Ediel_sol  =         0.00000000
  ---------------------------------------------------
  free energy    TOTEN  =       -91.14645672 eV

  energy without entropy =      -91.14645672  energy(sigma->0) =      -91.14645672


--------------------------------------------------------------------------------------------------------




--------------------------------------- Iteration      1(  12)  ---------------------------------------


    POTLOK:  cpu time      0.0402: real time      0.0405
    SETDIJ:  cpu time      0.2740: real time      0.2747
    EDDIAG:  cpu time      3.6282: real time      3.6404
  RMM-DIIS:  cpu time     18.6692: real time     18.7305
    ORTHCH:  cpu time      0.5603: real time      0.5622
 BZINTS: Fermi energy:    4.456596;  160.000000 electrons
         Band energy:-0.232515E+04;  BLOECHL correction:   -0.016060
       DOS:  cpu time      0.1272: real time      0.1276
    CHARGE:  cpu time      0.6189: real time      0.6215
    MIXING:  cpu time      0.0013: real time      0.0013
    --------------------------------------------
      LOOP:  cpu time     23.9193: real time     23.9986

 eigenvalue-minimisations  : 47631
 total energy-change (2. order) :-0.4153170E-02  (-0.9440275E-03)
 number of electron     159.9999816 magnetization      -0.0000000
 augmentation part       58.9753460 magnetization      -0.0000000

 Broyden mixing:
  rms(total) = 0.17233E-01    rms(broyden)= 0.17218E-01
  rms(prec ) = 0.21121E-01
  weight for this iteration     100.00

 eigenvalues of (default mixing * dielectric matrix)
  average eigenvalue GAMMA=   1.0968
  2.4745  1.4429  0.3139  1.0201  1.0201  0.7660  0.6405

 Free energy of the ion-electron system (eV)
  ---------------------------------------------------
  alpha Z        PSCENC =       872.68586007
  Ewald energy   TEWEN  =    -11807.15060667
  -Hartree energ DENC   =     -8486.66092501
  -exchange      EXHF   =         0.00000000
  -V(xc)+E(xc)   XCENC  =       560.62645554
  PAW double counting   =     15798.04692220   -16414.38769831
  entropy T*S    EENTRO =         0.00000000
  eigenvalues    EBANDS =     -2325.15164207
  atomic energy  EATOM  =     21710.84102437
  Solvation  Ediel_sol  =         0.00000000
  ---------------------------------------------------
  free energy    TOTEN  =       -91.15060989 eV

  energy without entropy =      -91.15060989  energy(sigma->0) =      -91.15060989


--------------------------------------------------------------------------------------------------------




--------------------------------------- Iteration      1(  13)  ---------------------------------------


    POTLOK:  cpu time      0.0658: real time      0.0662
    SETDIJ:  cpu time      0.2719: real time      0.2727
    EDDIAG:  cpu time      3.5900: real time      3.6035
  RMM-DIIS:  cpu time     14.8970: real time     14.9453
    ORTHCH:  cpu time      0.5572: real time      0.5590
 BZINTS: Fermi energy:    4.459661;  160.000000 electrons
         Band energy:-0.232488E+04;  BLOECHL correction:   -0.016081
       DOS:  cpu time      0.1243: real time      0.1247
    CHARGE:  cpu time      0.5886: real time      0.5912
    MIXING:  cpu time      0.0013: real time      0.0013
    --------------------------------------------
      LOOP:  cpu time     20.0963: real time     20.1639

 eigenvalue-minimisations  : 36119
 total energy-change (2. order) : 0.4413599E-04  (-0.2196471E-03)
 number of electron     159.9999816 magnetization      -0.0000000
 augmentation part       58.9686878 magnetization      -0.0000000

 Broyden mixing:
  rms(total) = 0.99300E-02    rms(broyden)= 0.99225E-02
  rms(prec ) = 0.12035E-01
  weight for this iteration     100.00

 eigenvalues of (default mixing * dielectric matrix)
  average eigenvalue GAMMA=   1.1180
  2.5729  1.5563  0.3139  1.1312  1.1312  0.8015  0.8015  0.6352

 Free energy of the ion-electron system (eV)
  ---------------------------------------------------
  alpha Z        PSCENC =       872.68586007
  Ewald energy   TEWEN  =    -11807.15060667
  -Hartree energ DENC   =     -8487.09107826
  -exchange      EXHF   =         0.00000000
  -V(xc)+E(xc)   XCENC  =       560.64893209
  PAW double counting   =     15798.26066625   -16414.46519999
  entropy T*S    EENTRO =         0.00000000
  eigenvalues    EBANDS =     -2324.88016361
  atomic energy  EATOM  =     21710.84102437
  Solvation  Ediel_sol  =         0.00000000
  ---------------------------------------------------
  free energy    TOTEN  =       -91.15056575 eV

  energy without entropy =      -91.15056575  energy(sigma->0) =      -91.15056575


--------------------------------------------------------------------------------------------------------




--------------------------------------- Iteration      1(  14)  ---------------------------------------


    POTLOK:  cpu time      0.0397: real time      0.0824
    SETDIJ:  cpu time      0.2695: real time      0.2702
    EDDIAG:  cpu time      3.6003: real time      3.6124
  RMM-DIIS:  cpu time     11.4444: real time     11.4817
    ORTHCH:  cpu time      0.5431: real time      0.5449
 BZINTS: Fermi energy:    4.459671;  160.000000 electrons
         Band energy:-0.232477E+04;  BLOECHL correction:   -0.016056
       DOS:  cpu time      0.1298: real time      0.1302
    --------------------------------------------
      LOOP:  cpu time     16.0267: real time     16.1219

 eigenvalue-minimisations  : 27452
 total energy-change (2. order) : 0.7872217E-04  (-0.6289304E-04)
 number of electron     159.9999816 magnetization       0.0000000
 augmentation part       58.9686878 magnetization       0.0000000

 Free energy of the ion-electron system (eV)
  ---------------------------------------------------
  alpha Z        PSCENC =       872.68586007
  Ewald energy   TEWEN  =    -11807.15060667
  -Hartree energ DENC   =     -8487.31339383
  -exchange      EXHF   =         0.00000000
  -V(xc)+E(xc)   XCENC  =       560.66361279
  PAW double counting   =     15799.41883001   -16415.52569405
  entropy T*S    EENTRO =         0.00000000
  eigenvalues    EBANDS =     -2324.77011971
  atomic energy  EATOM  =     21710.84102437
  Solvation  Ediel_sol  =         0.00000000
  ---------------------------------------------------
  free energy    TOTEN  =       -91.15048703 eV

  energy without entropy =      -91.15048703  energy(sigma->0) =      -91.15048703


--------------------------------------------------------------------------------------------------------




 average (electrostatic) potential at core
  the test charge radii are     0.9500  1.0808
  (the norm of the test charge is              1.0000)
       1 -46.6641       2 -46.6641       3 -46.6641       4 -46.6641       5 -46.6641
       6 -46.6641       7 -46.6641       8 -46.6641       9 -54.4455      10 -54.4455
      11 -54.4455      12 -54.4455      13 -54.4455      14 -54.4455      15 -54.4455
      16 -54.4455
 
 
 
 E-fermi :   4.4597     XC(G=0): -10.8191     alpha+bet : -9.9991

 Fermi energy:         4.4596707289

 spin component 1

 k-point     1 :       0.0000    0.0000    0.0000
  band No.  band energies     occupation 
      1     -50.2272      1.00000
      2     -50.2136      1.00000
      3     -50.2136      1.00000
      4     -50.2031      1.00000
      5     -50.1374      1.00000
      6     -50.0598      1.00000
      7     -50.0487      1.00000
      8     -50.0487      1.00000
      9     -50.0354      1.00000
     10     -49.9519      1.00000
     11     -49.9519      1.00000
     12     -49.7630      1.00000
     13     -47.5375      1.00000
     14     -47.5340      1.00000
     15     -47.5340      1.00000
     16     -47.5323      1.00000
     17     -47.5177      1.00000
     18     -47.3134      1.00000
     19     -47.3134      1.00000
     20     -47.1838      1.00000
     21     -47.1831      1.00000
     22     -47.1831      1.00000
     23     -47.1789      1.00000
     24     -47.1050      1.00000
     25     -10.3028      1.00000
     26      -8.9012      1.00000
     27      -8.9012      1.00000
     28      -8.8868      1.00000
     29      -8.8868      1.00000
     30      -8.6184      1.00000
     31      -8.2885      1.00000
     32      -8.0680      1.00000
     33      -1.9525      1.00000
     34      -1.6967      1.00000
[...]
  0.000  -0.000  -0.000  -0.000   0.000   0.000  -0.039  -0.000
 -0.000  -0.000  -0.000   0.000   0.000   0.000  -0.000  -0.103
  0.000  -0.000  -0.000  -0.000   0.000   0.000  -0.173  -0.000
  0.000  -0.000  -0.000  -0.000   0.000   0.000  -0.000  -0.218
  0.000   0.000  -0.000  -0.000  -0.000   0.000  -0.000   0.011
 -0.000   0.000   0.000   0.000  -0.000  -0.000   0.009   0.000
  0.000   0.000   0.000  -0.000  -0.000  -0.000   0.000   0.025
 -0.000   0.000   0.000   0.000  -0.000  -0.000   0.000  -0.008
  0.000  -0.000  -0.000  -0.000   0.000   0.000  -0.000   0.001
 pseudopotential strength for first ion, spin component:           2
-52.544   0.104  -0.000  26.341  -0.075   0.000  -0.000  -0.000
  0.104 -52.573   0.000  -0.075  26.362  -0.000   0.000   0.000
 -0.000   0.000 -52.520   0.000  -0.000  26.316   0.000   0.000
 26.341  -0.075   0.000  -8.709   0.055  -0.000   0.000   0.000
 -0.075  26.362  -0.000   0.055  -8.724   0.000  -0.000  -0.000
  0.000  -0.000  26.316  -0.000   0.000  -8.694  -0.000  -0.000
 -0.000   0.000   0.000   0.000  -0.000  -0.000  -6.371   0.000
 -0.000   0.000   0.000   0.000  -0.000  -0.000   0.000  -6.732
 -0.000  -0.000   0.000   0.000   0.000  -0.000   0.000   0.114
  0.000  -0.000  -0.000  -0.000   0.000   0.000   0.115  -0.000
 -0.000  -0.000  -0.000   0.000   0.000   0.000  -0.000   0.025
  0.000  -0.000  -0.000  -0.000   0.000   0.000  -0.657  -0.000
  0.000  -0.000  -0.000  -0.000   0.000   0.000  -0.000  -0.573
  0.000   0.000  -0.000  -0.000  -0.000   0.000  -0.000  -0.025
 -0.000   0.000   0.000   0.000  -0.000  -0.000  -0.025   0.000
  0.000   0.000   0.000  -0.000  -0.000  -0.000   0.000  -0.007
 -0.000   0.000   0.000   0.000  -0.000  -0.000   0.000  -0.013
  0.000  -0.000  -0.000  -0.000   0.000   0.000  -0.000   0.003
 total augmentation occupancy for first ion, spin component:           1
  2.011  -0.018  -0.000   0.058  -0.044   0.000   0.000  -0.000   0.000  -0.000  -0.000  -0.000   0.000   0.000   0.000  -0.000
 -0.018   2.014  -0.000  -0.044   0.067  -0.000  -0.000   0.000   0.000   0.000  -0.000  -0.000   0.000  -0.000   0.000   0.000
  0.000   0.000   2.011   0.000  -0.000   0.055  -0.000  -0.000   0.000   0.000  -0.000   0.000  -0.000  -0.000  -0.000   0.000
  0.058  -0.044   0.000   0.198  -0.106   0.000  -0.000   0.000   0.000   0.000  -0.000   0.000   0.000   0.000   0.000  -0.000
 -0.044   0.067   0.000  -0.106   0.221   0.000   0.000   0.000  -0.000   0.000   0.000   0.000  -0.000  -0.000   0.000   0.000
 -0.000   0.000   0.055  -0.000   0.000   0.182   0.000   0.000   0.000  -0.000  -0.000   0.000   0.000  -0.000  -0.000  -0.000
  0.000  -0.000  -0.000   0.000   0.000  -0.000   1.259   0.000  -0.000  -0.101  -0.000  -0.059  -0.000  -0.000  -0.057  -0.000
  0.000  -0.000  -0.000  -0.000  -0.000   0.000   0.000   1.463  -0.025   0.000  -0.098  -0.000   0.097  -0.149   0.000   0.092
  0.000   0.000   0.000   0.000  -0.000   0.000  -0.000  -0.025   1.301  -0.000  -0.140  -0.000  -0.150   0.085   0.000  -0.081
 -0.000   0.000  -0.000   0.000   0.000   0.000  -0.101   0.000   0.000   1.264   0.000  -0.059   0.000   0.000  -0.031  -0.000
  0.000   0.000  -0.000   0.000  -0.000  -0.000  -0.000  -0.098  -0.140   0.000   1.513  -0.000   0.096  -0.079  -0.000   0.172
 -0.000  -0.000  -0.000   0.000   0.000   0.000  -0.059  -0.000   0.000  -0.059   0.000   0.171   0.000  -0.000  -0.026  -0.000
  0.000   0.000   0.000  -0.000   0.000   0.000  -0.000   0.097  -0.150   0.000   0.096   0.000   0.250  -0.073  -0.000   0.090
 -0.000   0.000  -0.000   0.000   0.000  -0.000   0.000  -0.149   0.085  -0.000  -0.079   0.000  -0.073   0.174   0.000  -0.016
  0.000   0.000  -0.000   0.000   0.000  -0.000  -0.057  -0.000   0.000  -0.031  -0.000  -0.026  -0.000  -0.000   0.164  -0.000
  0.000   0.000   0.000   0.000   0.000  -0.000   0.000   0.092  -0.081  -0.000   0.172  -0.000   0.090  -0.016   0.000   0.142
  0.000   0.000  -0.000   0.000  -0.000   0.000   0.000  -0.006  -0.047   0.000   0.089   0.000  -0.316   0.028  -0.000  -0.004
  0.000   0.000   0.000  -0.000   0.000   0.000   0.000   0.002   0.024   0.000  -0.015   0.000   0.021  -0.006  -0.000   0.003
 total augmentation occupancy for first ion, spin component:           2
 -0.005   0.000   0.000  -0.002  -0.000   0.000  -0.000   0.000   0.000   0.000   0.000   0.000   0.000  -0.000   0.000   0.000
  0.000  -0.007   0.000  -0.000  -0.007   0.000   0.000  -0.000   0.000  -0.000  -0.000   0.000   0.000   0.000   0.000  -0.000
 -0.000   0.000  -0.007   0.000   0.000  -0.005   0.000  -0.000   0.000   0.000   0.000   0.000   0.000   0.000  -0.000   0.000
 -0.002  -0.000  -0.000   0.014  -0.002   0.000   0.000  -0.000  -0.000  -0.000   0.000   0.000   0.000  -0.000   0.000   0.000
 -0.000  -0.007   0.000  -0.002   0.002   0.000  -0.000  -0.000  -0.000   0.000  -0.000  -0.000   0.000   0.000   0.000   0.000
  0.000   0.000  -0.005  -0.000   0.000   0.012  -0.000   0.000  -0.000  -0.000  -0.000  -0.000   0.000  -0.000   0.000  -0.000
 -0.000   0.000   0.000   0.000  -0.000   0.000   0.690  -0.000  -0.000   0.120  -0.000  -0.270   0.000   0.000   0.004   0.000
  0.000  -0.000  -0.000   0.000   0.000   0.000  -0.000   0.377   0.123   0.000   0.051  -0.000  -0.192  -0.011  -0.000  -0.031
  0.000  -0.000   0.000   0.000   0.000  -0.000  -0.000   0.123   0.527   0.000   0.178  -0.000  -0.009  -0.208   0.000  -0.023
  0.000  -0.000  -0.000  -0.000   0.000   0.000   0.120  -0.000   0.000   0.659   0.000   0.006  -0.000   0.000  -0.264   0.000
 -0.000  -0.000   0.000  -0.000   0.000  -0.000  -0.000   0.051   0.178  -0.000   0.234  -0.000  -0.017  -0.018  -0.000  -0.146
  0.000   0.000   0.000   0.000  -0.000  -0.000  -0.270   0.000   0.000   0.006  -0.000   0.054  -0.000  -0.000   0.006  -0.000
 -0.000  -0.000   0.000   0.000   0.000   0.000   0.000  -0.192  -0.009   0.000  -0.017  -0.000   0.007   0.025  -0.000  -0.002
  0.000   0.000   0.000  -0.000   0.000  -0.000  -0.000  -0.011  -0.208  -0.000  -0.018   0.000   0.025   0.006   0.000   0.007
  0.000   0.000  -0.000   0.000   0.000  -0.000   0.004  -0.000  -0.000  -0.264  -0.000   0.006  -0.000   0.000   0.037  -0.000
  0.000   0.000   0.000   0.000  -0.000  -0.000   0.000  -0.031  -0.023   0.000  -0.146   0.000  -0.002   0.007  -0.000  -0.018
  0.000  -0.000   0.000  -0.000   0.000   0.000  -0.000   0.117   0.030   0.000  -0.047   0.000  -0.031   0.003   0.000  -0.023
  0.000   0.000  -0.000  -0.000   0.000   0.000   0.000   0.017   0.018   0.000  -0.017  -0.000  -0.003  -0.003   0.000  -0.000


------------------------ aborting loop because EDIFF is reached ----------------------------------------





 total charge

# of ion       s       p       d       tot
------------------------------------------
    1        0.347   6.304   6.095  12.746
    2        0.347   6.304   6.095  12.746
    3        0.347   6.304   6.095  12.746
    4        0.347   6.304   6.095  12.746
    5        0.347   6.304   6.095  12.746
    6        0.347   6.304   6.095  12.746
    7        0.347   6.304   6.095  12.746
    8        0.347   6.304   6.095  12.746
    9        1.494   2.255   0.061   3.810
   10        1.494   2.255   0.061   3.810
   11        1.494   2.255   0.061   3.810
   12        1.494   2.255   0.061   3.810
   13        1.494   2.255   0.061   3.810
   14        1.494   2.255   0.061   3.810
   15        1.494   2.255   0.061   3.810
   16        1.494   2.255   0.061   3.810
--------------------------------------------------
tot         14.725  68.471  49.253 132.449



 magnetization (x)

# of ion       s       p       d       tot
------------------------------------------
    1        0.026   0.014   2.426   2.466
    2       -0.026  -0.014  -2.426  -2.466
    3       -0.026  -0.014  -2.426  -2.466
    4        0.026   0.014   2.426   2.466
    5        0.026   0.014   2.426   2.466
    6       -0.026  -0.014  -2.426  -2.466
    7       -0.026  -0.014  -2.426  -2.466
    8        0.026   0.014   2.426   2.466
    9        0.000   0.000   0.000   0.000
   10        0.000   0.000   0.000   0.000
   11        0.000   0.000   0.000   0.000
   12        0.000   0.000   0.000   0.000
   13        0.000   0.000   0.000   0.000
   14        0.000   0.000   0.000   0.000
   15        0.000   0.000   0.000   0.000
   16        0.000   0.000   0.000   0.000
--------------------------------------------------
tot         -0.000   0.000   0.000  -0.000
 
    CHARGE:  cpu time      0.5772: real time      0.5798
    FORLOC:  cpu time      0.0026: real time      0.0026
    FORNL :  cpu time      5.1913: real time      5.2088
    STRESS:  cpu time     15.4706: real time     15.5225
    FORCOR:  cpu time      0.0392: real time      0.0394
    FORHAR:  cpu time      0.0054: real time      0.0054
    MIXING:  cpu time      0.0013: real time      0.0013
    OFIELD:  cpu time      0.0000: real time      0.0000
    FORVDW:  cpu time      0.8039: real time      0.8061

  FORCE on cell =-STRESS in cart. coord.  units (eV):
  Direction    XX          YY          ZZ          XY          YZ          ZX
  --------------------------------------------------------------------------------------
  Alpha Z   872.68586   872.68586   872.68586
  Ewald   -1389.41514 -2169.68596 -8248.07384     0.00000    -0.00000     0.00000
  Hartree  5153.85046  4459.19045 -1125.37650     0.00000    -0.00000    -0.00000
  E(xc)    -897.60053  -899.92334  -898.97463    -0.00000    -0.00000     0.00000
  Local   -5688.81532 -4225.80600  7469.61456    -0.00000    -0.00000     0.00000
  n-local  -278.06259  -250.58159  -242.63821    -0.68085    -0.40435    -0.80115
  augment   529.26377   515.69440   511.70037     0.00000     0.00000    -0.00000
  Kinetic  1706.41959  1706.45933  1669.16263     3.76124    -0.10551     0.49021
  Fock        0.00000     0.00000     0.00000     0.00000     0.00000     0.00000
  vdW        -6.62928    -6.66677    -6.94151     0.00000    -0.00000    -0.00000
  -------------------------------------------------------------------------------------
  Total       1.69684     1.36638     1.15874     0.00000     0.00000     0.00000
  in kB       9.34242     7.52296     6.37975     0.00000     0.00000     0.00000
  external pressure =        7.75 kB  Pullay stress =        0.00 kB


 VOLUME and BASIS-vectors are now :
 -----------------------------------------------------------------------------
  energy-cutoff  :      550.00
  volume of cell :      291.00
      direct lattice vectors                 reciprocal lattice vectors
     4.764939639 -5.559217425  0.000000000     0.104933124 -0.089940717  0.000000000
     4.764939639  5.559217425  0.000000000     0.104933124  0.089940717  0.000000000
     0.000000000  0.000000000  5.492776524     0.000000000  0.000000000  0.182057288

  length of vectors
     7.321854147  7.321854147  5.492776524     0.138203810  0.138203810  0.182057288


 FORCES acting on ions
    electron-ion (+dipol)            ewald-force                    non-local-force                 convergence-correction
 -----------------------------------------------------------------------------------------------
   -.271E-12 -.147E-13 0.113E-12   -.568E-13 0.746E-13 0.355E-14   0.507E-21 -.463E-21 0.101E-21   -.791E-13 0.128E-12 0.314E-12
   0.102E-11 0.144E-11 0.126E-12   -.570E-13 0.746E-13 0.311E-13   0.394E-21 -.891E-22 -.240E-21   -.424E-12 0.121E-13 0.293E-12
   0.938E-12 0.614E-12 0.349E-10   -.469E-13 0.568E-13 0.284E-13   -.134E-20 0.498E-21 0.114E-22   0.536E-14 0.302E-13 -.547E-13
   0.710E-11 0.959E-11 0.157E-10   -.568E-13 0.853E-13 0.320E-13   0.514E-21 -.523E-22 -.220E-21   -.120E-12 -.227E-12 0.225E-12
   0.502E-11 0.418E-11 0.717E-11   0.154E-12 -.462E-13 0.266E-13   -.589E-21 -.500E-22 -.224E-21   0.342E-12 0.416E-12 0.151E-13
   -.315E-12 -.335E-11 0.771E-11   0.156E-12 -.320E-13 0.426E-13   0.113E-20 -.544E-21 -.942E-24   -.595E-12 -.392E-12 -.927E-13
   -.208E-10 -.253E-10 -.460E-10   0.156E-12 -.604E-13 0.142E-13   -.704E-23 0.295E-21 -.219E-21   0.561E-12 0.591E-12 0.619E-12
   0.140E-11 0.451E-11 -.443E-10   0.162E-12 -.568E-13 0.142E-13   -.188E-21 0.311E-21 -.310E-21   -.561E-12 -.425E-12 0.659E-12
   -.178E-07 0.704E-12 0.307E+03   -.221E-13 -.142E-13 -.308E+03   -.182E-17 -.369E-17 0.103E+01   0.137E-12 0.117E-12 -.705E-02
   -.178E-07 -.125E-11 0.307E+03   -.213E-13 -.708E-14 -.308E+03   0.262E-17 0.401E-17 0.103E+01   -.119E-12 -.121E-12 -.705E-02
   -.178E-07 0.465E-11 0.307E+03   -.213E-13 -.291E-13 -.308E+03   -.762E-18 -.174E-17 0.103E+01   0.158E-12 0.995E-13 -.705E-02
   -.178E-07 -.124E-11 0.307E+03   -.216E-13 -.284E-13 -.308E+03   -.237E-17 -.493E-17 0.103E+01   -.142E-12 -.132E-12 -.705E-02
   0.178E-07 0.109E-11 -.307E+03   -.742E-13 -.739E-14 0.308E+03   0.372E-17 0.229E-17 -.103E+01   0.313E-13 0.925E-13 0.705E-02
   0.178E-07 0.128E-11 -.307E+03   -.779E-13 0.355E-14 0.308E+03   -.542E-18 0.614E-17 -.103E+01   -.133E-12 -.122E-13 0.705E-02
   0.178E-07 0.888E-12 -.307E+03   -.787E-13 -.284E-14 0.308E+03   -.115E-17 -.165E-17 -.103E+01   0.160E-12 0.371E-13 0.705E-02
   0.178E-07 0.482E-12 -.307E+03   -.885E-13 0.749E-14 0.308E+03   0.332E-17 -.697E-18 -.103E+01   -.508E-13 -.163E-12 0.705E-02
 -----------------------------------------------------------------------------------------------
   -.112E-10 -.174E-11 -.435E-10   0.632E-14 0.179E-13 0.171E-12   0.302E-17 -.274E-18 0.000E+00   -.829E-12 0.521E-13 0.164E-11
 
 
 POSITION                                       TOTAL-FORCE (eV/Angst)
 -----------------------------------------------------------------------------------
      0.00000      0.00000      0.00000         0.000000     -0.000000      0.000000
      2.38247      2.77961      0.00000         0.000000     -0.000000      0.000000
      2.38247     -2.77961      0.00000         0.000000     -0.000000      0.000000
      4.76494      0.00000      0.00000         0.000000     -0.000000      0.000000
      2.38247      0.00000      0.00000         0.000000     -0.000000      0.000000
      4.76494      2.77961      0.00000         0.000000     -0.000000      0.000000
      4.76494     -2.77961      0.00000         0.000000     -0.000000      0.000000
      7.14741      0.00000      0.00000         0.000000     -0.000000      0.000000
      2.38247     -1.38980      3.67254        -0.000000      0.000000      0.000944
      4.76494      1.38980      3.67254         0.000000     -0.000000      0.000944
      4.76494     -4.16941      3.67254        -0.000000     -0.000000      0.000944
      7.14741     -1.38980      3.67254         0.000000      0.000000      0.000944
      2.38247      1.38980      1.82024        -0.000000      0.000000     -0.000944
      4.76494      4.16941      1.82024        -0.000000      0.000000     -0.000944
      4.76494     -1.38980      1.82024         0.000000     -0.000000     -0.000944
      7.14741      1.38980      1.82024         0.000000     -0.000000     -0.000944
 -----------------------------------------------------------------------------------
    total drift:                               -0.000000     -0.000000     -0.000000


--------------------------------------------------------------------------------------------------------



  FREE ENERGIE OF THE ION-ELECTRON SYSTEM (eV)
  ---------------------------------------------------
  free  energy   TOTEN  =       -98.38057006 eV

  energy  without entropy=      -98.38057006  energy(sigma->0) =      -98.38057006
 


--------------------------------------------------------------------------------------------------------


    POTLOK:  cpu time      0.3425: real time      0.3514


--------------------------------------------------------------------------------------------------------


     LOOP+:  cpu time    354.3239: real time    356.0590
 -----------------------------------------------------------------------------
|                                                                             |
|           W    W    AA    RRRRR   N    N  II  N    N   GGGG   !!!           |
|           W    W   A  A   R    R  NN   N  II  NN   N  G    G  !!!           |
|           W    W  A    A  R    R  N N  N  II  N N  N  G       !!!           |
|           W WW W  AAAAAA  RRRRR   N  N N  II  N  N N  G  GGG   !            |
|           WW  WW  A    A  R   R   N   NN  II  N   NN  G    G                |
|           W    W  A    A  R    R  N    N  II  N    N   GGGG   !!!           |
|                                                                             |
|     Tetrahedron method does not include variations of the Fermi             |
|     occupations, so forces and stress will be inaccurate. We suggest        |
|     using a different smearing scheme ISMEAR = 1 or 2 for metals in         |
|     relaxations.                                                            |
|                                                                             |
 -----------------------------------------------------------------------------

    4ORBIT:  cpu time      0.0000: real time      0.0000



 total charge

# of ion       s       p       d       tot
------------------------------------------
    1        0.347   6.304   6.095  12.746
    2        0.347   6.304   6.095  12.746
    3        0.347   6.304   6.095  12.746
    4        0.347   6.304   6.095  12.746
    5        0.347   6.304   6.095  12.746
    6        0.347   6.304   6.095  12.746
    7        0.347   6.304   6.095  12.746
    8        0.347   6.304   6.095  12.746
    9        1.494   2.255   0.061   3.810
   10        1.494   2.255   0.061   3.810
   11        1.494   2.255   0.061   3.810
   12        1.494   2.255   0.061   3.810
   13        1.494   2.255   0.061   3.810
   14        1.494   2.255   0.061   3.810
   15        1.494   2.255   0.061   3.810
   16        1.494   2.255   0.061   3.810
--------------------------------------------------
tot         14.725  68.471  49.253 132.449



 magnetization (x)

# of ion       s       p       d       tot
------------------------------------------
    1        0.026   0.014   2.426   2.466
    2       -0.026  -0.014  -2.426  -2.466
    3       -0.026  -0.014  -2.426  -2.466
    4        0.026   0.014   2.426   2.466
    5        0.026   0.014   2.426   2.466
    6       -0.026  -0.014  -2.426  -2.466
    7       -0.026  -0.014  -2.426  -2.466
    8        0.026   0.014   2.426   2.466
    9        0.000   0.000   0.000   0.000
   10        0.000   0.000   0.000   0.000
   11        0.000   0.000   0.000   0.000
   12        0.000   0.000   0.000   0.000
   13        0.000   0.000   0.000   0.000
   14        0.000   0.000   0.000   0.000
   15        0.000   0.000   0.000   0.000
   16        0.000   0.000   0.000   0.000
--------------------------------------------------
tot         -0.000   0.000   0.000  -0.000
 
 BZINTS: Fermi energy:    4.459671;  160.000000 electrons
         Band energy:-0.232477E+04;  BLOECHL correction:   -0.016056

 total amount of memory used by VASP MPI-rank0   172444. kBytes
=======================================================================

   base      :      30000. kBytes
   nonlr-proj:      11354. kBytes
   fftplans  :       2458. kBytes
   grid      :      15239. kBytes
   one-center:        497. kBytes
   wavefun   :     112896. kBytes
 
  
  
 General timing and accounting informations for this job:
 ========================================================
  
                  Total CPU time used (sec):      378.180
                            User time (sec):      376.662
                          System time (sec):        1.518
                         Elapsed time (sec):      381.263
  
                   Maximum memory used (kb):      452784.
                   Average memory used (kb):          N/A
  
                          Minor page faults:       164852
                          Major page faults:            0
                 Voluntary context switches:        36137
