 vasp.6.4.1 05Apr23 (build Jun 01 2023 13:46:15) complex                        
  
 executed on             LinuxIFC date 2023.12.17  00:06:18
 running   20 mpi-ranks, on    5 nodes
 distrk:  each k-point on   20 cores,    1 groups
 distr:  one band on NCORE=   1 cores,   20 groups


--------------------------------------------------------------------------------------------------------


 INCAR:
   ALGO = Fast
   EDIFF = 0.0002
   ENCUT = 550
   IBRION = 2
   ISIF = 4
   ISMEAR = 0
   ISPIN = 2
   IVDW = 13
   LASPH = True
   LMAXMIX = 4
   LORBIT = 11
   LREAL = Auto
   LWAVE = False
   MAGMOM = 1*2.509 2*-2.509 2*2.509 2*-2.509 1*2.509 8*0.0
   NELM = 100
   NSW = 99
   PREC = Accurate
   SIGMA = 0.05

 POTCAR:   PAW_PBE Fe_pv 06Sep2000                
 POTCAR:   PAW_PBE Se 06Sep2000                   
 -----------------------------------------------------------------------------
|                                                                             |
|           W    W    AA    RRRRR   N    N  II  N    N   GGGG   !!!           |
|           W    W   A  A   R    R  NN   N  II  NN   N  G    G  !!!           |
|           W    W  A    A  R    R  N N  N  II  N N  N  G       !!!           |
|           W WW W  AAAAAA  RRRRR   N  N N  II  N  N N  G  GGG   !            |
|           WW  WW  A    A  R   R   N   NN  II  N   NN  G    G                |
|           W    W  A    A  R    R  N    N  II  N    N   GGGG   !!!           |
|                                                                             |
|     For optimal performance we recommend to set                             |
|       NCORE = 2 up to number-of-cores-per-socket                            |
|     NCORE specifies how many cores store one orbital (NPAR=cpu/NCORE).      |
|     This setting can greatly improve the performance of VASP for DFT.       |
|     The default, NCORE=1 might be grossly inefficient on modern             |
|     multi-core architectures or massively parallel machines. Do your        |
|     own testing! More info at https://www.vasp.at/wiki/index.php/NCORE      |
|     Unfortunately you need to use the default for GW and RPA                |
|     calculations (for HF NCORE is supported but not extensively tested      |
|     yet).                                                                   |
|                                                                             |
 -----------------------------------------------------------------------------

 POTCAR:   PAW_PBE Fe_pv 06Sep2000                
   VRHFIN =Fe:  3pd7s1                                                                              
   LEXCH  = PE                                                                                      
   EATOM  =  2456.8974 eV,  180.5769 Ry                                                             
                                                                                                    
   TITEL  = PAW_PBE Fe_pv 06Sep2000                                                                 
   LULTRA =        F    use ultrasoft PP ?                                                          
   IUNSCR =        1    unscreen: 0-lin 1-nonlin 2-no                                               
   RPACOR =    1.750    partial core radius                                                         
   POMASS =   55.847; ZVAL   =   14.000    mass and valenz                                          
   RCORE  =    2.200    outmost cutoff radius                                                       
   RWIGS  =    2.200; RWIGS  =    1.164    wigner-seitz radius (au A)                               
   ENMAX  =  293.238; ENMIN  =  219.929 eV                                                          
   RCLOC  =    1.701    cutoff for local pot                                                        
   LCOR   =        T    correct aug charges                                                         
   LPAW   =        T    paw PP                                                                      
   EAUG   =  578.342                                                                                
   DEXC   =    -.002                                                                                
   RMAX   =    2.693    core radius for proj-oper                                                   
   RAUG   =    1.300    factor for augmentation sphere                                              
   RDEP   =    2.296    radius for radial grids                                                     
   QCUT   =   -4.642; QGAM   =    9.285    optimization parameters                                  
                                                                                                    
   Description                                                                                      
     l     E      TYP  RCUT    TYP  RCUT                                                            
     1   .000     23  2.000                                                                         
     1  -.400     23  2.000                                                                         
     2   .000     23  2.200                                                                         
     2   .000     23  2.200                                                                         
     0   .000     23  2.000                                                                         
     0  2.000     23  2.000                                                                         
     3   .000      7   .000                                                                         
  local pseudopotential read in
  partial core-charges read in
  atomic valenz-charges read in
  non local Contribution for L=           1  read in
    real space projection operators read in
  non local Contribution for L=           1  read in
    real space projection operators read in
  non local Contribution for L=           2  read in
    real space projection operators read in
  non local Contribution for L=           2  read in
    real space projection operators read in
  non local Contribution for L=           0  read in
    real space projection operators read in
  non local Contribution for L=           0  read in
    real space projection operators read in
    PAW grid and wavefunctions read in
 
   number of l-projection  operators is LMAX  =           6
   number of lm-projection operators is LMMAX =          18
 
 POTCAR:   PAW_PBE Se 06Sep2000                   
   VRHFIN =Se: s2p4                                                                                 
   LEXCH  = PE                                                                                      
   EATOM  =   256.9644 eV,   18.8864 Ry                                                             
                                                                                                    
   TITEL  = PAW_PBE Se 06Sep2000                                                                    
   LULTRA =        F    use ultrasoft PP ?                                                          
   IUNSCR =        1    unscreen: 0-lin 1-nonlin 2-no                                               
   RPACOR =    1.900    partial core radius                                                         
   POMASS =   78.960; ZVAL   =    6.000    mass and valenz                                          
   RCORE  =    2.100    outmost cutoff radius                                                       
   RWIGS  =    2.200; RWIGS  =    1.164    wigner-seitz radius (au A)                               
   ENMAX  =  211.534; ENMIN  =  158.651 eV                                                          
   ICORE  =        3    local potential                                                             
   LCOR   =        T    correct aug charges                                                         
   LPAW   =        T    paw PP                                                                      
   EAUG   =  446.842                                                                                
   DEXC   =    -.031                                                                                
   RMAX   =    3.170    core radius for proj-oper                                                   
   RAUG   =    1.300    factor for augmentation sphere                                              
   RDEP   =    2.177    radius for radial grids                                                     
   QCUT   =   -3.943; QGAM   =    7.886    optimization parameters                                  
                                                                                                    
   Description                                                                                      
     l     E      TYP  RCUT    TYP  RCUT                                                            
     0   .000     23  2.100                                                                         
     0   .000     23  2.100                                                                         
     1   .000     23  2.100                                                                         
     1   .000     23  2.100                                                                         
     2   .000     23  2.100                                                                         
     3  -.100      7  2.100                                                                         
  local pseudopotential read in
  partial core-charges read in
  atomic valenz-charges read in
  non local Contribution for L=           0  read in
    real space projection operators read in
  non local Contribution for L=           0  read in
    real space projection operators read in
  non local Contribution for L=           1  read in
    real space projection operators read in
  non local Contribution for L=           1  read in
    real space projection operators read in
  non local Contribution for L=           2  read in
    real space projection operators read in
    PAW grid and wavefunctions read in
 
   number of l-projection  operators is LMAX  =           5
   number of lm-projection operators is LMMAX =          13
 
 Optimization of the real space projectors (new method)

 maximal supplied QI-value         = 17.01
 optimisation between [QCUT,QGAM] = [ 11.91, 23.98] = [ 39.69,161.04] Ry 
 Optimized for a Real-space Cutoff    1.45 Angstroem

   l    n(q)    QCUT    max X(q) W(low)/X(q) W(high)/X(q)  e(spline) 
   1     10    11.905     4.550    0.27E-05    0.11E-05    0.28E-07
   1     10    11.905     5.234    0.10E-04    0.61E-04    0.17E-06
   2      9    11.905     3.960    0.19E-04    0.73E-05    0.50E-07
   2      9    11.905    29.565    0.24E-03    0.51E-04    0.27E-06
   0     10    11.905    23.582    0.17E-04    0.10E-05    0.14E-07
   0     10    11.905    39.747    0.23E-04    0.68E-05    0.74E-07
 Optimization of the real space projectors (new method)

 maximal supplied QI-value         = 17.95
 optimisation between [QCUT,QGAM] = [ 11.85, 23.88] = [ 39.31,159.64] Ry 
 Optimized for a Real-space Cutoff    1.18 Angstroem

   l    n(q)    QCUT    max X(q) W(low)/X(q) W(high)/X(q)  e(spline) 
   0      8    11.849     6.499    0.17E-04    0.94E-05    0.89E-08
   0      8    11.849    52.623    0.21E-03    0.78E-04    0.81E-07
   1      8    11.849     4.229    0.79E-04    0.83E-04    0.23E-07
   1      8    11.849    29.991    0.12E-03    0.43E-03    0.14E-06
   2      7    11.849     3.719    0.22E-03    0.64E-04    0.38E-07
 PAW_PBE Fe_pv 06Sep2000                :
 energy of atom  1       EATOM=-2456.8974
 kinetic energy error for atom=    0.0060 (will be added to EATOM!!)
 PAW_PBE Se 06Sep2000                   :
 energy of atom  2       EATOM= -256.9644
 kinetic energy error for atom=    0.0007 (will be added to EATOM!!)
 
 
 POSCAR: Fe8 Se8
  positions in direct lattice
  No initial velocities read in
 exchange correlation table for  LEXCH =        8
   RHO(1)=    0.500       N(1)  =     2000
   RHO(2)=  100.500       N(2)  =     4000
 


--------------------------------------------------------------------------------------------------------


 ion  position               nearest neighbor table
   1  0.000  0.000  0.000-  11 2.27  14 2.27   5 2.38   8 2.38   7 2.79   6 2.79
   2  0.000  0.500  0.000-  12 2.27  13 2.27   6 2.38   7 2.38   5 2.79   8 2.79
   3  0.500  0.000  0.000-   9 2.27  16 2.27   6 2.38   7 2.38   5 2.79   8 2.79
   4  0.500  0.500  0.000-  10 2.27  15 2.27   5 2.38   8 2.38   7 2.79   6 2.79
   5  0.250  0.250  0.000-   9 2.27  13 2.27   1 2.38   4 2.38   3 2.79   2 2.79
   6  0.250  0.750  0.000-  10 2.27  14 2.27   2 2.38   3 2.38   1 2.79   4 2.79
   7  0.750  0.250  0.000-  11 2.27  15 2.27   2 2.38   3 2.38   1 2.79   4 2.79
   8  0.750  0.750  0.000-  12 2.27  16 2.27   1 2.38   4 2.38   3 2.79   2 2.79
   9  0.375  0.125  0.672-   3 2.27   5 2.27
  10  0.375  0.625  0.672-   4 2.27   6 2.27
  11  0.875  0.125  0.672-   1 2.27   7 2.27
  12  0.875  0.625  0.672-   2 2.27   8 2.27
  13  0.125  0.375  0.328-   2 2.27   5 2.27
  14  0.125  0.875  0.328-   1 2.27   6 2.27
  15  0.625  0.375  0.328-   4 2.27   7 2.27
  16  0.625  0.875  0.328-   3 2.27   8 2.27
 
  LATTYP: Found a base centered orthorhombic cell.
 ALAT       =     9.5168535995
 B/A-ratio  =     1.1710895221
 C/A-ratio  =     0.5765709059
  
  Lattice vectors:
  
 A1 = (   4.7584267998,  -5.5725437670,   0.0000000000)
 A2 = (   4.7584267998,   5.5725437670,   0.0000000000)
 A3 = (   0.0000000000,   0.0000000000,   5.4871409015)


Analysis of symmetry for initial positions (statically):
=====================================================================
 Subroutine PRICEL returns following result:
 
  LATTYP: Found a base centered orthorhombic cell.
 ALAT       =     4.7584267998
 B/A-ratio  =     1.1710895221
 C/A-ratio  =     1.1531418119
  
  Lattice vectors:
  
 A1 = (   2.3792133999,  -2.7862718835,   0.0000000000)
 A2 = (   2.3792133999,   2.7862718835,   0.0000000000)
 A3 = (   0.0000000000,   0.0000000000,   5.4871409015)
 
   4 primitive cells build up your supercell.
 

 Routine SETGRP: Setting up the symmetry group for a 
 base centered orthorhombic supercell.


 Subroutine GETGRP returns: Found  8 space group operations
 (whereof  4 operations were pure point group operations)
 out of a pool of  8 trial point group operations.


The static configuration has the point symmetry C_2h.
 The point group associated with its full space group is D_2h.


Analysis of symmetry for dynamics (positions and initial velocities):
=====================================================================
 Subroutine PRICEL returns following result:
 
  LATTYP: Found a base centered orthorhombic cell.
 ALAT       =     4.7584267998
 B/A-ratio  =     1.1710895221
 C/A-ratio  =     1.1531418119
  
  Lattice vectors:
  
 A1 = (   2.3792133999,  -2.7862718835,   0.0000000000)
 A2 = (   2.3792133999,   2.7862718835,   0.0000000000)
 A3 = (   0.0000000000,   0.0000000000,   5.4871409015)
 
   4 primitive cells build up your supercell.
 

 Routine SETGRP: Setting up the symmetry group for a 
 base centered orthorhombic supercell.


 Subroutine GETGRP returns: Found  8 space group operations
 (whereof  4 operations were pure point group operations)
 out of a pool of  8 trial point group operations.


The dynamic configuration has the point symmetry C_2h.
 The point group associated with its full space group is D_2h.


Analysis of structural, dynamic, and magnetic symmetry:
=====================================================================
 Subroutine PRICEL returns following result:
 
  LATTYP: Found a base centered orthorhombic cell.
 ALAT       =     4.7584267998
 B/A-ratio  =     1.1710895221
 C/A-ratio  =     1.1531418119
  
  Lattice vectors:
  
 A1 = (   2.3792133999,  -2.7862718835,   0.0000000000)
 A2 = (   2.3792133999,   2.7862718835,   0.0000000000)
 A3 = (   0.0000000000,   0.0000000000,   5.4871409015)
 
   4 primitive cells build up your supercell.
 

 Routine SETGRP: Setting up the symmetry group for a 
 base centered orthorhombic supercell.


 Subroutine GETGRP returns: Found  8 space group operations
 (whereof  4 operations were pure point group operations)
 out of a pool of  8 trial point group operations.


The overall configuration has the point symmetry C_2h.
 The point group associated with its full space group is D_2h.


 Subroutine INISYM returns: Found  8 space group operations
 (whereof  4 operations are pure point group operations),
 and found     4 'primitive' translations


----------------------------------------------------------------------------------------

                                     Primitive cell                                     

  volume of cell :      72.7500

  direct lattice vectors                    reciprocal lattice vectors
     2.379213400 -2.786271883  0.000000000     0.210153490 -0.179451260  0.000000000
     2.379213400  2.786271883  0.000000000     0.210153490  0.179451260  0.000000000
     0.000000000  0.000000000  5.487140902     0.000000000  0.000000000  0.182244272

  length of vectors
     3.663873280  3.663873280  5.487140902     0.276346240  0.276346240  0.182244272

  position of ions in fractional coordinates (direct lattice)
     0.000000000  0.000000000  0.000000000
     0.500000000  0.500000000  0.000000000
     0.750000000  0.250000000  0.672409581
     0.250000000  0.750000000  0.327590419

  ion indices of the primitive-cell ions
   primitive index   ion index
                 1           1
                 2           5
                 3          11
                 4          14

----------------------------------------------------------------------------------------

 
 
 KPOINTS: KPOINTS                                 

Automatic generation of k-mesh.
 Grid dimensions read from file:
 generate k-points for:    7    7    9

 Generating k-lattice:

  Cartesian coordinates                     Fractional coordinates (reciprocal lattice)
     0.015010964 -0.012817947  0.000000000     0.142857143  0.000000000  0.000000000
     0.015010964  0.012817947  0.000000000     0.000000000  0.142857143  0.000000000
     0.000000000  0.000000000  0.020249364     0.000000000  0.000000000  0.111111111

  Length of vectors
     0.019739017  0.019739017  0.020249364

  Shift w.r.t. Gamma in fractional coordinates (k-lattice)
     0.000000000  0.000000000  0.000000000

 
 Subroutine IBZKPT returns following result:
 ===========================================
 
 Found     80 irreducible k-points:
 
 Following reciprocal coordinates:
            Coordinates               Weight
  0.000000  0.000000  0.000000      1.000000
  0.142857 -0.000000  0.000000      4.000000
  0.285714 -0.000000  0.000000      4.000000
  0.428571 -0.000000  0.000000      4.000000
  0.142857  0.142857  0.000000      2.000000
  0.285714  0.142857  0.000000      4.000000
  0.428571  0.142857  0.000000      4.000000
 -0.428571  0.142857  0.000000      4.000000
 -0.285714  0.142857  0.000000      4.000000
 -0.142857  0.142857  0.000000      2.000000
  0.285714  0.285714  0.000000      2.000000
  0.428571  0.285714  0.000000      4.000000
 -0.428571  0.285714  0.000000      4.000000
 -0.285714  0.285714  0.000000      2.000000
  0.428571  0.428571  0.000000      2.000000
 -0.428571  0.428571  0.000000      2.000000
  0.000000  0.000000  0.111111      2.000000
  0.142857 -0.000000  0.111111      8.000000
  0.285714 -0.000000  0.111111      8.000000
  0.428571 -0.000000  0.111111      8.000000
  0.142857  0.142857  0.111111      4.000000
  0.285714  0.142857  0.111111      8.000000
  0.428571  0.142857  0.111111      8.000000
 -0.428571  0.142857  0.111111      8.000000
 -0.285714  0.142857  0.111111      8.000000
 -0.142857  0.142857  0.111111      4.000000
  0.285714  0.285714  0.111111      4.000000
  0.428571  0.285714  0.111111      8.000000
 -0.428571  0.285714  0.111111      8.000000
 -0.285714  0.285714  0.111111      4.000000
  0.428571  0.428571  0.111111      4.000000
 -0.428571  0.428571  0.111111      4.000000
  0.000000  0.000000  0.222222      2.000000
  0.142857 -0.000000  0.222222      8.000000
  0.285714 -0.000000  0.222222      8.000000
  0.428571 -0.000000  0.222222      8.000000
  0.142857  0.142857  0.222222      4.000000
  0.285714  0.142857  0.222222      8.000000
  0.428571  0.142857  0.222222      8.000000
 -0.428571  0.142857  0.222222      8.000000
 -0.285714  0.142857  0.222222      8.000000
 -0.142857  0.142857  0.222222      4.000000
  0.285714  0.285714  0.222222      4.000000
  0.428571  0.285714  0.222222      8.000000
 -0.428571  0.285714  0.222222      8.000000
 -0.285714  0.285714  0.222222      4.000000
  0.428571  0.428571  0.222222      4.000000
 -0.428571  0.428571  0.222222      4.000000
  0.000000  0.000000  0.333333      2.000000
  0.142857 -0.000000  0.333333      8.000000
  0.285714 -0.000000  0.333333      8.000000
  0.428571 -0.000000  0.333333      8.000000
  0.142857  0.142857  0.333333      4.000000
  0.285714  0.142857  0.333333      8.000000
  0.428571  0.142857  0.333333      8.000000
 -0.428571  0.142857  0.333333      8.000000
 -0.285714  0.142857  0.333333      8.000000
 -0.142857  0.142857  0.333333      4.000000
  0.285714  0.285714  0.333333      4.000000
  0.428571  0.285714  0.333333      8.000000
 -0.428571  0.285714  0.333333      8.000000
 -0.285714  0.285714  0.333333      4.000000
  0.428571  0.428571  0.333333      4.000000
 -0.428571  0.428571  0.333333      4.000000
  0.000000  0.000000  0.444444      2.000000
  0.142857 -0.000000  0.444444      8.000000
  0.285714 -0.000000  0.444444      8.000000
  0.428571 -0.000000  0.444444      8.000000
  0.142857  0.142857  0.444444      4.000000
  0.285714  0.142857  0.444444      8.000000
  0.428571  0.142857  0.444444      8.000000
 -0.428571  0.142857  0.444444      8.000000
 -0.285714  0.142857  0.444444      8.000000
 -0.142857  0.142857  0.444444      4.000000
  0.285714  0.285714  0.444444      4.000000
  0.428571  0.285714  0.444444      8.000000
 -0.428571  0.285714  0.444444      8.000000
 -0.285714  0.285714  0.444444      4.000000
  0.428571  0.428571  0.444444      4.000000
 -0.428571  0.428571  0.444444      4.000000
 
 Following cartesian coordinates:
            Coordinates               Weight
  0.000000  0.000000  0.000000      1.000000
  0.015011 -0.012818  0.000000      4.000000
  0.030022 -0.025636  0.000000      4.000000
  0.045033 -0.038454  0.000000      4.000000
  0.030022 -0.000000  0.000000      2.000000
  0.045033 -0.012818  0.000000      4.000000
  0.060044 -0.025636  0.000000      4.000000
 -0.030022  0.051272  0.000000      4.000000
 -0.015011  0.038454  0.000000      4.000000
 -0.000000  0.025636  0.000000      2.000000
  0.060044  0.000000  0.000000      2.000000
  0.075055 -0.012818  0.000000      4.000000
 -0.015011  0.064090  0.000000      4.000000
  0.000000  0.051272  0.000000      2.000000
  0.090066 -0.000000  0.000000      2.000000
 -0.000000  0.076908  0.000000      2.000000
  0.000000  0.000000  0.020249      2.000000
  0.015011 -0.012818  0.020249      8.000000
  0.030022 -0.025636  0.020249      8.000000
  0.045033 -0.038454  0.020249      8.000000
  0.030022 -0.000000  0.020249      4.000000
  0.045033 -0.012818  0.020249      8.000000
  0.060044 -0.025636  0.020249      8.000000
 -0.030022  0.051272  0.020249      8.000000
 -0.015011  0.038454  0.020249      8.000000
 -0.000000  0.025636  0.020249      4.000000
  0.060044  0.000000  0.020249      4.000000
  0.075055 -0.012818  0.020249      8.000000
 -0.015011  0.064090  0.020249      8.000000
  0.000000  0.051272  0.020249      4.000000
  0.090066 -0.000000  0.020249      4.000000
 -0.000000  0.076908  0.020249      4.000000
  0.000000  0.000000  0.040499      2.000000
  0.015011 -0.012818  0.040499      8.000000
  0.030022 -0.025636  0.040499      8.000000
  0.045033 -0.038454  0.040499      8.000000
  0.030022 -0.000000  0.040499      4.000000
  0.045033 -0.012818  0.040499      8.000000
  0.060044 -0.025636  0.040499      8.000000
 -0.030022  0.051272  0.040499      8.000000
 -0.015011  0.038454  0.040499      8.000000
 -0.000000  0.025636  0.040499      4.000000
  0.060044  0.000000  0.040499      4.000000
  0.075055 -0.012818  0.040499      8.000000
 -0.015011  0.064090  0.040499      8.000000
  0.000000  0.051272  0.040499      4.000000
  0.090066 -0.000000  0.040499      4.000000
 -0.000000  0.076908  0.040499      4.000000
  0.000000  0.000000  0.060748      2.000000
  0.015011 -0.012818  0.060748      8.000000
  0.030022 -0.025636  0.060748      8.000000
  0.045033 -0.038454  0.060748      8.000000
  0.030022 -0.000000  0.060748      4.000000
  0.045033 -0.012818  0.060748      8.000000
  0.060044 -0.025636  0.060748      8.000000
 -0.030022  0.051272  0.060748      8.000000
 -0.015011  0.038454  0.060748      8.000000
 -0.000000  0.025636  0.060748      4.000000
  0.060044  0.000000  0.060748      4.000000
  0.075055 -0.012818  0.060748      8.000000
 -0.015011  0.064090  0.060748      8.000000
  0.000000  0.051272  0.060748      4.000000
  0.090066 -0.000000  0.060748      4.000000
 -0.000000  0.076908  0.060748      4.000000
  0.000000  0.000000  0.080997      2.000000
  0.015011 -0.012818  0.080997      8.000000
  0.030022 -0.025636  0.080997      8.000000
  0.045033 -0.038454  0.080997      8.000000
  0.030022 -0.000000  0.080997      4.000000
  0.045033 -0.012818  0.080997      8.000000
  0.060044 -0.025636  0.080997      8.000000
 -0.030022  0.051272  0.080997      8.000000
 -0.015011  0.038454  0.080997      8.000000
 -0.000000  0.025636  0.080997      4.000000
  0.060044  0.000000  0.080997      4.000000
  0.075055 -0.012818  0.080997      8.000000
 -0.015011  0.064090  0.080997      8.000000
  0.000000  0.051272  0.080997      4.000000
  0.090066 -0.000000  0.080997      4.000000
 -0.000000  0.076908  0.080997      4.000000
 


--------------------------------------------------------------------------------------------------------




 Dimension of arrays:
   k-points           NKPTS =     80   k-points in BZ     NKDIM =     80   number of bands    NBANDS=    100
   number of dos      NEDOS =    301   number of ions     NIONS =     16
   non local maximal  LDIM  =      6   non local SUM 2l+1 LMDIM =     18
   total plane-waves  NPLWV = 131712
   max r-space proj   IRMAX =   5805   max aug-charges    IRDMAX=  19936
   dimension x,y,z NGX =    56 NGY =   56 NGZ =   42
   dimension x,y,z NGXF=   112 NGYF=  112 NGZF=   84
   support grid    NGXF=   112 NGYF=  112 NGZF=   84
   ions per type =               8   8
   NGX,Y,Z   is equivalent  to a cutoff of  12.70, 12.70, 12.72 a.u.
   NGXF,Y,Z  is equivalent  to a cutoff of  25.41, 25.41, 25.45 a.u.

 SYSTEM =  unknown system                          
 POSCAR =  Fe8 Se8                                 

 Startparameter for this run:
   NWRITE =      2    write-flag & timer
   PREC   = accura    normal or accurate (medium, high low for compatibility)
   ISTART =      0    job   : 0-new  1-cont  2-samecut
   ICHARG =      2    charge: 1-file 2-atom 10-const
   ISPIN  =      2    spin polarized calculation?
   LNONCOLLINEAR =      F non collinear calculations
   LSORBIT =      F    spin-orbit coupling
   INIWAV =      1    electr: 0-lowe 1-rand  2-diag
   LASPH  =      T    aspherical Exc in radial PAW
 Electronic Relaxation 1
   ENCUT  =  550.0 eV  40.42 Ry    6.36 a.u.  14.01 14.01 10.49*2*pi/ulx,y,z
   ENINI  =  550.0     initial cutoff
   ENAUG  =  578.3 eV  augmentation charge cutoff
   NELM   =    100;   NELMIN=  2; NELMDL=  0     # of ELM steps 
   EDIFF  = 0.2E-03   stopping-criterion for ELM
   LREAL  =      T    real-space projection
   NLSPLINE    = F    spline interpolate recip. space projectors
   LCOMPAT=      F    compatible to vasp.4.4
   GGA_COMPAT  = T    GGA compatible to vasp.4.4-vasp.4.6
   LMAXPAW     = -100 max onsite density
   LMAXMIX     =    4 max onsite mixed and CHGCAR
   VOSKOWN=      0    Vosko Wilk Nusair interpolation
   ROPT   =   -0.00025  -0.00025
 Ionic relaxation
   EDIFFG = 0.2E-02   stopping-criterion for IOM
   NSW    =     99    number of steps for IOM
   NBLOCK =      1;   KBLOCK =     99    inner block; outer block 
   IBRION =      2    ionic relax: 0-MD 1-quasi-New 2-CG
   NFREE  =      1    steps in history (QN), initial steepest desc. (CG)
   ISIF   =      4    stress and relaxation
   IWAVPR =     11    prediction:  0-non 1-charg 2-wave 3-comb
   ISYM   =      2    0-nonsym 1-usesym 2-fastsym
   LCORR  =      T    Harris-Foulkes like correction to forces

   POTIM  = 0.5000    time-step for ionic-motion
   TEIN   =    0.0    initial temperature
   TEBEG  =    0.0;   TEEND  =   0.0 temperature during run
   SMASS  =  -3.00    Nose mass-parameter (am)
   estimated Nose-frequenzy (Omega)   =  0.10E-29 period in steps = 0.13E+47 mass=  -0.123E-26a.u.
   SCALEE = 1.0000    scale energy and forces
   NPACO  =    256;   APACO  = 10.0  distance and # of slots for P.C.
   PSTRESS=    0.0 pullay stress

  Mass of Ions in am
   POMASS =  55.85 78.96
  Ionic Valenz
   ZVAL   =  14.00  6.00
  Atomic Wigner-Seitz radii
   RWIGS  =  -1.00 -1.00
  virtual crystal weights 
   VCA    =   1.00  1.00
   NELECT =     160.0000    total number of electrons
   NUPDOWN=      -1.0000    fix difference up-down

 DOS related values:
   EMIN   =  10.00;   EMAX   =-10.00  energy-range for DOS
   EFERMI =   0.00;   METHOD = LEGACY      
   ISMEAR =     0;   SIGMA  =   0.05  broadening in eV -4-tet -1-fermi 0-gaus

 Electronic relaxation 2 (details)
   IALGO  =     68    algorithm
   LDIAG  =      T    sub-space diagonalisation (order eigenvalues)
   LSUBROT=      F    optimize rotation matrix (better conditioning)
   TURBO    =      0    0=normal 1=particle mesh
   IRESTART =      0    0=no restart 2=restart with 2 vectors
   NREBOOT  =      0    no. of reboots
   NMIN     =      0    reboot dimension
   EREF     =   0.00    reference energy to select bands
   IMIX   =      4    mixing-type and parameters
     AMIX     =   0.40;   BMIX     =  1.00
     AMIX_MAG =   1.60;   BMIX_MAG =  1.00
     AMIN     =   0.10
     WC   =   100.;   INIMIX=   1;  MIXPRE=   1;  MAXMIX= -45

 Intra band minimization:
   WEIMIN = 0.0010     energy-eigenvalue tresh-hold
   EBREAK =  0.50E-06  absolut break condition
   DEPER  =   0.30     relativ break condition  

   TIME   =   0.40     timestep for ELM

  volume/ion in A,a.u.               =      18.19       122.74
  Fermi-wavevector in a.u.,A,eV,Ry     =   1.341170  2.534444 24.473302  1.798737
  Thomas-Fermi vector in A             =   2.469425
 
 Write flags
   LWAVE        =      F    write WAVECAR
   LDOWNSAMPLE  =      F    k-point downsampling of WAVECAR
   LCHARG       =      T    write CHGCAR
   LVTOT        =      F    write LOCPOT, total local potential
   LVHAR        =      F    write LOCPOT, Hartree potential only
   LELF         =      F    write electronic localiz. function (ELF)
   LORBIT       =     11    0 simple, 1 ext, 2 COOP (PROOUT), +10 PAW based schemes


 Dipole corrections
   LMONO  =      F    monopole corrections only (constant potential shift)
   LDIPOL =      F    correct potential (dipole corrections)
   IDIPOL =      0    1-x, 2-y, 3-z, 4-all directions 
   EPSILON=  1.0000000 bulk dielectric constant

 Exchange correlation treatment:
   GGA     =    --    GGA type
   LEXCH   =     8    internal setting for exchange type
   LIBXC   =     F    Libxc                    
   VOSKOWN =     0    Vosko Wilk Nusair interpolation
   LHFCALC =     F    Hartree Fock is set to
   LHFONE  =     F    Hartree Fock one center treatment
   AEXX    =    0.0000 exact exchange contribution

 Linear response parameters
   LEPSILON=     F    determine dielectric tensor
   LRPA    =     F    only Hartree local field effects (RPA)
   LNABLA  =     F    use nabla operator in PAW spheres
   LVEL    =     F    velocity operator in full k-point grid
   CSHIFT  =0.1000    complex shift for real part using Kramers Kronig
   OMEGAMAX=  -1.0    maximum frequency
   DEG_THRESHOLD= 0.2000000E-02 threshold for treating states as degnerate
   RTIME   =   -0.100 relaxation time in fs
  (WPLASMAI=    0.000 imaginary part of plasma frequency in eV, 0.658/RTIME)
   DFIELD  = 0.0000000 0.0000000 0.0000000 field for delta impulse in time
 
  Optional k-point grid parameters
   LKPOINTS_OPT  =     F    use optional k-point grid
   KPOINTS_OPT_MODE=     1    mode for optional k-point grid
 
 Orbital magnetization related:
   ORBITALMAG=     F  switch on orbital magnetization
   LCHIMAG   =     F  perturbation theory with respect to B field
   DQ        =  0.001000  dq finite difference perturbation B field
   LLRAUG    =     F  two centre corrections for induced B field
   LBONE     =     F  B-component reconstruction in AE one-centre
   LVGVCALC  =     T  calculate vGv susceptibility
   LVGVAPPL  =     F  apply vGv susceptibility instead of pGv for G=0

 Random number generation:
   RANDOM_GENERATOR = DEFAULT
   PCG_SEED         = not used


--------------------------------------------------------------------------------------------------------


 conjugate gradient relaxation of ions
 charge density and potential will be updated during run
 spin polarized calculation
 RMM-DIIS sequential band-by-band and
  variant of blocked Davidson during initial phase
 perform sub-space diagonalisation
    before iterative eigenvector-optimisation
 modified Broyden-mixing scheme, WC =      100.0
 initial mixing is a Kerker type mixing with AMIX =  0.4000 and BMIX =      1.0000
 Hartree-type preconditioning will be used
 using additional bands           20
 real space projection scheme for non local part
 use partial core corrections
 calculate Harris-corrections to forces 
   (improved forces if not selfconsistent)
 use gradient corrections 
 use of overlap-Matrix (Vanderbilt PP)
 Gauss-broadening in eV      SIGMA  =   0.05


--------------------------------------------------------------------------------------------------------


  energy-cutoff  :      550.00
  volume of cell :      291.00
      direct lattice vectors                 reciprocal lattice vectors
     4.758426800 -5.572543767  0.000000000     0.105076745 -0.089725630  0.000000000
     4.758426800  5.572543767  0.000000000     0.105076745  0.089725630  0.000000000
     0.000000000  0.000000000  5.487140902     0.000000000  0.000000000  0.182244272

  length of vectors
     7.327746560  7.327746560  5.487140902     0.138173120  0.138173120  0.182244272


 
 k-points in units of 2pi/SCALE and weight: KPOINTS                                 
   0.00000000  0.00000000  0.00000000       0.002
   0.01501096 -0.01281795  0.00000000       0.009
   0.03002193 -0.02563589  0.00000000       0.009
   0.04503289 -0.03845384  0.00000000       0.009
   0.03002193  0.00000000  0.00000000       0.005
   0.04503289 -0.01281795  0.00000000       0.009
   0.06004385 -0.02563589  0.00000000       0.009
  -0.03002193  0.05127179  0.00000000       0.009
  -0.01501096  0.03845384  0.00000000       0.009
   0.00000000  0.02563589  0.00000000       0.005
   0.06004385 -0.00000000  0.00000000       0.005
   0.07505482 -0.01281795  0.00000000       0.009
  -0.01501096  0.06408974  0.00000000       0.009
  -0.00000000  0.05127179  0.00000000       0.005
   0.09006578  0.00000000  0.00000000       0.005
   0.00000000  0.07690768  0.00000000       0.005
   0.00000000  0.00000000  0.02024936       0.005
   0.01501096 -0.01281795  0.02024936       0.018
   0.03002193 -0.02563589  0.02024936       0.018
   0.04503289 -0.03845384  0.02024936       0.018
   0.03002193  0.00000000  0.02024936       0.009
   0.04503289 -0.01281795  0.02024936       0.018
   0.06004385 -0.02563589  0.02024936       0.018
  -0.03002193  0.05127179  0.02024936       0.018
  -0.01501096  0.03845384  0.02024936       0.018
   0.00000000  0.02563589  0.02024936       0.009
   0.06004385 -0.00000000  0.02024936       0.009
   0.07505482 -0.01281795  0.02024936       0.018
  -0.01501096  0.06408974  0.02024936       0.018
  -0.00000000  0.05127179  0.02024936       0.009
   0.09006578  0.00000000  0.02024936       0.009
   0.00000000  0.07690768  0.02024936       0.009
   0.00000000  0.00000000  0.04049873       0.005
   0.01501096 -0.01281795  0.04049873       0.018
   0.03002193 -0.02563589  0.04049873       0.018
   0.04503289 -0.03845384  0.04049873       0.018
   0.03002193  0.00000000  0.04049873       0.009
   0.04503289 -0.01281795  0.04049873       0.018
   0.06004385 -0.02563589  0.04049873       0.018
  -0.03002193  0.05127179  0.04049873       0.018
  -0.01501096  0.03845384  0.04049873       0.018
   0.00000000  0.02563589  0.04049873       0.009
   0.06004385 -0.00000000  0.04049873       0.009
   0.07505482 -0.01281795  0.04049873       0.018
  -0.01501096  0.06408974  0.04049873       0.018
  -0.00000000  0.05127179  0.04049873       0.009
   0.09006578  0.00000000  0.04049873       0.009
   0.00000000  0.07690768  0.04049873       0.009
   0.00000000  0.00000000  0.06074809       0.005
   0.01501096 -0.01281795  0.06074809       0.018
   0.03002193 -0.02563589  0.06074809       0.018
   0.04503289 -0.03845384  0.06074809       0.018
   0.03002193  0.00000000  0.06074809       0.009
   0.04503289 -0.01281795  0.06074809       0.018
   0.06004385 -0.02563589  0.06074809       0.018
  -0.03002193  0.05127179  0.06074809       0.018
  -0.01501096  0.03845384  0.06074809       0.018
   0.00000000  0.02563589  0.06074809       0.009
   0.06004385 -0.00000000  0.06074809       0.009
   0.07505482 -0.01281795  0.06074809       0.018
  -0.01501096  0.06408974  0.06074809       0.018
  -0.00000000  0.05127179  0.06074809       0.009
   0.09006578  0.00000000  0.06074809       0.009
   0.00000000  0.07690768  0.06074809       0.009
   0.00000000  0.00000000  0.08099745       0.005
   0.01501096 -0.01281795  0.08099745       0.018
   0.03002193 -0.02563589  0.08099745       0.018
   0.04503289 -0.03845384  0.08099745       0.018
   0.03002193  0.00000000  0.08099745       0.009
   0.04503289 -0.01281795  0.08099745       0.018
   0.06004385 -0.02563589  0.08099745       0.018
  -0.03002193  0.05127179  0.08099745       0.018
  -0.01501096  0.03845384  0.08099745       0.018
   0.00000000  0.02563589  0.08099745       0.009
   0.06004385 -0.00000000  0.08099745       0.009
   0.07505482 -0.01281795  0.08099745       0.018
  -0.01501096  0.06408974  0.08099745       0.018
  -0.00000000  0.05127179  0.08099745       0.009
   0.09006578  0.00000000  0.08099745       0.009
   0.00000000  0.07690768  0.08099745       0.009
 
 k-points in reciprocal lattice and weights: KPOINTS                                 
   0.00000000  0.00000000  0.00000000       0.002
   0.14285714 -0.00000000  0.00000000       0.009
   0.28571429 -0.00000000  0.00000000       0.009
   0.42857143 -0.00000000  0.00000000       0.009
   0.14285714  0.14285714  0.00000000       0.005
   0.28571429  0.14285714  0.00000000       0.009
   0.42857143  0.14285714  0.00000000       0.009
  -0.42857143  0.14285714  0.00000000       0.009
  -0.28571429  0.14285714  0.00000000       0.009
  -0.14285714  0.14285714  0.00000000       0.005
   0.28571429  0.28571429  0.00000000       0.005
   0.42857143  0.28571429  0.00000000       0.009
  -0.42857143  0.28571429  0.00000000       0.009
  -0.28571429  0.28571429  0.00000000       0.005
   0.42857143  0.42857143  0.00000000       0.005
  -0.42857143  0.42857143  0.00000000       0.005
   0.00000000  0.00000000  0.11111111       0.005
   0.14285714 -0.00000000  0.11111111       0.018
   0.28571429 -0.00000000  0.11111111       0.018
   0.42857143 -0.00000000  0.11111111       0.018
   0.14285714  0.14285714  0.11111111       0.009
   0.28571429  0.14285714  0.11111111       0.018
   0.42857143  0.14285714  0.11111111       0.018
  -0.42857143  0.14285714  0.11111111       0.018
  -0.28571429  0.14285714  0.11111111       0.018
  -0.14285714  0.14285714  0.11111111       0.009
   0.28571429  0.28571429  0.11111111       0.009
   0.42857143  0.28571429  0.11111111       0.018
  -0.42857143  0.28571429  0.11111111       0.018
  -0.28571429  0.28571429  0.11111111       0.009
   0.42857143  0.42857143  0.11111111       0.009
  -0.42857143  0.42857143  0.11111111       0.009
   0.00000000  0.00000000  0.22222222       0.005
   0.14285714 -0.00000000  0.22222222       0.018
   0.28571429 -0.00000000  0.22222222       0.018
   0.42857143 -0.00000000  0.22222222       0.018
   0.14285714  0.14285714  0.22222222       0.009
   0.28571429  0.14285714  0.22222222       0.018
   0.42857143  0.14285714  0.22222222       0.018
  -0.42857143  0.14285714  0.22222222       0.018
  -0.28571429  0.14285714  0.22222222       0.018
  -0.14285714  0.14285714  0.22222222       0.009
   0.28571429  0.28571429  0.22222222       0.009
   0.42857143  0.28571429  0.22222222       0.018
  -0.42857143  0.28571429  0.22222222       0.018
  -0.28571429  0.28571429  0.22222222       0.009
   0.42857143  0.42857143  0.22222222       0.009
  -0.42857143  0.42857143  0.22222222       0.009
   0.00000000  0.00000000  0.33333333       0.005
   0.14285714 -0.00000000  0.33333333       0.018
   0.28571429 -0.00000000  0.33333333       0.018
   0.42857143 -0.00000000  0.33333333       0.018
   0.14285714  0.14285714  0.33333333       0.009
   0.28571429  0.14285714  0.33333333       0.018
   0.42857143  0.14285714  0.33333333       0.018
  -0.42857143  0.14285714  0.33333333       0.018
  -0.28571429  0.14285714  0.33333333       0.018
  -0.14285714  0.14285714  0.33333333       0.009
   0.28571429  0.28571429  0.33333333       0.009
   0.42857143  0.28571429  0.33333333       0.018
  -0.42857143  0.28571429  0.33333333       0.018
  -0.28571429  0.28571429  0.33333333       0.009
   0.42857143  0.42857143  0.33333333       0.009
  -0.42857143  0.42857143  0.33333333       0.009
   0.00000000  0.00000000  0.44444444       0.005
   0.14285714 -0.00000000  0.44444444       0.018
   0.28571429 -0.00000000  0.44444444       0.018
   0.42857143 -0.00000000  0.44444444       0.018
   0.14285714  0.14285714  0.44444444       0.009
   0.28571429  0.14285714  0.44444444       0.018
   0.42857143  0.14285714  0.44444444       0.018
  -0.42857143  0.14285714  0.44444444       0.018
  -0.28571429  0.14285714  0.44444444       0.018
  -0.14285714  0.14285714  0.44444444       0.009
   0.28571429  0.28571429  0.44444444       0.009
   0.42857143  0.28571429  0.44444444       0.018
  -0.42857143  0.28571429  0.44444444       0.018
  -0.28571429  0.28571429  0.44444444       0.009
   0.42857143  0.42857143  0.44444444       0.009
  -0.42857143  0.42857143  0.44444444       0.009
 
 position of ions in fractional coordinates (direct lattice) 
   0.00000000  0.00000000  0.00000000
   0.00000000  0.50000000  0.00000000
   0.50000000  0.00000000  0.00000000
   0.50000000  0.50000000  0.00000000
   0.25000000  0.25000000  0.00000000
   0.25000000  0.75000000  0.00000000
   0.75000000  0.25000000  0.00000000
   0.75000000  0.75000000  0.00000000
   0.37500000  0.12500000  0.67240958
   0.37500000  0.62500000  0.67240958
   0.87500000  0.12500000  0.67240958
   0.87500000  0.62500000  0.67240958
   0.12500000  0.37500000  0.32759042
   0.12500000  0.87500000  0.32759042
   0.62500000  0.37500000  0.32759042
   0.62500000  0.87500000  0.32759042
 
 position of ions in cartesian coordinates  (Angst):
   0.00000000  0.00000000  0.00000000
   2.37921340  2.78627188  0.00000000
   2.37921340 -2.78627188  0.00000000
   4.75842680  0.00000000  0.00000000
   2.37921340  0.00000000  0.00000000
   4.75842680  2.78627188  0.00000000
   4.75842680 -2.78627188  0.00000000
   7.13764020  0.00000000  0.00000000
   2.37921340 -1.39313594  3.68960611
   4.75842680  1.39313594  3.68960611
   4.75842680 -4.17940783  3.68960611
   7.13764020 -1.39313594  3.68960611
   2.37921340  1.39313594  1.79753479
   4.75842680  4.17940783  1.79753479
   4.75842680 -1.39313594  1.79753479
   7.13764020  1.39313594  1.79753479
 


--------------------------------------------------------------------------------------------------------


 k-point   1 :   0.0000 0.0000 0.0000  plane waves:    8507
 k-point   2 :   0.1429-0.0000 0.0000  plane waves:    8537
 k-point   3 :   0.2857-0.0000 0.0000  plane waves:    8545
 k-point   4 :   0.4286-0.0000 0.0000  plane waves:    8530
 k-point   5 :   0.1429 0.1429 0.0000  plane waves:    8550
 k-point   6 :   0.2857 0.1429 0.0000  plane waves:    8554
 k-point   7 :   0.4286 0.1429 0.0000  plane waves:    8530
 k-point   8 :  -0.4286 0.1429 0.0000  plane waves:    8529
 k-point   9 :  -0.2857 0.1429 0.0000  plane waves:    8547
 k-point  10 :  -0.1429 0.1429 0.0000  plane waves:    8515
 k-point  11 :   0.2857 0.2857 0.0000  plane waves:    8530
 k-point  12 :   0.4286 0.2857 0.0000  plane waves:    8525
 k-point  13 :  -0.4286 0.2857 0.0000  plane waves:    8535
 k-point  14 :  -0.2857 0.2857 0.0000  plane waves:    8529
 k-point  15 :   0.4286 0.4286 0.0000  plane waves:    8516
 k-point  16 :  -0.4286 0.4286 0.0000  plane waves:    8510
 k-point  17 :   0.0000 0.0000 0.1111  plane waves:    8505
 k-point  18 :   0.1429-0.0000 0.1111  plane waves:    8520
 k-point  19 :   0.2857-0.0000 0.1111  plane waves:    8535
 k-point  20 :   0.4286-0.0000 0.1111  plane waves:    8521
 k-point  21 :   0.1429 0.1429 0.1111  plane waves:    8547
 k-point  22 :   0.2857 0.1429 0.1111  plane waves:    8537
 k-point  23 :   0.4286 0.1429 0.1111  plane waves:    8544
 k-point  24 :  -0.4286 0.1429 0.1111  plane waves:    8531
 k-point  25 :  -0.2857 0.1429 0.1111  plane waves:    8535
 k-point  26 :  -0.1429 0.1429 0.1111  plane waves:    8528
 k-point  27 :   0.2857 0.2857 0.1111  plane waves:    8542
 k-point  28 :   0.4286 0.2857 0.1111  plane waves:    8531
 k-point  29 :  -0.4286 0.2857 0.1111  plane waves:    8523
 k-point  30 :  -0.2857 0.2857 0.1111  plane waves:    8540
 k-point  31 :   0.4286 0.4286 0.1111  plane waves:    8540
 k-point  32 :  -0.4286 0.4286 0.1111  plane waves:    8519
 k-point  33 :   0.0000 0.0000 0.2222  plane waves:    8539
 k-point  34 :   0.1429-0.0000 0.2222  plane waves:    8515
 k-point  35 :   0.2857-0.0000 0.2222  plane waves:    8516
 k-point  36 :   0.4286-0.0000 0.2222  plane waves:    8525
 k-point  37 :   0.1429 0.1429 0.2222  plane waves:    8514
 k-point  38 :   0.2857 0.1429 0.2222  plane waves:    8526
 k-point  39 :   0.4286 0.1429 0.2222  plane waves:    8544
 k-point  40 :  -0.4286 0.1429 0.2222  plane waves:    8527
 k-point  41 :  -0.2857 0.1429 0.2222  plane waves:    8527
 k-point  42 :  -0.1429 0.1429 0.2222  plane waves:    8519
 k-point  43 :   0.2857 0.2857 0.2222  plane waves:    8527
 k-point  44 :   0.4286 0.2857 0.2222  plane waves:    8534
 k-point  45 :  -0.4286 0.2857 0.2222  plane waves:    8523
 k-point  46 :  -0.2857 0.2857 0.2222  plane waves:    8525
 k-point  47 :   0.4286 0.4286 0.2222  plane waves:    8551
 k-point  48 :  -0.4286 0.4286 0.2222  plane waves:    8532
 k-point  49 :   0.0000 0.0000 0.3333  plane waves:    8521
 k-point  50 :   0.1429-0.0000 0.3333  plane waves:    8504
 k-point  51 :   0.2857-0.0000 0.3333  plane waves:    8504
 k-point  52 :   0.4286-0.0000 0.3333  plane waves:    8513
 k-point  53 :   0.1429 0.1429 0.3333  plane waves:    8500
 k-point  54 :   0.2857 0.1429 0.3333  plane waves:    8516
 k-point  55 :   0.4286 0.1429 0.3333  plane waves:    8509
 k-point  56 :  -0.4286 0.1429 0.3333  plane waves:    8520
 k-point  57 :  -0.2857 0.1429 0.3333  plane waves:    8521
 k-point  58 :  -0.1429 0.1429 0.3333  plane waves:    8538
 k-point  59 :   0.2857 0.2857 0.3333  plane waves:    8516
 k-point  60 :   0.4286 0.2857 0.3333  plane waves:    8525
 k-point  61 :  -0.4286 0.2857 0.3333  plane waves:    8538
 k-point  62 :  -0.2857 0.2857 0.3333  plane waves:    8527
 k-point  63 :   0.4286 0.4286 0.3333  plane waves:    8532
 k-point  64 :  -0.4286 0.4286 0.3333  plane waves:    8533
 k-point  65 :   0.0000 0.0000 0.4444  plane waves:    8473
 k-point  66 :   0.1429-0.0000 0.4444  plane waves:    8485
 k-point  67 :   0.2857-0.0000 0.4444  plane waves:    8480
 k-point  68 :   0.4286-0.0000 0.4444  plane waves:    8505
 k-point  69 :   0.1429 0.1429 0.4444  plane waves:    8494
 k-point  70 :   0.2857 0.1429 0.4444  plane waves:    8500
 k-point  71 :   0.4286 0.1429 0.4444  plane waves:    8516
 k-point  72 :  -0.4286 0.1429 0.4444  plane waves:    8523
 k-point  73 :  -0.2857 0.1429 0.4444  plane waves:    8507
 k-point  74 :  -0.1429 0.1429 0.4444  plane waves:    8488
 k-point  75 :   0.2857 0.2857 0.4444  plane waves:    8513
 k-point  76 :   0.4286 0.2857 0.4444  plane waves:    8528
 k-point  77 :  -0.4286 0.2857 0.4444  plane waves:    8531
 k-point  78 :  -0.2857 0.2857 0.4444  plane waves:    8529
 k-point  79 :   0.4286 0.4286 0.4444  plane waves:    8543
 k-point  80 :  -0.4286 0.4286 0.4444  plane waves:    8531

 maximum and minimum number of plane-waves per node :      8554     8473

 maximum number of plane-waves:      8554
 maximum index in each direction: 
   IXMAX=   14   IYMAX=   14   IZMAX=   10
   IXMIN=  -14   IYMIN=  -14   IZMIN=  -10


 serial   3D FFT for wavefunctions
 parallel 3D FFT for charge:
    minimum data exchange during FFTs selected (reduces bandwidth)


 total amount of memory used by VASP MPI-rank0   172440. kBytes
=======================================================================

   base      :      30000. kBytes
   nonlr-proj:      11350. kBytes
   fftplans  :       2458. kBytes
   grid      :      15239. kBytes
   one-center:        497. kBytes
   wavefun   :     112896. kBytes
 
     INWAV:  cpu time      0.0000: real time      0.0002
 Broyden mixing: mesh for mixing (old mesh)
   NGX = 29   NGY = 29   NGZ = 21
  (NGX  =112   NGY  =112   NGZ  = 84)
  gives a total of  17661 points

 initial charge density was supplied:
 charge density of overlapping atoms calculated
 number of electron     160.0000000 magnetization      -0.0000000
 keeping initial charge density in first step


--------------------------------------------------------------------------------------------------------


 Maximum index for non-local projection operator         5563
 Maximum index for augmentation-charges         1104 (set IRDMAX)


--------------------------------------------------------------------------------------------------------


 First call to EWALD:  gamma=   0.267
 Maximum number of real-space cells 3x 3x 3
 Maximum number of reciprocal cells 3x 3x 2

    FEWALD:  cpu time      0.0016: real time      0.0017


--------------------------------------- Ionic step        1  -------------------------------------------




--------------------------------------- Iteration      1(   1)  ---------------------------------------


    POTLOK:  cpu time      0.0485: real time      0.0499
    SETDIJ:  cpu time      0.2736: real time      0.2745
     EDDAV:  cpu time     23.7312: real time     23.8288
       DOS:  cpu time      0.0023: real time      0.0024
    --------------------------------------------
      LOOP:  cpu time     24.0556: real time     24.1557

 eigenvalue-minimisations  : 34160
 total energy-change (2. order) : 0.2046929E+04  (-0.8887556E+04)
 number of electron     160.0000000 magnetization      -0.0000000
 augmentation part      160.0000000 magnetization      -0.0000000

 Free energy of the ion-electron system (eV)
  ---------------------------------------------------
  alpha Z        PSCENC =       872.68586007
  Ewald energy   TEWEN  =    -11760.29166674
  -Hartree energ DENC   =     -8733.36914029
  -exchange      EXHF   =         0.00000000
  -V(xc)+E(xc)   XCENC  =       567.26240524
  PAW double counting   =     15528.42155740   -16124.23173557
  entropy T*S    EENTRO =        -0.00789847
  eigenvalues    EBANDS =       -14.38187986
  atomic energy  EATOM  =     21710.84102437
  Solvation  Ediel_sol  =         0.00000000
  ---------------------------------------------------
  free energy    TOTEN  =      2046.92852614 eV

  energy without entropy =     2046.93642461  energy(sigma->0) =     2046.93247538


--------------------------------------------------------------------------------------------------------




--------------------------------------- Iteration      1(   2)  ---------------------------------------


     EDDAV:  cpu time     22.5978: real time     22.7116
       DOS:  cpu time      0.0020: real time      0.0020
    --------------------------------------------
      LOOP:  cpu time     22.5998: real time     22.7136

 eigenvalue-minimisations  : 32000
 total energy-change (2. order) :-0.1924246E+04  (-0.1868775E+04)
 number of electron     160.0000000 magnetization      -0.0000000
 augmentation part      160.0000000 magnetization      -0.0000000

 Free energy of the ion-electron system (eV)
  ---------------------------------------------------
  alpha Z        PSCENC =       872.68586007
  Ewald energy   TEWEN  =    -11760.29166674
  -Hartree energ DENC   =     -8733.36914029
  -exchange      EXHF   =         0.00000000
  -V(xc)+E(xc)   XCENC  =       567.26240524
  PAW double counting   =     15528.42155740   -16124.23173557
  entropy T*S    EENTRO =        -0.01483999
  eigenvalues    EBANDS =     -1938.62096951
  atomic energy  EATOM  =     21710.84102437
  Solvation  Ediel_sol  =         0.00000000
  ---------------------------------------------------
  free energy    TOTEN  =       122.68249497 eV

  energy without entropy =      122.69733495  energy(sigma->0) =      122.68991496


--------------------------------------------------------------------------------------------------------




--------------------------------------- Iteration      1(   3)  ---------------------------------------


     EDDAV:  cpu time     29.6763: real time     29.8073
       DOS:  cpu time      0.0028: real time      0.0028
    --------------------------------------------
      LOOP:  cpu time     29.6790: real time     29.8101

 eigenvalue-minimisations  : 44980
 total energy-change (2. order) :-0.2066993E+03  (-0.1836554E+03)
 number of electron     160.0000000 magnetization      -0.0000000
 augmentation part      160.0000000 magnetization      -0.0000000

 Free energy of the ion-electron system (eV)
  ---------------------------------------------------
  alpha Z        PSCENC =       872.68586007
  Ewald energy   TEWEN  =    -11760.29166674
  -Hartree energ DENC   =     -8733.36914029
  -exchange      EXHF   =         0.00000000
  -V(xc)+E(xc)   XCENC  =       567.26240524
  PAW double counting   =     15528.42155740   -16124.23173557
  entropy T*S    EENTRO =        -0.02588547
  eigenvalues    EBANDS =     -2145.30924238
  atomic energy  EATOM  =     21710.84102437
  Solvation  Ediel_sol  =         0.00000000
  ---------------------------------------------------
  free energy    TOTEN  =       -84.01682339 eV

  energy without entropy =      -83.99093791  energy(sigma->0) =      -84.00388065


--------------------------------------------------------------------------------------------------------




--------------------------------------- Iteration      1(   4)  ---------------------------------------


     EDDAV:  cpu time     30.5770: real time     30.7454
       DOS:  cpu time      0.0024: real time      0.0024
    --------------------------------------------
      LOOP:  cpu time     30.5793: real time     30.7478

 eigenvalue-minimisations  : 46660
 total energy-change (2. order) :-0.1418108E+02  (-0.1382984E+02)
 number of electron     160.0000000 magnetization      -0.0000000
 augmentation part      160.0000000 magnetization      -0.0000000

 Free energy of the ion-electron system (eV)
  ---------------------------------------------------
  alpha Z        PSCENC =       872.68586007
  Ewald energy   TEWEN  =    -11760.29166674
  -Hartree energ DENC   =     -8733.36914029
  -exchange      EXHF   =         0.00000000
  -V(xc)+E(xc)   XCENC  =       567.26240524
  PAW double counting   =     15528.42155740   -16124.23173557
  entropy T*S    EENTRO =        -0.02579726
  eigenvalues    EBANDS =     -2159.49040988
  atomic energy  EATOM  =     21710.84102437
  Solvation  Ediel_sol  =         0.00000000
  ---------------------------------------------------
  free energy    TOTEN  =       -98.19790267 eV

  energy without entropy =      -98.17210541  energy(sigma->0) =      -98.18500404


--------------------------------------------------------------------------------------------------------




--------------------------------------- Iteration      1(   5)  ---------------------------------------


     EDDAV:  cpu time     29.5298: real time     29.6587
       DOS:  cpu time      0.0025: real time      0.0025
    CHARGE:  cpu time      0.6501: real time      0.6537
    MIXING:  cpu time      0.0014: real time      0.0014
    --------------------------------------------
      LOOP:  cpu time     30.1839: real time     30.3164

 eigenvalue-minimisations  : 44820
 total energy-change (2. order) :-0.3264257E+00  (-0.3256329E+00)
 number of electron     159.9999802 magnetization      -0.0000000
 augmentation part       53.3070312 magnetization      -0.0000000

 Broyden mixing:
  rms(total) = 0.26615E+01    rms(broyden)= 0.26612E+01
  rms(prec ) = 0.41930E+01
  weight for this iteration     100.00

 Free energy of the ion-electron system (eV)
  ---------------------------------------------------
  alpha Z        PSCENC =       872.68586007
  Ewald energy   TEWEN  =    -11760.29166674
  -Hartree energ DENC   =     -8733.36914029
  -exchange      EXHF   =         0.00000000
  -V(xc)+E(xc)   XCENC  =       567.26240524
  PAW double counting   =     15528.42155740   -16124.23173557
  entropy T*S    EENTRO =        -0.02574922
  eigenvalues    EBANDS =     -2159.81688362
  atomic energy  EATOM  =     21710.84102437
  Solvation  Ediel_sol  =         0.00000000
  ---------------------------------------------------
  free energy    TOTEN  =       -98.52432838 eV

  energy without entropy =      -98.49857916  energy(sigma->0) =      -98.51145377


--------------------------------------------------------------------------------------------------------




--------------------------------------- Iteration      1(   6)  ---------------------------------------


    POTLOK:  cpu time      0.0405: real time      0.0706
    SETDIJ:  cpu time      0.2708: real time      0.2718
    EDDIAG:  cpu time      3.6019: real time      3.6156
  RMM-DIIS:  cpu time     12.4526: real time     12.4968
    ORTHCH:  cpu time      0.5559: real time      0.5581
       DOS:  cpu time      0.0020: real time      0.0021
    CHARGE:  cpu time      0.6208: real time      0.6241
    MIXING:  cpu time      0.0014: real time      0.0014
    --------------------------------------------
      LOOP:  cpu time     17.5460: real time     17.6406

 eigenvalue-minimisations  : 32040
 total energy-change (2. order) :-0.1265732E+02  (-0.1557700E+02)
 number of electron     159.9999755 magnetization      -0.0000000
 augmentation part       69.3429995 magnetization      -0.0000000

 Broyden mixing:
  rms(total) = 0.47734E+01    rms(broyden)= 0.47733E+01
  rms(prec ) = 0.78220E+01
  weight for this iteration     100.00

 eigenvalues of (default mixing * dielectric matrix)
  average eigenvalue GAMMA=   0.3117
  0.3117

 Free energy of the ion-electron system (eV)
  ---------------------------------------------------
  alpha Z        PSCENC =       872.68586007
  Ewald energy   TEWEN  =    -11760.29166674
  -Hartree energ DENC   =     -8294.72380805
  -exchange      EXHF   =         0.00000000
  -V(xc)+E(xc)   XCENC  =       555.14247301
  PAW double counting   =     15047.78799470   -15612.86726776
  entropy T*S    EENTRO =        -0.02153524
  eigenvalues    EBANDS =     -2629.73472320
  atomic energy  EATOM  =     21710.84102437
  Solvation  Ediel_sol  =         0.00000000
  ---------------------------------------------------
  free energy    TOTEN  =      -111.18164885 eV

  energy without entropy =     -111.16011361  energy(sigma->0) =     -111.17088123


--------------------------------------------------------------------------------------------------------




--------------------------------------- Iteration      1(   7)  ---------------------------------------


    POTLOK:  cpu time      0.0418: real time      0.0421
    SETDIJ:  cpu time      0.2737: real time      0.2746
    EDDIAG:  cpu time      3.6068: real time      3.6223
  RMM-DIIS:  cpu time     12.4295: real time     12.4754
    ORTHCH:  cpu time      0.5579: real time      0.5597
       DOS:  cpu time      0.0020: real time      0.0020
    CHARGE:  cpu time      0.6134: real time      0.6162
    MIXING:  cpu time      0.0013: real time      0.0013
    --------------------------------------------
      LOOP:  cpu time     17.5264: real time     17.5936

 eigenvalue-minimisations  : 32004
 total energy-change (2. order) : 0.2058997E+02  (-0.3912553E+01)
 number of electron     159.9999794 magnetization      -0.0000000
 augmentation part       58.1151598 magnetization      -0.0000000

 Broyden mixing:
  rms(total) = 0.92689E+00    rms(broyden)= 0.92638E+00
  rms(prec ) = 0.11071E+01
  weight for this iteration     100.00

 eigenvalues of (default mixing * dielectric matrix)
  average eigenvalue GAMMA=   0.4571
  0.6361  0.2782

 Free energy of the ion-electron system (eV)
  ---------------------------------------------------
  alpha Z        PSCENC =       872.68586007
  Ewald energy   TEWEN  =    -11760.29166674
  -Hartree energ DENC   =     -8562.37456662
  -exchange      EXHF   =         0.00000000
  -V(xc)+E(xc)   XCENC  =       560.26584029
  PAW double counting   =     15524.05367563   -16120.89745224
  entropy T*S    EENTRO =        -0.02875960
  eigenvalues    EBANDS =     -2314.84563129
  atomic energy  EATOM  =     21710.84102437
  Solvation  Ediel_sol  =         0.00000000
  ---------------------------------------------------
  free energy    TOTEN  =       -90.59167614 eV

  energy without entropy =      -90.56291654  energy(sigma->0) =      -90.57729634


--------------------------------------------------------------------------------------------------------




--------------------------------------- Iteration      1(   8)  ---------------------------------------


    POTLOK:  cpu time      0.0706: real time      0.0841
    SETDIJ:  cpu time      0.2702: real time      0.2709
    EDDIAG:  cpu time      3.5915: real time      3.6047
  RMM-DIIS:  cpu time     15.7295: real time     15.7869
    ORTHCH:  cpu time      0.5612: real time      0.5631
       DOS:  cpu time      0.0020: real time      0.0020
    CHARGE:  cpu time      0.5839: real time      0.5865
    MIXING:  cpu time      0.0013: real time      0.0013
    --------------------------------------------
      LOOP:  cpu time     20.8103: real time     20.8996

 eigenvalue-minimisations  : 41158
 total energy-change (2. order) :-0.4803742E+00  (-0.2955413E+00)
 number of electron     159.9999795 magnetization      -0.0000000
 augmentation part       58.5323177 magnetization      -0.0000000

 Broyden mixing:
  rms(total) = 0.40510E+00    rms(broyden)= 0.40490E+00
  rms(prec ) = 0.53680E+00
  weight for this iteration     100.00

 eigenvalues of (default mixing * dielectric matrix)
  average eigenvalue GAMMA=   0.7032
  0.3188  0.8954  0.8954

 Free energy of the ion-electron system (eV)
  ---------------------------------------------------
  alpha Z        PSCENC =       872.68586007
  Ewald energy   TEWEN  =    -11760.29166674
  -Hartree energ DENC   =     -8551.82354564
  -exchange      EXHF   =         0.00000000
  -V(xc)+E(xc)   XCENC  =       560.60710592
  PAW double counting   =     15599.54497701   -16203.52464219
  entropy T*S    EENTRO =        -0.02609308
  eigenvalues    EBANDS =     -2319.08507002
  atomic energy  EATOM  =     21710.84102437
  Solvation  Ediel_sol  =         0.00000000
  ---------------------------------------------------
  free energy    TOTEN  =       -91.07205031 eV

  energy without entropy =      -91.04595723  energy(sigma->0) =      -91.05900377


--------------------------------------------------------------------------------------------------------




--------------------------------------- Iteration      1(   9)  ---------------------------------------


    POTLOK:  cpu time      0.0399: real time      0.0402
    SETDIJ:  cpu time      0.2722: real time      0.2729
    EDDIAG:  cpu time      3.6370: real time      3.6517
  RMM-DIIS:  cpu time     17.1587: real time     17.2220
    ORTHCH:  cpu time      0.5679: real time      0.5701
       DOS:  cpu time      0.0021: real time      0.0021
    CHARGE:  cpu time      0.6057: real time      0.6084
    MIXING:  cpu time      0.0013: real time      0.0013
    --------------------------------------------
      LOOP:  cpu time     22.2848: real time     22.3685

 eigenvalue-minimisations  : 45855
 total energy-change (2. order) :-0.5417144E-01  (-0.7550175E-01)
 number of electron     159.9999795 magnetization       0.0000000
 augmentation part       58.8051965 magnetization       0.0000000

 Broyden mixing:
  rms(total) = 0.22082E+00    rms(broyden)= 0.22064E+00
  rms(prec ) = 0.27359E+00
  weight for this iteration     100.00

 eigenvalues of (default mixing * dielectric matrix)
  average eigenvalue GAMMA=   0.9293
  0.3160  1.3299  1.3299  0.7414

 Free energy of the ion-electron system (eV)
  ---------------------------------------------------
  alpha Z        PSCENC =       872.68586007
  Ewald energy   TEWEN  =    -11760.29166674
  -Hartree energ DENC   =     -8538.93022258
  -exchange      EXHF   =         0.00000000
  -V(xc)+E(xc)   XCENC  =       560.73595730
  PAW double counting   =     15700.09368312   -16310.43211188
  entropy T*S    EENTRO =        -0.02226071
  eigenvalues    EBANDS =     -2325.80648468
  atomic energy  EATOM  =     21710.84102437
  Solvation  Ediel_sol  =         0.00000000
  ---------------------------------------------------
  free energy    TOTEN  =       -91.12622174 eV

  energy without entropy =      -91.10396103  energy(sigma->0) =      -91.11509139


--------------------------------------------------------------------------------------------------------




--------------------------------------- Iteration      1(  10)  ---------------------------------------


    POTLOK:  cpu time      0.0411: real time      0.0704
    SETDIJ:  cpu time      0.2723: real time      0.2734
    EDDIAG:  cpu time      3.6838: real time      3.6974
  RMM-DIIS:  cpu time     17.5539: real time     17.6178
    ORTHCH:  cpu time      0.5555: real time      0.5575
       DOS:  cpu time      0.0020: real time      0.0020
    CHARGE:  cpu time      0.5681: real time      0.5704
    MIXING:  cpu time      0.0015: real time      0.0015
    --------------------------------------------
      LOOP:  cpu time     22.6782: real time     22.7905

 eigenvalue-minimisations  : 45527
 total energy-change (2. order) :-0.2410440E-02  (-0.2002262E-01)
 number of electron     159.9999795 magnetization       0.0000000
 augmentation part       58.9774713 magnetization       0.0000000

 Broyden mixing:
  rms(total) = 0.90086E-01    rms(broyden)= 0.89966E-01
  rms(prec ) = 0.10087E+00
  weight for this iteration     100.00

 eigenvalues of (default mixing * dielectric matrix)
  average eigenvalue GAMMA=   1.0741
  2.3699  0.3159  0.9977  0.9977  0.6893

 Free energy of the ion-electron system (eV)
  ---------------------------------------------------
  alpha Z        PSCENC =       872.68586007
  Ewald energy   TEWEN  =    -11760.29166674
  -Hartree energ DENC   =     -8531.75085366
  -exchange      EXHF   =         0.00000000
  -V(xc)+E(xc)   XCENC  =       560.81902422
  PAW double counting   =     15784.59557485   -16399.47736187
  entropy T*S    EENTRO =        -0.02025573
  eigenvalues    EBANDS =     -2328.52997769
  atomic energy  EATOM  =     21710.84102437
  Solvation  Ediel_sol  =         0.00000000
  ---------------------------------------------------
  free energy    TOTEN  =       -91.12863218 eV

  energy without entropy =      -91.10837645  energy(sigma->0) =      -91.11850432


--------------------------------------------------------------------------------------------------------




--------------------------------------- Iteration      1(  11)  ---------------------------------------


    POTLOK:  cpu time      0.0700: real time      0.0874
    SETDIJ:  cpu time      0.2740: real time      0.2747
    EDDIAG:  cpu time      3.4851: real time      3.4992
  RMM-DIIS:  cpu time     16.4523: real time     16.5139
    ORTHCH:  cpu time      0.5694: real time      0.5713
       DOS:  cpu time      0.0021: real time      0.0021
    CHARGE:  cpu time      0.5974: real time      0.5999
    MIXING:  cpu time      0.0016: real time      0.0016
    --------------------------------------------
      LOOP:  cpu time     21.4519: real time     21.5501

 eigenvalue-minimisations  : 43877
 total energy-change (2. order) :-0.8024165E-02  (-0.3937911E-02)
 number of electron     159.9999795 magnetization       0.0000000
 augmentation part       58.9810370 magnetization       0.0000000

 Broyden mixing:
  rms(total) = 0.33157E-01    rms(broyden)= 0.33139E-01
  rms(prec ) = 0.37014E-01
  weight for this iteration     100.00

 eigenvalues of (default mixing * dielectric matrix)
  average eigenvalue GAMMA=   1.1027
  2.1619  1.6617  0.3159  0.9720  0.8556  0.6491

 Free energy of the ion-electron system (eV)
  ---------------------------------------------------
  alpha Z        PSCENC =       872.68586007
  Ewald energy   TEWEN  =    -11760.29166674
  -Hartree energ DENC   =     -8530.18903556
  -exchange      EXHF   =         0.00000000
  -V(xc)+E(xc)   XCENC  =       560.87560107
  PAW double counting   =     15825.14387834   -16441.74664977
  entropy T*S    EENTRO =        -0.02075161
  eigenvalues    EBANDS =     -2328.43491651
  atomic energy  EATOM  =     21710.84102437
  Solvation  Ediel_sol  =         0.00000000
  ---------------------------------------------------
  free energy    TOTEN  =       -91.13665635 eV

  energy without entropy =      -91.11590473  energy(sigma->0) =      -91.12628054


--------------------------------------------------------------------------------------------------------




--------------------------------------- Iteration      1(  12)  ---------------------------------------


    POTLOK:  cpu time      0.0411: real time      0.0414
    SETDIJ:  cpu time      0.2698: real time      0.2706
    EDDIAG:  cpu time      3.6894: real time      3.7026
  RMM-DIIS:  cpu time     16.2367: real time     16.2949
    ORTHCH:  cpu time      0.5695: real time      0.5714
       DOS:  cpu time      0.0020: real time      0.0020
    CHARGE:  cpu time      0.6176: real time      0.6213
    MIXING:  cpu time      0.0016: real time      0.0016
    --------------------------------------------
      LOOP:  cpu time     21.4278: real time     21.5058

 eigenvalue-minimisations  : 41572
 total energy-change (2. order) :-0.3109760E-02  (-0.8861186E-03)
 number of electron     159.9999795 magnetization       0.0000000
 augmentation part       58.9742515 magnetization       0.0000000

 Broyden mixing:
  rms(total) = 0.16988E-01    rms(broyden)= 0.16973E-01
  rms(prec ) = 0.20602E-01
  weight for this iteration     100.00

 eigenvalues of (default mixing * dielectric matrix)
  average eigenvalue GAMMA=   1.0970
  2.4233  1.4702  0.3159  1.0396  1.0396  0.7537  0.6364

 Free energy of the ion-electron system (eV)
  ---------------------------------------------------
  alpha Z        PSCENC =       872.68586007
  Ewald energy   TEWEN  =    -11760.29166674
  -Hartree energ DENC   =     -8530.84000246
  -exchange      EXHF   =         0.00000000
  -V(xc)+E(xc)   XCENC  =       560.88482878
  PAW double counting   =     15825.88106406   -16442.30246661
  entropy T*S    EENTRO =        -0.02118777
  eigenvalues    EBANDS =     -2327.97721979
  atomic energy  EATOM  =     21710.84102437
  Solvation  Ediel_sol  =         0.00000000
  ---------------------------------------------------
  free energy    TOTEN  =       -91.13976611 eV

  energy without entropy =      -91.11857833  energy(sigma->0) =      -91.12917222


--------------------------------------------------------------------------------------------------------




--------------------------------------- Iteration      1(  13)  ---------------------------------------


    POTLOK:  cpu time      0.0405: real time      0.0761
    SETDIJ:  cpu time      0.2743: real time      0.2751
    EDDIAG:  cpu time      3.6894: real time      3.7046
  RMM-DIIS:  cpu time     10.9689: real time     11.0088
    ORTHCH:  cpu time      0.5572: real time      0.5591
       DOS:  cpu time      0.0020: real time      0.0020
    --------------------------------------------
      LOOP:  cpu time     15.5323: real time     15.6257

 eigenvalue-minimisations  : 28292
 total energy-change (2. order) : 0.1097846E-03  (-0.1775039E-03)
 number of electron     159.9999795 magnetization       0.0000000
 augmentation part       58.9742515 magnetization       0.0000000

 Free energy of the ion-electron system (eV)
  ---------------------------------------------------
  alpha Z        PSCENC =       872.68586007
  Ewald energy   TEWEN  =    -11760.29166674
  -Hartree energ DENC   =     -8531.28993965
  -exchange      EXHF   =         0.00000000
  -V(xc)+E(xc)   XCENC  =       560.90559636
  PAW double counting   =     15826.18868135   -16442.45209362
  entropy T*S    EENTRO =        -0.02108607
  eigenvalues    EBANDS =     -2327.70603238
  atomic energy  EATOM  =     21710.84102437
  Solvation  Ediel_sol  =         0.00000000
  ---------------------------------------------------
  free energy    TOTEN  =       -91.13965632 eV

  energy without entropy =      -91.11857025  energy(sigma->0) =      -91.12911329


--------------------------------------------------------------------------------------------------------




 average (electrostatic) potential at core
  the test charge radii are     0.9500  1.0808
  (the norm of the test charge is              1.0000)
       1 -46.6736       2 -46.6736       3 -46.6736       4 -46.6736       5 -46.6736
       6 -46.6736       7 -46.6736       8 -46.6736       9 -54.4501      10 -54.4501
      11 -54.4501      12 -54.4501      13 -54.4501      14 -54.4501      15 -54.4501
      16 -54.4501
 
 
 
 E-fermi :   4.4436     XC(G=0): -10.8081     alpha+bet : -9.9991

 Fermi energy:         4.4436323613

 spin component 1

 k-point     1 :       0.0000    0.0000    0.0000
  band No.  band energies     occupation 
      1     -50.2215      1.00000
      2     -50.2095      1.00000
      3     -50.2095      1.00000
      4     -50.2014      1.00000
      5     -50.1511      1.00000
      6     -50.0561      1.00000
      7     -50.0474      1.00000
      8     -50.0474      1.00000
      9     -50.0357      1.00000
     10     -49.9629      1.00000
     11     -49.9629      1.00000
     12     -49.7714      1.00000
     13     -47.5661      1.00000
     14     -47.5634      1.00000
     15     -47.5634      1.00000
     16     -47.5623      1.00000
     17     -47.5458      1.00000
     18     -47.3388      1.00000
     19     -47.3388      1.00000
     20     -47.1925      1.00000
     21     -47.1924      1.00000
     22     -47.1924      1.00000
     23     -47.1890      1.00000
     24     -47.1276      1.00000
     25     -10.3019      1.00000
     26      -8.9256      1.00000
     27      -8.9256      1.00000
     28      -8.9108      1.00000
     29      -8.9108      1.00000
     30      -8.6327      1.00000
     31      -8.3408      1.00000
     32      -8.1256      1.00000
     33      -1.9741      1.00000
     34      -1.7184      1.00000
     35      -0.8066      1.00000
     36      -0.8066      1.00000
     37      -0.7366      1.00000
     38      -0.7366      1.00000
     39      -0.4333      1.00000
     40      -0.1626      1.00000
     41       0.1078      1.00000
     42       0.2523      1.00000
     43       0.3380      1.00000
     44       0.3380      1.00000
     45       0.3856      1.00000
     46       0.3918      1.00000
     47       0.3918      1.00000
     48       0.6278      1.00000
     49       0.8659      1.00000
     50       0.9887      1.00000
     51       0.9887      1.00000
     52       1.4108      1.00000
     53       1.4108      1.00000
     54       1.5844      1.00000
     55       1.7501      1.00000
     56       1.7788      1.00000
     57       2.0653      1.00000
     58       2.0653      1.00000
     59       2.1030      1.00000
     60       2.1195      1.00000
     61       2.1195      1.00000
     62       2.2089      1.00000
     63       2.3420      1.00000
     64       2.3968      1.00000
     65       2.6536      1.00000
     66       2.6536      1.00000
     67       2.7326      1.00000
     68       2.8985      1.00000
     69       2.9457      1.00000
     70       3.0168      1.00000
     71       3.0592      1.00000
     72       3.0592      1.00000
     73       3.6786      1.00000
     74       3.6786      1.00000
     75       3.7857      1.00000
     76       3.7857      1.00000
     77       3.8745      1.00000
     78       4.0603      1.00000
     79       4.1855      1.00000
     80       4.2199      1.00000
     81       4.5673      0.00023
     82       4.8928      0.00000
     83       4.8928      0.00000
     84       4.9270      0.00000
     85       4.9271      0.00000
     86       4.9847      0.00000
     87       5.1778      0.00000
     88       5.2721      0.00000
     89       5.2723      0.00000
     90       5.3054      0.00000
     91       5.3054      0.00000
     92       5.5430      0.00000
     93       5.8537      0.00000
     94       5.9705      0.00000
     95       5.9931      0.00000
     96       6.0367      0.00000
     97       6.7632      0.00000
     98       6.7817      0.00000
     99       7.1262      0.00000
    100       7.9108      0.00000

 k-point     2 :       0.1429   -0.0000    0.0000
  band No.  band energies     occupation 
      1     -50.2212      1.00000
      2     -50.2119      1.00000
      3     -50.2073      1.00000
      4     -50.2016      1.00000
      5     -50.1464      1.00000
      6     -50.0559      1.00000
      7     -50.0496      1.00000
      8     -50.0450      1.00000
      9     -50.0361      1.00000
     10     -50.0051      1.00000
     11     -49.9206      1.00000
     12     -49.7762      1.00000
     13     -47.5660      1.00000
     14     -47.5638      1.00000
     15     -47.5630      1.00000
     16     -47.5623      1.00000
     17     -47.5406      1.00000
     18     -47.3852      1.00000
     19     -47.2922      1.00000
     20     -47.1927      1.00000
     21     -47.1925      1.00000
     22     -47.1919      1.00000
     23     -47.1891      1.00000
     24     -47.1330      1.00000
     25     -10.2658      1.00000
     26      -9.2046      1.00000
     27      -8.9334      1.00000
     28      -8.8646      1.00000
     29      -8.6597      1.00000
     30      -8.6536      1.00000
     31      -8.3676      1.00000
     32      -8.1320      1.00000
     33      -1.9243      1.00000
     34      -1.6385      1.00000
     35      -0.8124      1.00000
     36      -0.7998      1.00000
     37      -0.7609      1.00000
     38      -0.7115      1.00000
     39      -0.4912      1.00000
     40      -0.1516      1.00000
     41       0.1020      1.00000
     42       0.1756      1.00000
     43       0.3066      1.00000
     44       0.3423      1.00000
     45       0.4048      1.00000
     46       0.4223      1.00000
[...]
         0         1         2         3         4         5         6         7         8         9
 total charge-density along one line
 
 soft charge-density along one line, spin component           2
         0         1         2         3         4         5         6         7         8         9
 total charge-density along one line
 
 pseudopotential strength for first ion, spin component:           1
-54.623   0.030  -0.000  27.932  -0.025   0.000  -0.000  -0.000
  0.030 -54.698   0.000  -0.025  27.988  -0.000   0.000   0.000
 -0.000   0.000 -54.538   0.000  -0.000  27.863   0.000   0.000
 27.932  -0.025   0.000  -9.833   0.018  -0.000   0.000   0.000
 -0.025  27.988  -0.000   0.018  -9.871   0.000  -0.000  -0.000
  0.000  -0.000  27.863  -0.000   0.000  -9.787  -0.000  -0.000
 -0.000   0.000   0.000   0.000  -0.000  -0.000  -8.445   0.000
 -0.000   0.000   0.000   0.000  -0.000  -0.000   0.000  -8.260
 -0.000  -0.000   0.000   0.000   0.000  -0.000   0.000  -0.044
  0.000  -0.000  -0.000  -0.000   0.000   0.000  -0.041  -0.000
 -0.000   0.000  -0.000   0.000  -0.000   0.000  -0.000  -0.100
  0.000  -0.000  -0.000  -0.000   0.000   0.000  -0.172  -0.000
  0.000  -0.000  -0.000  -0.000   0.000   0.000  -0.000  -0.217
  0.000   0.000  -0.000  -0.000  -0.000   0.000  -0.000   0.011
 -0.000   0.000   0.000   0.000  -0.000  -0.000   0.009   0.000
  0.000  -0.000   0.000  -0.000   0.000  -0.000   0.000   0.024
 -0.000   0.000   0.000   0.000  -0.000  -0.000   0.000  -0.008
  0.000  -0.000  -0.000  -0.000   0.000   0.000  -0.000   0.001
 pseudopotential strength for first ion, spin component:           2
-52.551   0.103  -0.000  26.346  -0.074   0.000  -0.000  -0.000
  0.103 -52.578   0.000  -0.074  26.366  -0.000   0.000   0.000
 -0.000   0.000 -52.529   0.000  -0.000  26.322   0.000   0.000
 26.346  -0.074   0.000  -8.713   0.055  -0.000   0.000   0.000
 -0.074  26.366  -0.000   0.055  -8.727   0.000  -0.000  -0.000
  0.000  -0.000  26.322  -0.000   0.000  -8.698  -0.000  -0.000
 -0.000   0.000   0.000   0.000  -0.000  -0.000  -6.379   0.000
 -0.000   0.000   0.000   0.000  -0.000  -0.000   0.000  -6.735
 -0.000  -0.000   0.000   0.000   0.000  -0.000   0.000   0.112
  0.000  -0.000  -0.000  -0.000   0.000   0.000   0.114  -0.000
 -0.000   0.000  -0.000   0.000  -0.000   0.000  -0.000   0.025
  0.000  -0.000  -0.000  -0.000   0.000   0.000  -0.655  -0.000
  0.000  -0.000  -0.000  -0.000   0.000   0.000  -0.000  -0.572
  0.000   0.000  -0.000  -0.000  -0.000   0.000  -0.000  -0.024
 -0.000   0.000   0.000   0.000  -0.000  -0.000  -0.025   0.000
  0.000  -0.000   0.000  -0.000   0.000  -0.000   0.000  -0.007
 -0.000   0.000   0.000   0.000  -0.000  -0.000   0.000  -0.013
  0.000  -0.000  -0.000  -0.000   0.000   0.000  -0.000   0.003
 total augmentation occupancy for first ion, spin component:           1
  2.011  -0.018  -0.000   0.058  -0.044   0.000  -0.000   0.000  -0.000   0.000   0.000   0.000   0.000  -0.000   0.000   0.000
 -0.018   2.014  -0.000  -0.044   0.068   0.000  -0.000   0.000  -0.000  -0.000   0.000   0.000   0.000   0.000  -0.000  -0.000
 -0.000   0.000   2.011  -0.000   0.000   0.055   0.000   0.000  -0.000   0.000   0.000   0.000   0.000   0.000   0.000   0.000
  0.058  -0.044   0.000   0.198  -0.106  -0.000   0.000  -0.000  -0.000   0.000  -0.000  -0.000  -0.000   0.000  -0.000  -0.000
 -0.044   0.068   0.000  -0.106   0.221  -0.000  -0.000   0.000  -0.000   0.000  -0.000  -0.000   0.000  -0.000   0.000   0.000
  0.000   0.000   0.055   0.000   0.000   0.182   0.000   0.000   0.000   0.000   0.000  -0.000   0.000  -0.000   0.000  -0.000
 -0.000  -0.000   0.000   0.000  -0.000   0.000   1.260  -0.000   0.000  -0.101   0.000  -0.058  -0.000   0.000  -0.058  -0.000
 -0.000  -0.000   0.000  -0.000  -0.000   0.000   0.000   1.462  -0.024   0.000  -0.096  -0.000   0.099  -0.150   0.000   0.092
  0.000  -0.000  -0.000   0.000   0.000   0.000   0.000  -0.024   1.302   0.000  -0.139  -0.000  -0.151   0.086   0.000  -0.081
  0.000  -0.000  -0.000   0.000   0.000  -0.000  -0.101  -0.000   0.000   1.265   0.000  -0.059  -0.000   0.000  -0.030  -0.000
  0.000  -0.000   0.000   0.000   0.000   0.000  -0.000  -0.096  -0.139   0.000   1.511   0.000   0.096  -0.079   0.000   0.173
  0.000   0.000  -0.000  -0.000  -0.000  -0.000  -0.058  -0.000  -0.000  -0.059   0.000   0.171   0.000   0.000  -0.026  -0.000
  0.000  -0.000   0.000   0.000   0.000   0.000  -0.000   0.099  -0.151  -0.000   0.096   0.000   0.250  -0.074   0.000   0.091
  0.000   0.000   0.000   0.000  -0.000  -0.000   0.000  -0.150   0.086  -0.000  -0.079   0.000  -0.074   0.175  -0.000  -0.016
  0.000  -0.000  -0.000  -0.000   0.000  -0.000  -0.058   0.000   0.000  -0.030  -0.000  -0.026   0.000  -0.000   0.164  -0.000
 -0.000   0.000   0.000  -0.000   0.000  -0.000  -0.000   0.092  -0.081  -0.000   0.173   0.000   0.091  -0.016   0.000   0.143
  0.000   0.000   0.000   0.000   0.000   0.000   0.000  -0.006  -0.047   0.000   0.090   0.000  -0.317   0.028   0.000  -0.005
  0.000  -0.000   0.000   0.000  -0.000   0.000   0.000   0.004   0.022   0.000  -0.013   0.000   0.022  -0.006  -0.000   0.003
 total augmentation occupancy for first ion, spin component:           2
 -0.005   0.000   0.000  -0.002  -0.000  -0.000  -0.000  -0.000  -0.000   0.000   0.000   0.000  -0.000  -0.000   0.000   0.000
  0.000  -0.007  -0.000  -0.000  -0.007   0.000   0.000   0.000   0.000   0.000  -0.000  -0.000   0.000   0.000   0.000  -0.000
  0.000   0.000  -0.007  -0.000   0.000  -0.004  -0.000  -0.000  -0.000  -0.000  -0.000   0.000  -0.000  -0.000   0.000   0.000
 -0.002  -0.000   0.000   0.014  -0.002   0.000   0.000   0.000   0.000   0.000   0.000   0.000   0.000  -0.000   0.000   0.000
 -0.000  -0.007   0.000  -0.002   0.002   0.000   0.000   0.000  -0.000  -0.000   0.000  -0.000  -0.000   0.000  -0.000   0.000
  0.000  -0.000  -0.004   0.000   0.000   0.012  -0.000  -0.000  -0.000   0.000  -0.000  -0.000   0.000   0.000  -0.000  -0.000
 -0.000   0.000  -0.000   0.000   0.000   0.000   0.689  -0.000   0.000   0.121   0.000  -0.270   0.000  -0.000   0.004  -0.000
 -0.000  -0.000  -0.000   0.000   0.000  -0.000   0.000   0.377   0.123   0.000   0.049  -0.000  -0.192  -0.011  -0.000  -0.030
  0.000   0.000  -0.000   0.000   0.000  -0.000  -0.000   0.123   0.527   0.000   0.177   0.000  -0.009  -0.208   0.000  -0.023
  0.000   0.000   0.000   0.000  -0.000  -0.000   0.121   0.000  -0.000   0.659   0.000   0.006  -0.000   0.000  -0.264   0.000
  0.000   0.000  -0.000  -0.000  -0.000  -0.000   0.000   0.049   0.177   0.000   0.238   0.000  -0.017  -0.017   0.000  -0.147
  0.000  -0.000  -0.000   0.000  -0.000  -0.000  -0.270   0.000   0.000   0.006  -0.000   0.053   0.000  -0.000   0.006   0.000
 -0.000   0.000  -0.000   0.000   0.000   0.000  -0.000  -0.192  -0.009   0.000  -0.017   0.000   0.007   0.026  -0.000  -0.002
  0.000   0.000  -0.000  -0.000   0.000   0.000   0.000  -0.011  -0.208   0.000  -0.017   0.000   0.026   0.006  -0.000   0.007
  0.000   0.000  -0.000   0.000  -0.000   0.000   0.004  -0.000  -0.000  -0.264   0.000   0.006   0.000  -0.000   0.036  -0.000
  0.000   0.000   0.000   0.000  -0.000  -0.000  -0.000  -0.030  -0.023   0.000  -0.147  -0.000  -0.002   0.007   0.000  -0.018
 -0.000  -0.000   0.000   0.000   0.000   0.000   0.000   0.117   0.030   0.000  -0.046   0.000  -0.031   0.003   0.000  -0.023
  0.000   0.000   0.000   0.000   0.000   0.000  -0.000   0.018   0.018   0.000  -0.016  -0.000  -0.003  -0.003  -0.000  -0.000


------------------------ aborting loop because EDIFF is reached ----------------------------------------





 total charge

# of ion       s       p       d       tot
------------------------------------------
    1        0.347   6.304   6.098  12.748
    2        0.347   6.304   6.098  12.748
    3        0.347   6.304   6.098  12.748
    4        0.347   6.304   6.098  12.748
    5        0.347   6.304   6.098  12.748
    6        0.347   6.304   6.098  12.748
    7        0.347   6.304   6.098  12.748
    8        0.347   6.304   6.098  12.748
    9        1.494   2.255   0.061   3.810
   10        1.494   2.255   0.061   3.810
   11        1.494   2.255   0.061   3.810
   12        1.494   2.255   0.061   3.810
   13        1.494   2.255   0.061   3.810
   14        1.494   2.255   0.061   3.810
   15        1.494   2.255   0.061   3.810
   16        1.494   2.255   0.061   3.810
--------------------------------------------------
tot         14.725  68.469  49.271 132.465



 magnetization (x)

# of ion       s       p       d       tot
------------------------------------------
    1        0.026   0.014   2.425   2.466
    2       -0.026  -0.014  -2.425  -2.466
    3       -0.026  -0.014  -2.425  -2.466
    4        0.026   0.014   2.425   2.466
    5        0.026   0.014   2.425   2.466
    6       -0.026  -0.014  -2.425  -2.466
    7       -0.026  -0.014  -2.425  -2.466
    8        0.026   0.014   2.425   2.466
    9        0.000   0.000   0.000   0.000
   10        0.000   0.000   0.000   0.000
   11        0.000   0.000   0.000   0.000
   12        0.000   0.000   0.000   0.000
   13        0.000   0.000   0.000   0.000
   14        0.000   0.000   0.000   0.000
   15        0.000   0.000   0.000   0.000
   16        0.000   0.000   0.000   0.000
--------------------------------------------------
tot          0.000   0.000   0.000   0.000
 
    CHARGE:  cpu time      0.5609: real time      0.5638
    FORLOC:  cpu time      0.0022: real time      0.0023
    FORNL :  cpu time      4.9868: real time      5.0032
    STRESS:  cpu time     15.5508: real time     15.6046
    FORCOR:  cpu time      0.0397: real time      0.0398
    FORHAR:  cpu time      0.0055: real time      0.0055
    MIXING:  cpu time      0.0013: real time      0.0013
    OFIELD:  cpu time      0.0000: real time      0.0000
    FORVDW:  cpu time      0.8084: real time      0.8106

  FORCE on cell =-STRESS in cart. coord.  units (eV):
  Direction    XX          YY          ZZ          XY          YZ          ZX
  --------------------------------------------------------------------------------------
  Alpha Z   872.68586   872.68586   872.68586
  Ewald   -1392.26838 -2167.52640 -8246.70524     0.00000    -0.00000    -0.00000
  Hartree  5155.27100  4461.71650 -1125.05651     0.00000     0.00000    -0.00000
  E(xc)    -897.62019  -899.93277  -898.98277     0.00000     0.00000    -0.00000
  Local   -5686.48434 -4229.25696  7469.06850     0.00000     0.00000    -0.00000
  n-local  -277.13483  -249.67321  -241.74633    -0.72882    -0.38188    -0.76131
  augment   529.19425   515.91773   512.20815     0.00000     0.00000     0.00000
  Kinetic  1706.04020  1706.39981  1669.42404     3.76430    -0.17981     0.56858
  Fock        0.00000     0.00000     0.00000     0.00000     0.00000     0.00000
  vdW        -6.62880    -6.66746    -6.94209     0.00000     0.00000     0.00000
  -------------------------------------------------------------------------------------
  Total       3.05478     3.66309     3.95361     0.00000     0.00000     0.00000
  in kB      16.81889    20.16812    21.76766     0.00000     0.00000     0.00000
  external pressure =       19.58 kB  Pullay stress =        0.00 kB


 VOLUME and BASIS-vectors are now :
 -----------------------------------------------------------------------------
  energy-cutoff  :      550.00
  volume of cell :      291.00
      direct lattice vectors                 reciprocal lattice vectors
     4.765928143 -5.560049810  0.000000000     0.104911359 -0.089927252  0.000000000
     4.765928143  5.560049810 -0.000000000     0.104911359  0.089927252 -0.000000000
     0.000000000  0.000000000  5.490815120    -0.000000000  0.000000000  0.182122322

  length of vectors
     7.323129451  7.323129451  5.490815120     0.138178522  0.138178522  0.182122322


 FORCES acting on ions
    electron-ion (+dipol)            ewald-force                    non-local-force                 convergence-correction
 -----------------------------------------------------------------------------------------------
   -.369E-12 0.672E-14 0.128E-13   0.426E-13 -.249E-13 0.142E-13   -.190E-21 -.472E-22 0.671E-22   0.156E-11 0.787E-12 0.128E-12
   0.925E-12 0.151E-11 0.338E-13   0.420E-13 -.249E-13 0.284E-13   -.116E-21 -.216E-22 0.101E-22   0.734E-12 -.289E-11 0.224E-11
   0.905E-12 0.536E-12 0.349E-10   0.442E-13 -.284E-13 0.568E-13   0.803E-22 -.121E-22 0.408E-22   -.240E-12 0.145E-11 -.240E-11
   0.706E-11 0.957E-11 0.156E-10   0.426E-13 -.284E-13 0.284E-13   -.703E-22 0.102E-21 -.219E-22   -.199E-11 0.156E-11 0.691E-13
   0.500E-11 0.412E-11 0.726E-11   -.879E-13 -.249E-13 -.231E-13   0.126E-21 -.366E-22 -.461E-22   -.530E-12 0.162E-12 -.137E-12
   -.358E-12 -.335E-11 0.780E-11   -.711E-13 0.107E-13 -.142E-13   -.102E-21 0.422E-22 0.275E-22   0.187E-12 -.705E-13 -.109E-12
   -.208E-10 -.253E-10 -.459E-10   -.711E-13 -.391E-13 -.711E-14   0.113E-21 0.195E-22 0.996E-23   -.109E-11 -.193E-11 -.106E-11
   0.135E-11 0.456E-11 -.442E-10   -.567E-13 -.284E-13 -.284E-13   0.180E-21 0.124E-21 0.282E-22   0.871E-13 0.144E-11 0.182E-11
   -.155E-07 0.287E-11 0.308E+03   -.205E-15 0.213E-13 -.308E+03   -.867E-17 -.277E-17 0.102E+01   0.240E-12 -.227E-12 -.825E-01
   -.155E-07 0.920E-12 0.308E+03   0.000E+00 0.210E-13 -.308E+03   0.819E-17 0.595E-17 0.102E+01   0.197E-12 -.585E-13 -.825E-01
   -.155E-07 0.378E-11 0.308E+03   0.000E+00 -.772E-14 -.308E+03   -.965E-17 0.121E-17 0.102E+01   -.311E-12 0.172E-12 -.825E-01
   -.155E-07 0.120E-13 0.308E+03   0.215E-15 0.000E+00 -.308E+03   0.823E-17 -.415E-17 0.102E+01   -.115E-12 0.138E-12 -.825E-01
   0.155E-07 -.369E-12 -.308E+03   0.270E-13 0.600E-15 0.308E+03   -.123E-17 0.631E-17 -.102E+01   -.943E-13 0.392E-12 0.825E-01
   0.155E-07 -.209E-12 -.308E+03   0.285E-13 0.319E-13 0.308E+03   0.461E-18 0.413E-17 -.102E+01   -.569E-12 0.830E-13 0.825E-01
   0.155E-07 -.452E-12 -.308E+03   0.281E-13 0.330E-13 0.308E+03   -.133E-18 -.488E-17 -.102E+01   0.750E-12 0.100E-12 0.825E-01
   0.155E-07 -.194E-11 -.308E+03   0.294E-13 0.280E-13 0.308E+03   0.149E-17 -.169E-17 -.102E+01   -.124E-12 -.701E-12 0.825E-01
 -----------------------------------------------------------------------------------------------
   -.101E-10 -.378E-11 -.275E-10   -.217E-14 -.602E-13 0.000E+00   -.130E-17 0.412E-17 0.444E-15   -.131E-11 0.400E-12 0.734E-12
 
 
 POSITION                                       TOTAL-FORCE (eV/Angst)
 -----------------------------------------------------------------------------------
     -0.00000     -0.00000     -0.00000        -0.000000     -0.000000     -0.000000
      2.38296      2.78002     -0.00000        -0.000000     -0.000000     -0.000000
      2.38296     -2.78002     -0.00000        -0.000000     -0.000000     -0.000000
      4.76593     -0.00000     -0.00000        -0.000000     -0.000000     -0.000000
      2.38296     -0.00000     -0.00000        -0.000000     -0.000000     -0.000000
      4.76593      2.78002     -0.00000        -0.000000     -0.000000     -0.000000
      4.76593     -2.78002     -0.00000        -0.000000     -0.000000     -0.000000
      7.14889     -0.00000     -0.00000        -0.000000     -0.000000     -0.000000
      2.38296     -1.39001      3.67244         0.000000     -0.000000     -0.019165
      4.76593      1.39001      3.67244         0.000000     -0.000000     -0.019165
      4.76593     -4.17004      3.67244         0.000000     -0.000000     -0.019165
      7.14889     -1.39001      3.67244        -0.000000     -0.000000     -0.019165
      2.38296      1.39001      1.81837         0.000000      0.000000      0.019165
      4.76593      4.17004      1.81837        -0.000000      0.000000      0.019165
      4.76593     -1.39001      1.81837        -0.000000      0.000000      0.019165
      7.14889      1.39001      1.81837        -0.000000      0.000000      0.019165
 -----------------------------------------------------------------------------------
    total drift:                               -0.000000     -0.000000     -0.000000


--------------------------------------------------------------------------------------------------------



  FREE ENERGIE OF THE ION-ELECTRON SYSTEM (eV)
  ---------------------------------------------------
  free  energy   TOTEN  =       -98.39105386 eV

  energy  without entropy=      -98.36886047  energy(sigma->0) =      -98.37995717
 
 d Force = 0.1177072E-03[ 0.763E-04, 0.159E-03]  d Energy = 0.1806356E-03-0.629E-04
 d Force = 0.1228733E+01[ 0.123E+01, 0.123E+01]  d Ewald  =-0.1148715E+01 0.238E+01


--------------------------------------------------------------------------------------------------------


    POTLOK:  cpu time      0.3276: real time      0.3285


--------------------------------------------------------------------------------------------------------




--------------------------------------------------------------------------------------------------------


  
 reached required accuracy - stopping structural energy minimisation
     LOOP+:  cpu time     78.2466: real time     78.5997
    4ORBIT:  cpu time      0.0000: real time      0.0000



 total charge

# of ion       s       p       d       tot
------------------------------------------
    1        0.347   6.304   6.098  12.748
    2        0.347   6.304   6.098  12.748
    3        0.347   6.304   6.098  12.748
    4        0.347   6.304   6.098  12.748
    5        0.347   6.304   6.098  12.748
    6        0.347   6.304   6.098  12.748
    7        0.347   6.304   6.098  12.748
    8        0.347   6.304   6.098  12.748
    9        1.494   2.255   0.061   3.810
   10        1.494   2.255   0.061   3.810
   11        1.494   2.255   0.061   3.810
   12        1.494   2.255   0.061   3.810
   13        1.494   2.255   0.061   3.810
   14        1.494   2.255   0.061   3.810
   15        1.494   2.255   0.061   3.810
   16        1.494   2.255   0.061   3.810
--------------------------------------------------
tot         14.725  68.469  49.271 132.465



 magnetization (x)

# of ion       s       p       d       tot
------------------------------------------
    1        0.026   0.014   2.425   2.466
    2       -0.026  -0.014  -2.425  -2.466
    3       -0.026  -0.014  -2.425  -2.466
    4        0.026   0.014   2.425   2.466
    5        0.026   0.014   2.425   2.466
    6       -0.026  -0.014  -2.425  -2.466
    7       -0.026  -0.014  -2.425  -2.466
    8        0.026   0.014   2.425   2.466
    9        0.000   0.000   0.000   0.000
   10        0.000   0.000   0.000   0.000
   11        0.000   0.000   0.000   0.000
   12        0.000   0.000   0.000   0.000
   13        0.000   0.000   0.000   0.000
   14        0.000   0.000   0.000   0.000
   15        0.000   0.000   0.000   0.000
   16        0.000   0.000   0.000   0.000
--------------------------------------------------
tot          0.000   0.000   0.000   0.000
 

 total amount of memory used by VASP MPI-rank0   172440. kBytes
=======================================================================

   base      :      30000. kBytes
   nonlr-proj:      11350. kBytes
   fftplans  :       2458. kBytes
   grid      :      15239. kBytes
   one-center:        497. kBytes
   wavefun   :     112896. kBytes
 
  
  
 General timing and accounting informations for this job:
 ========================================================
  
                  Total CPU time used (sec):     1000.514
                            User time (sec):      998.281
                          System time (sec):        2.233
                         Elapsed time (sec):     1007.126
  
                   Maximum memory used (kb):      446884.
                   Average memory used (kb):          N/A
  
                          Minor page faults:       302701
                          Major page faults:            0
                 Voluntary context switches:        40054
