 vasp.6.4.1 05Apr23 (build Jun 01 2023 13:46:15) complex                        
  
 executed on             LinuxIFC date 2023.12.17  00:23:10
 running   20 mpi-ranks, on    5 nodes
 distrk:  each k-point on   20 cores,    1 groups
 distr:  one band on NCORE=   1 cores,   20 groups


--------------------------------------------------------------------------------------------------------


 INCAR:
   ALGO = Fast
   EDIFF = 0.0002
   ENCUT = 550
   IBRION = 2
   ISIF = 4
   ISMEAR = 0
   ISPIN = 2
   IVDW = 13
   LASPH = True
   LMAXMIX = 4
   LORBIT = 11
   LREAL = Auto
   LWAVE = False
   MAGMOM = 1*2.466 2*-2.466 2*2.466 2*-2.466 1*2.466 8*0.0
   NELM = 100
   NSW = 99
   PREC = Accurate
   SIGMA = 0.05

 POTCAR:   PAW_PBE Fe_pv 06Sep2000                
 POTCAR:   PAW_PBE Se 06Sep2000                   
 -----------------------------------------------------------------------------
|                                                                             |
|           W    W    AA    RRRRR   N    N  II  N    N   GGGG   !!!           |
|           W    W   A  A   R    R  NN   N  II  NN   N  G    G  !!!           |
|           W    W  A    A  R    R  N N  N  II  N N  N  G       !!!           |
|           W WW W  AAAAAA  RRRRR   N  N N  II  N  N N  G  GGG   !            |
|           WW  WW  A    A  R   R   N   NN  II  N   NN  G    G                |
|           W    W  A    A  R    R  N    N  II  N    N   GGGG   !!!           |
|                                                                             |
|     For optimal performance we recommend to set                             |
|       NCORE = 2 up to number-of-cores-per-socket                            |
|     NCORE specifies how many cores store one orbital (NPAR=cpu/NCORE).      |
|     This setting can greatly improve the performance of VASP for DFT.       |
|     The default, NCORE=1 might be grossly inefficient on modern             |
|     multi-core architectures or massively parallel machines. Do your        |
|     own testing! More info at https://www.vasp.at/wiki/index.php/NCORE      |
|     Unfortunately you need to use the default for GW and RPA                |
|     calculations (for HF NCORE is supported but not extensively tested      |
|     yet).                                                                   |
|                                                                             |
 -----------------------------------------------------------------------------

 POTCAR:   PAW_PBE Fe_pv 06Sep2000                
   VRHFIN =Fe:  3pd7s1                                                                              
   LEXCH  = PE                                                                                      
   EATOM  =  2456.8974 eV,  180.5769 Ry                                                             
                                                                                                    
   TITEL  = PAW_PBE Fe_pv 06Sep2000                                                                 
   LULTRA =        F    use ultrasoft PP ?                                                          
   IUNSCR =        1    unscreen: 0-lin 1-nonlin 2-no                                               
   RPACOR =    1.750    partial core radius                                                         
   POMASS =   55.847; ZVAL   =   14.000    mass and valenz                                          
   RCORE  =    2.200    outmost cutoff radius                                                       
   RWIGS  =    2.200; RWIGS  =    1.164    wigner-seitz radius (au A)                               
   ENMAX  =  293.238; ENMIN  =  219.929 eV                                                          
   RCLOC  =    1.701    cutoff for local pot                                                        
   LCOR   =        T    correct aug charges                                                         
   LPAW   =        T    paw PP                                                                      
   EAUG   =  578.342                                                                                
   DEXC   =    -.002                                                                                
   RMAX   =    2.693    core radius for proj-oper                                                   
   RAUG   =    1.300    factor for augmentation sphere                                              
   RDEP   =    2.296    radius for radial grids                                                     
   QCUT   =   -4.642; QGAM   =    9.285    optimization parameters                                  
                                                                                                    
   Description                                                                                      
     l     E      TYP  RCUT    TYP  RCUT                                                            
     1   .000     23  2.000                                                                         
     1  -.400     23  2.000                                                                         
     2   .000     23  2.200                                                                         
     2   .000     23  2.200                                                                         
     0   .000     23  2.000                                                                         
     0  2.000     23  2.000                                                                         
     3   .000      7   .000                                                                         
  local pseudopotential read in
  partial core-charges read in
  atomic valenz-charges read in
  non local Contribution for L=           1  read in
    real space projection operators read in
  non local Contribution for L=           1  read in
    real space projection operators read in
  non local Contribution for L=           2  read in
    real space projection operators read in
  non local Contribution for L=           2  read in
    real space projection operators read in
  non local Contribution for L=           0  read in
    real space projection operators read in
  non local Contribution for L=           0  read in
    real space projection operators read in
    PAW grid and wavefunctions read in
 
   number of l-projection  operators is LMAX  =           6
   number of lm-projection operators is LMMAX =          18
 
 POTCAR:   PAW_PBE Se 06Sep2000                   
   VRHFIN =Se: s2p4                                                                                 
   LEXCH  = PE                                                                                      
   EATOM  =   256.9644 eV,   18.8864 Ry                                                             
                                                                                                    
   TITEL  = PAW_PBE Se 06Sep2000                                                                    
   LULTRA =        F    use ultrasoft PP ?                                                          
   IUNSCR =        1    unscreen: 0-lin 1-nonlin 2-no                                               
   RPACOR =    1.900    partial core radius                                                         
   POMASS =   78.960; ZVAL   =    6.000    mass and valenz                                          
   RCORE  =    2.100    outmost cutoff radius                                                       
   RWIGS  =    2.200; RWIGS  =    1.164    wigner-seitz radius (au A)                               
   ENMAX  =  211.534; ENMIN  =  158.651 eV                                                          
   ICORE  =        3    local potential                                                             
   LCOR   =        T    correct aug charges                                                         
   LPAW   =        T    paw PP                                                                      
   EAUG   =  446.842                                                                                
   DEXC   =    -.031                                                                                
   RMAX   =    3.170    core radius for proj-oper                                                   
   RAUG   =    1.300    factor for augmentation sphere                                              
   RDEP   =    2.177    radius for radial grids                                                     
   QCUT   =   -3.943; QGAM   =    7.886    optimization parameters                                  
                                                                                                    
   Description                                                                                      
     l     E      TYP  RCUT    TYP  RCUT                                                            
     0   .000     23  2.100                                                                         
     0   .000     23  2.100                                                                         
     1   .000     23  2.100                                                                         
     1   .000     23  2.100                                                                         
     2   .000     23  2.100                                                                         
     3  -.100      7  2.100                                                                         
  local pseudopotential read in
  partial core-charges read in
  atomic valenz-charges read in
  non local Contribution for L=           0  read in
    real space projection operators read in
  non local Contribution for L=           0  read in
    real space projection operators read in
  non local Contribution for L=           1  read in
    real space projection operators read in
  non local Contribution for L=           1  read in
    real space projection operators read in
  non local Contribution for L=           2  read in
    real space projection operators read in
    PAW grid and wavefunctions read in
 
   number of l-projection  operators is LMAX  =           5
   number of lm-projection operators is LMMAX =          13
 
 Optimization of the real space projectors (new method)

 maximal supplied QI-value         = 17.01
 optimisation between [QCUT,QGAM] = [ 11.91, 23.98] = [ 39.69,161.04] Ry 
 Optimized for a Real-space Cutoff    1.45 Angstroem

   l    n(q)    QCUT    max X(q) W(low)/X(q) W(high)/X(q)  e(spline) 
   1     10    11.905     4.550    0.27E-05    0.11E-05    0.28E-07
   1     10    11.905     5.234    0.10E-04    0.61E-04    0.17E-06
   2      9    11.905     3.960    0.19E-04    0.73E-05    0.50E-07
   2      9    11.905    29.565    0.24E-03    0.51E-04    0.27E-06
   0     10    11.905    23.582    0.17E-04    0.10E-05    0.14E-07
   0     10    11.905    39.747    0.23E-04    0.68E-05    0.74E-07
 Optimization of the real space projectors (new method)

 maximal supplied QI-value         = 17.95
 optimisation between [QCUT,QGAM] = [ 11.85, 23.88] = [ 39.31,159.64] Ry 
 Optimized for a Real-space Cutoff    1.18 Angstroem

   l    n(q)    QCUT    max X(q) W(low)/X(q) W(high)/X(q)  e(spline) 
   0      8    11.849     6.499    0.17E-04    0.94E-05    0.89E-08
   0      8    11.849    52.623    0.21E-03    0.78E-04    0.81E-07
   1      8    11.849     4.229    0.79E-04    0.83E-04    0.23E-07
   1      8    11.849    29.991    0.12E-03    0.43E-03    0.14E-06
   2      7    11.849     3.719    0.22E-03    0.64E-04    0.38E-07
 PAW_PBE Fe_pv 06Sep2000                :
 energy of atom  1       EATOM=-2456.8974
 kinetic energy error for atom=    0.0060 (will be added to EATOM!!)
 PAW_PBE Se 06Sep2000                   :
 energy of atom  2       EATOM= -256.9644
 kinetic energy error for atom=    0.0007 (will be added to EATOM!!)
 
 
 POSCAR: Fe8 Se8
  positions in direct lattice
  velocities in cartesian coordinates
 exchange correlation table for  LEXCH =        8
   RHO(1)=    0.500       N(1)  =     2000
   RHO(2)=  100.500       N(2)  =     4000
 


--------------------------------------------------------------------------------------------------------


 ion  position               nearest neighbor table
   1  0.000  0.000  0.000-  11 2.29  14 2.29   5 2.38   8 2.38   7 2.78   6 2.78
   2  0.000  0.500  0.000-  12 2.29  13 2.29   6 2.38   7 2.38   5 2.78   8 2.78
   3  0.500  0.000  0.000-   9 2.29  16 2.29   6 2.38   7 2.38   5 2.78   8 2.78
   4  0.500  0.500  0.000-  10 2.29  15 2.29   5 2.38   8 2.38   7 2.78   6 2.78
   5  0.250  0.250  0.000-   9 2.29  13 2.29   1 2.38   4 2.38   3 2.78   2 2.78
   6  0.250  0.750  0.000-  10 2.29  14 2.29   2 2.38   3 2.38   1 2.78   4 2.78
   7  0.750  0.250  0.000-  11 2.29  15 2.29   2 2.38   3 2.38   1 2.78   4 2.78
   8  0.750  0.750  0.000-  12 2.29  16 2.29   1 2.38   4 2.38   3 2.78   2 2.78
   9  0.375  0.125  0.669-   3 2.29   5 2.29
  10  0.375  0.625  0.669-   4 2.29   6 2.29
  11  0.875  0.125  0.669-   1 2.29   7 2.29
  12  0.875  0.625  0.669-   2 2.29   8 2.29
  13  0.125  0.375  0.331-   2 2.29   5 2.29
  14  0.125  0.875  0.331-   1 2.29   6 2.29
  15  0.625  0.375  0.331-   4 2.29   7 2.29
  16  0.625  0.875  0.331-   3 2.29   8 2.29
 
  LATTYP: Found a base centered orthorhombic cell.
 ALAT       =     9.5318562862
 B/A-ratio  =     1.1666247671
 C/A-ratio  =     0.5760488781
  
  Lattice vectors:
  
 A1 = (   4.7659281431,  -5.5600498101,   0.0000000000)
 A2 = (   4.7659281431,   5.5600498101,   0.0000000000)
 A3 = (   0.0000000000,   0.0000000000,   5.4908151203)


Analysis of symmetry for initial positions (statically):
=====================================================================
 Subroutine PRICEL returns following result:
 
  LATTYP: Found a base centered orthorhombic cell.
 ALAT       =     4.7659281431
 B/A-ratio  =     1.1666247671
 C/A-ratio  =     1.1520977563
  
  Lattice vectors:
  
 A1 = (   2.3829640716,  -2.7800249051,   0.0000000000)
 A2 = (   2.3829640716,   2.7800249051,   0.0000000000)
 A3 = (   0.0000000000,   0.0000000000,   5.4908151203)
 
   4 primitive cells build up your supercell.
 

 Routine SETGRP: Setting up the symmetry group for a 
 base centered orthorhombic supercell.


 Subroutine GETGRP returns: Found  8 space group operations
 (whereof  4 operations were pure point group operations)
 out of a pool of  8 trial point group operations.


The static configuration has the point symmetry C_2h.
 The point group associated with its full space group is D_2h.


Analysis of symmetry for dynamics (positions and initial velocities):
=====================================================================
 Subroutine PRICEL returns following result:
 
  LATTYP: Found a base centered orthorhombic cell.
 ALAT       =     4.7659281431
 B/A-ratio  =     1.1666247671
 C/A-ratio  =     1.1520977563
  
  Lattice vectors:
  
 A1 = (   2.3829640716,  -2.7800249051,   0.0000000000)
 A2 = (   2.3829640716,   2.7800249051,   0.0000000000)
 A3 = (   0.0000000000,   0.0000000000,   5.4908151203)
 
   4 primitive cells build up your supercell.
 

 Routine SETGRP: Setting up the symmetry group for a 
 base centered orthorhombic supercell.


 Subroutine GETGRP returns: Found  8 space group operations
 (whereof  4 operations were pure point group operations)
 out of a pool of  8 trial point group operations.


The dynamic configuration has the point symmetry C_2h.
 The point group associated with its full space group is D_2h.


Analysis of structural, dynamic, and magnetic symmetry:
=====================================================================
 Subroutine PRICEL returns following result:
 
  LATTYP: Found a base centered orthorhombic cell.
 ALAT       =     4.7659281431
 B/A-ratio  =     1.1666247671
 C/A-ratio  =     1.1520977563
  
  Lattice vectors:
  
 A1 = (   2.3829640716,  -2.7800249051,   0.0000000000)
 A2 = (   2.3829640716,   2.7800249051,   0.0000000000)
 A3 = (   0.0000000000,   0.0000000000,   5.4908151203)
 
   4 primitive cells build up your supercell.
 

 Routine SETGRP: Setting up the symmetry group for a 
 base centered orthorhombic supercell.


 Subroutine GETGRP returns: Found  8 space group operations
 (whereof  4 operations were pure point group operations)
 out of a pool of  8 trial point group operations.


The overall configuration has the point symmetry C_2h.
 The point group associated with its full space group is D_2h.


 Subroutine INISYM returns: Found  8 space group operations
 (whereof  4 operations are pure point group operations),
 and found     4 'primitive' translations


----------------------------------------------------------------------------------------

                                     Primitive cell                                     

  volume of cell :      72.7500

  direct lattice vectors                    reciprocal lattice vectors
     2.382964072 -2.780024905  0.000000000     0.209822719 -0.179854504  0.000000000
     2.382964072  2.780024905  0.000000000     0.209822719  0.179854504  0.000000000
     0.000000000  0.000000000  5.490815120     0.000000000  0.000000000  0.182122322

  length of vectors
     3.661564726  3.661564726  5.490815120     0.276357044  0.276357044  0.182122322

  position of ions in fractional coordinates (direct lattice)
     0.000000000  0.000000000  0.000000000
     0.500000000  0.500000000  0.000000000
     0.750000000  0.250000000  0.668834167
     0.250000000  0.750000000  0.331165833

  ion indices of the primitive-cell ions
   primitive index   ion index
                 1           1
                 2           5
                 3          11
                 4          14

----------------------------------------------------------------------------------------

 
 
 KPOINTS: KPOINTS                                 

Automatic generation of k-mesh.
 Grid dimensions read from file:
 generate k-points for:    7    7    9

 Generating k-lattice:

  Cartesian coordinates                     Fractional coordinates (reciprocal lattice)
     0.014987337 -0.012846750  0.000000000     0.142857143  0.000000000  0.000000000
     0.014987337  0.012846750  0.000000000     0.000000000  0.142857143  0.000000000
     0.000000000  0.000000000  0.020235814     0.000000000  0.000000000  0.111111111

  Length of vectors
     0.019739789  0.019739789  0.020235814

  Shift w.r.t. Gamma in fractional coordinates (k-lattice)
     0.000000000  0.000000000  0.000000000

 
 Subroutine IBZKPT returns following result:
 ===========================================
 
 Found     80 irreducible k-points:
 
 Following reciprocal coordinates:
            Coordinates               Weight
  0.000000  0.000000  0.000000      1.000000
  0.142857 -0.000000  0.000000      4.000000
  0.285714 -0.000000  0.000000      4.000000
  0.428571 -0.000000  0.000000      4.000000
  0.142857  0.142857  0.000000      2.000000
  0.285714  0.142857  0.000000      4.000000
  0.428571  0.142857  0.000000      4.000000
 -0.428571  0.142857  0.000000      4.000000
 -0.285714  0.142857  0.000000      4.000000
 -0.142857  0.142857  0.000000      2.000000
  0.285714  0.285714  0.000000      2.000000
  0.428571  0.285714  0.000000      4.000000
 -0.428571  0.285714  0.000000      4.000000
 -0.285714  0.285714  0.000000      2.000000
  0.428571  0.428571  0.000000      2.000000
 -0.428571  0.428571  0.000000      2.000000
  0.000000  0.000000  0.111111      2.000000
  0.142857 -0.000000  0.111111      8.000000
  0.285714 -0.000000  0.111111      8.000000
  0.428571 -0.000000  0.111111      8.000000
  0.142857  0.142857  0.111111      4.000000
  0.285714  0.142857  0.111111      8.000000
  0.428571  0.142857  0.111111      8.000000
 -0.428571  0.142857  0.111111      8.000000
 -0.285714  0.142857  0.111111      8.000000
 -0.142857  0.142857  0.111111      4.000000
  0.285714  0.285714  0.111111      4.000000
  0.428571  0.285714  0.111111      8.000000
 -0.428571  0.285714  0.111111      8.000000
 -0.285714  0.285714  0.111111      4.000000
  0.428571  0.428571  0.111111      4.000000
 -0.428571  0.428571  0.111111      4.000000
  0.000000  0.000000  0.222222      2.000000
  0.142857 -0.000000  0.222222      8.000000
  0.285714 -0.000000  0.222222      8.000000
  0.428571 -0.000000  0.222222      8.000000
  0.142857  0.142857  0.222222      4.000000
  0.285714  0.142857  0.222222      8.000000
  0.428571  0.142857  0.222222      8.000000
 -0.428571  0.142857  0.222222      8.000000
 -0.285714  0.142857  0.222222      8.000000
 -0.142857  0.142857  0.222222      4.000000
  0.285714  0.285714  0.222222      4.000000
  0.428571  0.285714  0.222222      8.000000
 -0.428571  0.285714  0.222222      8.000000
 -0.285714  0.285714  0.222222      4.000000
  0.428571  0.428571  0.222222      4.000000
 -0.428571  0.428571  0.222222      4.000000
  0.000000  0.000000  0.333333      2.000000
  0.142857 -0.000000  0.333333      8.000000
  0.285714 -0.000000  0.333333      8.000000
  0.428571 -0.000000  0.333333      8.000000
  0.142857  0.142857  0.333333      4.000000
  0.285714  0.142857  0.333333      8.000000
  0.428571  0.142857  0.333333      8.000000
 -0.428571  0.142857  0.333333      8.000000
 -0.285714  0.142857  0.333333      8.000000
 -0.142857  0.142857  0.333333      4.000000
  0.285714  0.285714  0.333333      4.000000
  0.428571  0.285714  0.333333      8.000000
 -0.428571  0.285714  0.333333      8.000000
 -0.285714  0.285714  0.333333      4.000000
  0.428571  0.428571  0.333333      4.000000
 -0.428571  0.428571  0.333333      4.000000
  0.000000  0.000000  0.444444      2.000000
  0.142857 -0.000000  0.444444      8.000000
  0.285714 -0.000000  0.444444      8.000000
  0.428571 -0.000000  0.444444      8.000000
  0.142857  0.142857  0.444444      4.000000
  0.285714  0.142857  0.444444      8.000000
  0.428571  0.142857  0.444444      8.000000
 -0.428571  0.142857  0.444444      8.000000
 -0.285714  0.142857  0.444444      8.000000
 -0.142857  0.142857  0.444444      4.000000
  0.285714  0.285714  0.444444      4.000000
  0.428571  0.285714  0.444444      8.000000
 -0.428571  0.285714  0.444444      8.000000
 -0.285714  0.285714  0.444444      4.000000
  0.428571  0.428571  0.444444      4.000000
 -0.428571  0.428571  0.444444      4.000000
 
 Following cartesian coordinates:
            Coordinates               Weight
  0.000000  0.000000  0.000000      1.000000
  0.014987 -0.012847  0.000000      4.000000
  0.029975 -0.025694  0.000000      4.000000
  0.044962 -0.038540  0.000000      4.000000
  0.029975 -0.000000  0.000000      2.000000
  0.044962 -0.012847  0.000000      4.000000
  0.059949 -0.025694  0.000000      4.000000
 -0.029975  0.051387  0.000000      4.000000
 -0.014987  0.038540  0.000000      4.000000
  0.000000  0.025694  0.000000      2.000000
  0.059949  0.000000  0.000000      2.000000
  0.074937 -0.012847  0.000000      4.000000
 -0.014987  0.064234  0.000000      4.000000
  0.000000  0.051387  0.000000      2.000000
  0.089924 -0.000000  0.000000      2.000000
 -0.000000  0.077081  0.000000      2.000000
  0.000000  0.000000  0.020236      2.000000
  0.014987 -0.012847  0.020236      8.000000
  0.029975 -0.025694  0.020236      8.000000
  0.044962 -0.038540  0.020236      8.000000
  0.029975 -0.000000  0.020236      4.000000
  0.044962 -0.012847  0.020236      8.000000
  0.059949 -0.025694  0.020236      8.000000
 -0.029975  0.051387  0.020236      8.000000
 -0.014987  0.038540  0.020236      8.000000
  0.000000  0.025694  0.020236      4.000000
  0.059949  0.000000  0.020236      4.000000
  0.074937 -0.012847  0.020236      8.000000
 -0.014987  0.064234  0.020236      8.000000
  0.000000  0.051387  0.020236      4.000000
  0.089924 -0.000000  0.020236      4.000000
 -0.000000  0.077081  0.020236      4.000000
  0.000000  0.000000  0.040472      2.000000
  0.014987 -0.012847  0.040472      8.000000
  0.029975 -0.025694  0.040472      8.000000
  0.044962 -0.038540  0.040472      8.000000
  0.029975 -0.000000  0.040472      4.000000
  0.044962 -0.012847  0.040472      8.000000
  0.059949 -0.025694  0.040472      8.000000
 -0.029975  0.051387  0.040472      8.000000
 -0.014987  0.038540  0.040472      8.000000
  0.000000  0.025694  0.040472      4.000000
  0.059949  0.000000  0.040472      4.000000
  0.074937 -0.012847  0.040472      8.000000
 -0.014987  0.064234  0.040472      8.000000
  0.000000  0.051387  0.040472      4.000000
  0.089924 -0.000000  0.040472      4.000000
 -0.000000  0.077081  0.040472      4.000000
  0.000000  0.000000  0.060707      2.000000
  0.014987 -0.012847  0.060707      8.000000
  0.029975 -0.025694  0.060707      8.000000
  0.044962 -0.038540  0.060707      8.000000
  0.029975 -0.000000  0.060707      4.000000
  0.044962 -0.012847  0.060707      8.000000
  0.059949 -0.025694  0.060707      8.000000
 -0.029975  0.051387  0.060707      8.000000
 -0.014987  0.038540  0.060707      8.000000
  0.000000  0.025694  0.060707      4.000000
  0.059949  0.000000  0.060707      4.000000
  0.074937 -0.012847  0.060707      8.000000
 -0.014987  0.064234  0.060707      8.000000
  0.000000  0.051387  0.060707      4.000000
  0.089924 -0.000000  0.060707      4.000000
 -0.000000  0.077081  0.060707      4.000000
  0.000000  0.000000  0.080943      2.000000
  0.014987 -0.012847  0.080943      8.000000
  0.029975 -0.025694  0.080943      8.000000
  0.044962 -0.038540  0.080943      8.000000
  0.029975 -0.000000  0.080943      4.000000
  0.044962 -0.012847  0.080943      8.000000
  0.059949 -0.025694  0.080943      8.000000
 -0.029975  0.051387  0.080943      8.000000
 -0.014987  0.038540  0.080943      8.000000
  0.000000  0.025694  0.080943      4.000000
  0.059949  0.000000  0.080943      4.000000
  0.074937 -0.012847  0.080943      8.000000
 -0.014987  0.064234  0.080943      8.000000
  0.000000  0.051387  0.080943      4.000000
  0.089924 -0.000000  0.080943      4.000000
 -0.000000  0.077081  0.080943      4.000000
 


--------------------------------------------------------------------------------------------------------




 Dimension of arrays:
   k-points           NKPTS =     80   k-points in BZ     NKDIM =     80   number of bands    NBANDS=    100
   number of dos      NEDOS =    301   number of ions     NIONS =     16
   non local maximal  LDIM  =      6   non local SUM 2l+1 LMDIM =     18
   total plane-waves  NPLWV = 131712
   max r-space proj   IRMAX =   5805   max aug-charges    IRDMAX=  19936
   dimension x,y,z NGX =    56 NGY =   56 NGZ =   42
   dimension x,y,z NGXF=   112 NGYF=  112 NGZF=   84
   support grid    NGXF=   112 NGYF=  112 NGZF=   84
   ions per type =               8   8
   NGX,Y,Z   is equivalent  to a cutoff of  12.71, 12.71, 12.72 a.u.
   NGXF,Y,Z  is equivalent  to a cutoff of  25.43, 25.43, 25.43 a.u.

 SYSTEM =  unknown system                          
 POSCAR =  Fe8 Se8                                 

 Startparameter for this run:
   NWRITE =      2    write-flag & timer
   PREC   = accura    normal or accurate (medium, high low for compatibility)
   ISTART =      0    job   : 0-new  1-cont  2-samecut
   ICHARG =      2    charge: 1-file 2-atom 10-const
   ISPIN  =      2    spin polarized calculation?
   LNONCOLLINEAR =      F non collinear calculations
   LSORBIT =      F    spin-orbit coupling
   INIWAV =      1    electr: 0-lowe 1-rand  2-diag
   LASPH  =      T    aspherical Exc in radial PAW
 Electronic Relaxation 1
   ENCUT  =  550.0 eV  40.42 Ry    6.36 a.u.  14.00 14.00 10.50*2*pi/ulx,y,z
   ENINI  =  550.0     initial cutoff
   ENAUG  =  578.3 eV  augmentation charge cutoff
   NELM   =    100;   NELMIN=  2; NELMDL=  0     # of ELM steps 
   EDIFF  = 0.2E-03   stopping-criterion for ELM
   LREAL  =      T    real-space projection
   NLSPLINE    = F    spline interpolate recip. space projectors
   LCOMPAT=      F    compatible to vasp.4.4
   GGA_COMPAT  = T    GGA compatible to vasp.4.4-vasp.4.6
   LMAXPAW     = -100 max onsite density
   LMAXMIX     =    4 max onsite mixed and CHGCAR
   VOSKOWN=      0    Vosko Wilk Nusair interpolation
   ROPT   =   -0.00025  -0.00025
 Ionic relaxation
   EDIFFG = 0.2E-02   stopping-criterion for IOM
   NSW    =     99    number of steps for IOM
   NBLOCK =      1;   KBLOCK =     99    inner block; outer block 
   IBRION =      2    ionic relax: 0-MD 1-quasi-New 2-CG
   NFREE  =      1    steps in history (QN), initial steepest desc. (CG)
   ISIF   =      4    stress and relaxation
   IWAVPR =     11    prediction:  0-non 1-charg 2-wave 3-comb
   ISYM   =      2    0-nonsym 1-usesym 2-fastsym
   LCORR  =      T    Harris-Foulkes like correction to forces

   POTIM  = 0.5000    time-step for ionic-motion
   TEIN   =    0.0    initial temperature
   TEBEG  =    0.0;   TEEND  =   0.0 temperature during run
   SMASS  =  -3.00    Nose mass-parameter (am)
   estimated Nose-frequenzy (Omega)   =  0.10E-29 period in steps = 0.13E+47 mass=  -0.123E-26a.u.
   SCALEE = 1.0000    scale energy and forces
   NPACO  =    256;   APACO  = 10.0  distance and # of slots for P.C.
   PSTRESS=    0.0 pullay stress

  Mass of Ions in am
   POMASS =  55.85 78.96
  Ionic Valenz
   ZVAL   =  14.00  6.00
  Atomic Wigner-Seitz radii
   RWIGS  =  -1.00 -1.00
  virtual crystal weights 
   VCA    =   1.00  1.00
   NELECT =     160.0000    total number of electrons
   NUPDOWN=      -1.0000    fix difference up-down

 DOS related values:
   EMIN   =  10.00;   EMAX   =-10.00  energy-range for DOS
   EFERMI =   0.00;   METHOD = LEGACY      
   ISMEAR =     0;   SIGMA  =   0.05  broadening in eV -4-tet -1-fermi 0-gaus

 Electronic relaxation 2 (details)
   IALGO  =     68    algorithm
   LDIAG  =      T    sub-space diagonalisation (order eigenvalues)
   LSUBROT=      F    optimize rotation matrix (better conditioning)
   TURBO    =      0    0=normal 1=particle mesh
   IRESTART =      0    0=no restart 2=restart with 2 vectors
   NREBOOT  =      0    no. of reboots
   NMIN     =      0    reboot dimension
   EREF     =   0.00    reference energy to select bands
   IMIX   =      4    mixing-type and parameters
     AMIX     =   0.40;   BMIX     =  1.00
     AMIX_MAG =   1.60;   BMIX_MAG =  1.00
     AMIN     =   0.10
     WC   =   100.;   INIMIX=   1;  MIXPRE=   1;  MAXMIX= -45

 Intra band minimization:
   WEIMIN = 0.0010     energy-eigenvalue tresh-hold
   EBREAK =  0.50E-06  absolut break condition
   DEPER  =   0.30     relativ break condition  

   TIME   =   0.40     timestep for ELM

  volume/ion in A,a.u.               =      18.19       122.74
  Fermi-wavevector in a.u.,A,eV,Ry     =   1.341170  2.534444 24.473302  1.798737
  Thomas-Fermi vector in A             =   2.469425
 
 Write flags
   LWAVE        =      F    write WAVECAR
   LDOWNSAMPLE  =      F    k-point downsampling of WAVECAR
   LCHARG       =      T    write CHGCAR
   LVTOT        =      F    write LOCPOT, total local potential
   LVHAR        =      F    write LOCPOT, Hartree potential only
   LELF         =      F    write electronic localiz. function (ELF)
   LORBIT       =     11    0 simple, 1 ext, 2 COOP (PROOUT), +10 PAW based schemes


 Dipole corrections
   LMONO  =      F    monopole corrections only (constant potential shift)
   LDIPOL =      F    correct potential (dipole corrections)
   IDIPOL =      0    1-x, 2-y, 3-z, 4-all directions 
   EPSILON=  1.0000000 bulk dielectric constant

 Exchange correlation treatment:
   GGA     =    --    GGA type
   LEXCH   =     8    internal setting for exchange type
   LIBXC   =     F    Libxc                    
   VOSKOWN =     0    Vosko Wilk Nusair interpolation
   LHFCALC =     F    Hartree Fock is set to
   LHFONE  =     F    Hartree Fock one center treatment
   AEXX    =    0.0000 exact exchange contribution

 Linear response parameters
   LEPSILON=     F    determine dielectric tensor
   LRPA    =     F    only Hartree local field effects (RPA)
   LNABLA  =     F    use nabla operator in PAW spheres
   LVEL    =     F    velocity operator in full k-point grid
   CSHIFT  =0.1000    complex shift for real part using Kramers Kronig
   OMEGAMAX=  -1.0    maximum frequency
   DEG_THRESHOLD= 0.2000000E-02 threshold for treating states as degnerate
   RTIME   =   -0.100 relaxation time in fs
  (WPLASMAI=    0.000 imaginary part of plasma frequency in eV, 0.658/RTIME)
   DFIELD  = 0.0000000 0.0000000 0.0000000 field for delta impulse in time
 
  Optional k-point grid parameters
   LKPOINTS_OPT  =     F    use optional k-point grid
   KPOINTS_OPT_MODE=     1    mode for optional k-point grid
 
 Orbital magnetization related:
   ORBITALMAG=     F  switch on orbital magnetization
   LCHIMAG   =     F  perturbation theory with respect to B field
   DQ        =  0.001000  dq finite difference perturbation B field
   LLRAUG    =     F  two centre corrections for induced B field
   LBONE     =     F  B-component reconstruction in AE one-centre
   LVGVCALC  =     T  calculate vGv susceptibility
   LVGVAPPL  =     F  apply vGv susceptibility instead of pGv for G=0

 Random number generation:
   RANDOM_GENERATOR = DEFAULT
   PCG_SEED         = not used


--------------------------------------------------------------------------------------------------------


 conjugate gradient relaxation of ions
 charge density and potential will be updated during run
 spin polarized calculation
 RMM-DIIS sequential band-by-band and
  variant of blocked Davidson during initial phase
 perform sub-space diagonalisation
    before iterative eigenvector-optimisation
 modified Broyden-mixing scheme, WC =      100.0
 initial mixing is a Kerker type mixing with AMIX =  0.4000 and BMIX =      1.0000
 Hartree-type preconditioning will be used
 using additional bands           20
 real space projection scheme for non local part
 use partial core corrections
 calculate Harris-corrections to forces 
   (improved forces if not selfconsistent)
 use gradient corrections 
 use of overlap-Matrix (Vanderbilt PP)
 Gauss-broadening in eV      SIGMA  =   0.05


--------------------------------------------------------------------------------------------------------


  energy-cutoff  :      550.00
  volume of cell :      291.00
      direct lattice vectors                 reciprocal lattice vectors
     4.765928143 -5.560049810  0.000000000     0.104911359 -0.089927252  0.000000000
     4.765928143  5.560049810  0.000000000     0.104911359  0.089927252  0.000000000
     0.000000000  0.000000000  5.490815120     0.000000000  0.000000000  0.182122322

  length of vectors
     7.323129451  7.323129451  5.490815120     0.138178522  0.138178522  0.182122322


 
 k-points in units of 2pi/SCALE and weight: KPOINTS                                 
   0.00000000  0.00000000  0.00000000       0.002
   0.01498734 -0.01284675  0.00000000       0.009
   0.02997467 -0.02569350  0.00000000       0.009
   0.04496201 -0.03854025  0.00000000       0.009
   0.02997467  0.00000000  0.00000000       0.005
   0.04496201 -0.01284675  0.00000000       0.009
   0.05994935 -0.02569350  0.00000000       0.009
  -0.02997467  0.05138700  0.00000000       0.009
  -0.01498734  0.03854025  0.00000000       0.009
  -0.00000000  0.02569350  0.00000000       0.005
   0.05994935 -0.00000000  0.00000000       0.005
   0.07493669 -0.01284675  0.00000000       0.009
  -0.01498734  0.06423375  0.00000000       0.009
  -0.00000000  0.05138700  0.00000000       0.005
   0.08992402  0.00000000  0.00000000       0.005
   0.00000000  0.07708050  0.00000000       0.005
   0.00000000  0.00000000  0.02023581       0.005
   0.01498734 -0.01284675  0.02023581       0.018
   0.02997467 -0.02569350  0.02023581       0.018
   0.04496201 -0.03854025  0.02023581       0.018
   0.02997467  0.00000000  0.02023581       0.009
   0.04496201 -0.01284675  0.02023581       0.018
   0.05994935 -0.02569350  0.02023581       0.018
  -0.02997467  0.05138700  0.02023581       0.018
  -0.01498734  0.03854025  0.02023581       0.018
  -0.00000000  0.02569350  0.02023581       0.009
   0.05994935 -0.00000000  0.02023581       0.009
   0.07493669 -0.01284675  0.02023581       0.018
  -0.01498734  0.06423375  0.02023581       0.018
  -0.00000000  0.05138700  0.02023581       0.009
   0.08992402  0.00000000  0.02023581       0.009
   0.00000000  0.07708050  0.02023581       0.009
   0.00000000  0.00000000  0.04047163       0.005
   0.01498734 -0.01284675  0.04047163       0.018
   0.02997467 -0.02569350  0.04047163       0.018
   0.04496201 -0.03854025  0.04047163       0.018
   0.02997467  0.00000000  0.04047163       0.009
   0.04496201 -0.01284675  0.04047163       0.018
   0.05994935 -0.02569350  0.04047163       0.018
  -0.02997467  0.05138700  0.04047163       0.018
  -0.01498734  0.03854025  0.04047163       0.018
  -0.00000000  0.02569350  0.04047163       0.009
   0.05994935 -0.00000000  0.04047163       0.009
   0.07493669 -0.01284675  0.04047163       0.018
  -0.01498734  0.06423375  0.04047163       0.018
  -0.00000000  0.05138700  0.04047163       0.009
   0.08992402  0.00000000  0.04047163       0.009
   0.00000000  0.07708050  0.04047163       0.009
   0.00000000  0.00000000  0.06070744       0.005
   0.01498734 -0.01284675  0.06070744       0.018
   0.02997467 -0.02569350  0.06070744       0.018
   0.04496201 -0.03854025  0.06070744       0.018
   0.02997467  0.00000000  0.06070744       0.009
   0.04496201 -0.01284675  0.06070744       0.018
   0.05994935 -0.02569350  0.06070744       0.018
  -0.02997467  0.05138700  0.06070744       0.018
  -0.01498734  0.03854025  0.06070744       0.018
  -0.00000000  0.02569350  0.06070744       0.009
   0.05994935 -0.00000000  0.06070744       0.009
   0.07493669 -0.01284675  0.06070744       0.018
  -0.01498734  0.06423375  0.06070744       0.018
  -0.00000000  0.05138700  0.06070744       0.009
   0.08992402  0.00000000  0.06070744       0.009
   0.00000000  0.07708050  0.06070744       0.009
   0.00000000  0.00000000  0.08094325       0.005
   0.01498734 -0.01284675  0.08094325       0.018
   0.02997467 -0.02569350  0.08094325       0.018
   0.04496201 -0.03854025  0.08094325       0.018
   0.02997467  0.00000000  0.08094325       0.009
   0.04496201 -0.01284675  0.08094325       0.018
   0.05994935 -0.02569350  0.08094325       0.018
  -0.02997467  0.05138700  0.08094325       0.018
  -0.01498734  0.03854025  0.08094325       0.018
  -0.00000000  0.02569350  0.08094325       0.009
   0.05994935 -0.00000000  0.08094325       0.009
   0.07493669 -0.01284675  0.08094325       0.018
  -0.01498734  0.06423375  0.08094325       0.018
  -0.00000000  0.05138700  0.08094325       0.009
   0.08992402  0.00000000  0.08094325       0.009
   0.00000000  0.07708050  0.08094325       0.009
 
 k-points in reciprocal lattice and weights: KPOINTS                                 
   0.00000000  0.00000000  0.00000000       0.002
   0.14285714 -0.00000000  0.00000000       0.009
   0.28571429 -0.00000000  0.00000000       0.009
   0.42857143 -0.00000000  0.00000000       0.009
   0.14285714  0.14285714  0.00000000       0.005
   0.28571429  0.14285714  0.00000000       0.009
   0.42857143  0.14285714  0.00000000       0.009
  -0.42857143  0.14285714  0.00000000       0.009
  -0.28571429  0.14285714  0.00000000       0.009
  -0.14285714  0.14285714  0.00000000       0.005
   0.28571429  0.28571429  0.00000000       0.005
   0.42857143  0.28571429  0.00000000       0.009
  -0.42857143  0.28571429  0.00000000       0.009
  -0.28571429  0.28571429  0.00000000       0.005
   0.42857143  0.42857143  0.00000000       0.005
  -0.42857143  0.42857143  0.00000000       0.005
   0.00000000  0.00000000  0.11111111       0.005
   0.14285714 -0.00000000  0.11111111       0.018
   0.28571429 -0.00000000  0.11111111       0.018
   0.42857143 -0.00000000  0.11111111       0.018
   0.14285714  0.14285714  0.11111111       0.009
   0.28571429  0.14285714  0.11111111       0.018
   0.42857143  0.14285714  0.11111111       0.018
  -0.42857143  0.14285714  0.11111111       0.018
  -0.28571429  0.14285714  0.11111111       0.018
  -0.14285714  0.14285714  0.11111111       0.009
   0.28571429  0.28571429  0.11111111       0.009
   0.42857143  0.28571429  0.11111111       0.018
  -0.42857143  0.28571429  0.11111111       0.018
  -0.28571429  0.28571429  0.11111111       0.009
   0.42857143  0.42857143  0.11111111       0.009
  -0.42857143  0.42857143  0.11111111       0.009
   0.00000000  0.00000000  0.22222222       0.005
   0.14285714 -0.00000000  0.22222222       0.018
   0.28571429 -0.00000000  0.22222222       0.018
   0.42857143 -0.00000000  0.22222222       0.018
   0.14285714  0.14285714  0.22222222       0.009
   0.28571429  0.14285714  0.22222222       0.018
   0.42857143  0.14285714  0.22222222       0.018
  -0.42857143  0.14285714  0.22222222       0.018
  -0.28571429  0.14285714  0.22222222       0.018
  -0.14285714  0.14285714  0.22222222       0.009
   0.28571429  0.28571429  0.22222222       0.009
   0.42857143  0.28571429  0.22222222       0.018
  -0.42857143  0.28571429  0.22222222       0.018
  -0.28571429  0.28571429  0.22222222       0.009
   0.42857143  0.42857143  0.22222222       0.009
  -0.42857143  0.42857143  0.22222222       0.009
   0.00000000  0.00000000  0.33333333       0.005
   0.14285714 -0.00000000  0.33333333       0.018
   0.28571429 -0.00000000  0.33333333       0.018
   0.42857143 -0.00000000  0.33333333       0.018
   0.14285714  0.14285714  0.33333333       0.009
   0.28571429  0.14285714  0.33333333       0.018
   0.42857143  0.14285714  0.33333333       0.018
  -0.42857143  0.14285714  0.33333333       0.018
  -0.28571429  0.14285714  0.33333333       0.018
  -0.14285714  0.14285714  0.33333333       0.009
   0.28571429  0.28571429  0.33333333       0.009
   0.42857143  0.28571429  0.33333333       0.018
  -0.42857143  0.28571429  0.33333333       0.018
  -0.28571429  0.28571429  0.33333333       0.009
   0.42857143  0.42857143  0.33333333       0.009
  -0.42857143  0.42857143  0.33333333       0.009
   0.00000000  0.00000000  0.44444444       0.005
   0.14285714 -0.00000000  0.44444444       0.018
   0.28571429 -0.00000000  0.44444444       0.018
   0.42857143 -0.00000000  0.44444444       0.018
   0.14285714  0.14285714  0.44444444       0.009
   0.28571429  0.14285714  0.44444444       0.018
   0.42857143  0.14285714  0.44444444       0.018
  -0.42857143  0.14285714  0.44444444       0.018
  -0.28571429  0.14285714  0.44444444       0.018
  -0.14285714  0.14285714  0.44444444       0.009
   0.28571429  0.28571429  0.44444444       0.009
   0.42857143  0.28571429  0.44444444       0.018
  -0.42857143  0.28571429  0.44444444       0.018
  -0.28571429  0.28571429  0.44444444       0.009
   0.42857143  0.42857143  0.44444444       0.009
  -0.42857143  0.42857143  0.44444444       0.009
 
 position of ions in fractional coordinates (direct lattice) 
   0.00000000  0.00000000  0.00000000
   0.00000000  0.50000000  0.00000000
   0.50000000  0.00000000  0.00000000
   0.50000000  0.50000000  0.00000000
   0.25000000  0.25000000  0.00000000
   0.25000000  0.75000000  0.00000000
   0.75000000  0.25000000  0.00000000
   0.75000000  0.75000000  0.00000000
   0.37500000  0.12500000  0.66883417
   0.37500000  0.62500000  0.66883417
   0.87500000  0.12500000  0.66883417
   0.87500000  0.62500000  0.66883417
   0.12500000  0.37500000  0.33116583
   0.12500000  0.87500000  0.33116583
   0.62500000  0.37500000  0.33116583
   0.62500000  0.87500000  0.33116583
 
 position of ions in cartesian coordinates  (Angst):
   0.00000000  0.00000000  0.00000000
   2.38296407  2.78002491  0.00000000
   2.38296407 -2.78002491  0.00000000
   4.76592814  0.00000000  0.00000000
   2.38296407  0.00000000  0.00000000
   4.76592814  2.78002491  0.00000000
   4.76592814 -2.78002491  0.00000000
   7.14889221 -0.00000000  0.00000000
   2.38296407 -1.39001245  3.67244476
   4.76592814  1.39001245  3.67244476
   4.76592814 -4.17003736  3.67244476
   7.14889221 -1.39001245  3.67244476
   2.38296407  1.39001245  1.81837037
   4.76592814  4.17003736  1.81837037
   4.76592814 -1.39001245  1.81837037
   7.14889221  1.39001245  1.81837037
 


--------------------------------------------------------------------------------------------------------


 k-point   1 :   0.0000 0.0000 0.0000  plane waves:    8499
 k-point   2 :   0.1429-0.0000 0.0000  plane waves:    8525
 k-point   3 :   0.2857-0.0000 0.0000  plane waves:    8541
 k-point   4 :   0.4286-0.0000 0.0000  plane waves:    8533
 k-point   5 :   0.1429 0.1429 0.0000  plane waves:    8550
 k-point   6 :   0.2857 0.1429 0.0000  plane waves:    8554
 k-point   7 :   0.4286 0.1429 0.0000  plane waves:    8533
 k-point   8 :  -0.4286 0.1429 0.0000  plane waves:    8542
 k-point   9 :  -0.2857 0.1429 0.0000  plane waves:    8541
 k-point  10 :  -0.1429 0.1429 0.0000  plane waves:    8531
 k-point  11 :   0.2857 0.2857 0.0000  plane waves:    8514
 k-point  12 :   0.4286 0.2857 0.0000  plane waves:    8525
 k-point  13 :  -0.4286 0.2857 0.0000  plane waves:    8524
 k-point  14 :  -0.2857 0.2857 0.0000  plane waves:    8541
 k-point  15 :   0.4286 0.4286 0.0000  plane waves:    8528
 k-point  16 :  -0.4286 0.4286 0.0000  plane waves:    8510
 k-point  17 :   0.0000 0.0000 0.1111  plane waves:    8503
 k-point  18 :   0.1429-0.0000 0.1111  plane waves:    8522
 k-point  19 :   0.2857-0.0000 0.1111  plane waves:    8534
 k-point  20 :   0.4286-0.0000 0.1111  plane waves:    8525
 k-point  21 :   0.1429 0.1429 0.1111  plane waves:    8541
 k-point  22 :   0.2857 0.1429 0.1111  plane waves:    8540
 k-point  23 :   0.4286 0.1429 0.1111  plane waves:    8542
 k-point  24 :  -0.4286 0.1429 0.1111  plane waves:    8531
 k-point  25 :  -0.2857 0.1429 0.1111  plane waves:    8536
 k-point  26 :  -0.1429 0.1429 0.1111  plane waves:    8533
 k-point  27 :   0.2857 0.2857 0.1111  plane waves:    8548
 k-point  28 :   0.4286 0.2857 0.1111  plane waves:    8531
 k-point  29 :  -0.4286 0.2857 0.1111  plane waves:    8514
 k-point  30 :  -0.2857 0.2857 0.1111  plane waves:    8532
 k-point  31 :   0.4286 0.4286 0.1111  plane waves:    8536
 k-point  32 :  -0.4286 0.4286 0.1111  plane waves:    8523
 k-point  33 :   0.0000 0.0000 0.2222  plane waves:    8537
 k-point  34 :   0.1429-0.0000 0.2222  plane waves:    8523
 k-point  35 :   0.2857-0.0000 0.2222  plane waves:    8511
 k-point  36 :   0.4286-0.0000 0.2222  plane waves:    8525
 k-point  37 :   0.1429 0.1429 0.2222  plane waves:    8518
 k-point  38 :   0.2857 0.1429 0.2222  plane waves:    8517
 k-point  39 :   0.4286 0.1429 0.2222  plane waves:    8540
 k-point  40 :  -0.4286 0.1429 0.2222  plane waves:    8527
 k-point  41 :  -0.2857 0.1429 0.2222  plane waves:    8523
 k-point  42 :  -0.1429 0.1429 0.2222  plane waves:    8514
 k-point  43 :   0.2857 0.2857 0.2222  plane waves:    8541
 k-point  44 :   0.4286 0.2857 0.2222  plane waves:    8525
 k-point  45 :  -0.4286 0.2857 0.2222  plane waves:    8527
 k-point  46 :  -0.2857 0.2857 0.2222  plane waves:    8515
 k-point  47 :   0.4286 0.4286 0.2222  plane waves:    8537
 k-point  48 :  -0.4286 0.4286 0.2222  plane waves:    8532
 k-point  49 :   0.0000 0.0000 0.3333  plane waves:    8513
 k-point  50 :   0.1429-0.0000 0.3333  plane waves:    8504
 k-point  51 :   0.2857-0.0000 0.3333  plane waves:    8509
 k-point  52 :   0.4286-0.0000 0.3333  plane waves:    8514
 k-point  53 :   0.1429 0.1429 0.3333  plane waves:    8493
 k-point  54 :   0.2857 0.1429 0.3333  plane waves:    8514
 k-point  55 :   0.4286 0.1429 0.3333  plane waves:    8514
 k-point  56 :  -0.4286 0.1429 0.3333  plane waves:    8516
 k-point  57 :  -0.2857 0.1429 0.3333  plane waves:    8519
 k-point  58 :  -0.1429 0.1429 0.3333  plane waves:    8545
 k-point  59 :   0.2857 0.2857 0.3333  plane waves:    8520
 k-point  60 :   0.4286 0.2857 0.3333  plane waves:    8531
 k-point  61 :  -0.4286 0.2857 0.3333  plane waves:    8538
 k-point  62 :  -0.2857 0.2857 0.3333  plane waves:    8532
 k-point  63 :   0.4286 0.4286 0.3333  plane waves:    8522
 k-point  64 :  -0.4286 0.4286 0.3333  plane waves:    8535
 k-point  65 :   0.0000 0.0000 0.4444  plane waves:    8479
 k-point  66 :   0.1429-0.0000 0.4444  plane waves:    8479
 k-point  67 :   0.2857-0.0000 0.4444  plane waves:    8482
 k-point  68 :   0.4286-0.0000 0.4444  plane waves:    8505
 k-point  69 :   0.1429 0.1429 0.4444  plane waves:    8493
 k-point  70 :   0.2857 0.1429 0.4444  plane waves:    8506
 k-point  71 :   0.4286 0.1429 0.4444  plane waves:    8510
 k-point  72 :  -0.4286 0.1429 0.4444  plane waves:    8524
 k-point  73 :  -0.2857 0.1429 0.4444  plane waves:    8512
 k-point  74 :  -0.1429 0.1429 0.4444  plane waves:    8492
 k-point  75 :   0.2857 0.2857 0.4444  plane waves:    8511
 k-point  76 :   0.4286 0.2857 0.4444  plane waves:    8534
 k-point  77 :  -0.4286 0.2857 0.4444  plane waves:    8528
 k-point  78 :  -0.2857 0.2857 0.4444  plane waves:    8529
 k-point  79 :   0.4286 0.4286 0.4444  plane waves:    8544
 k-point  80 :  -0.4286 0.4286 0.4444  plane waves:    8529

 maximum and minimum number of plane-waves per node :      8554     8479

 maximum number of plane-waves:      8554
 maximum index in each direction: 
   IXMAX=   14   IYMAX=   14   IZMAX=   10
   IXMIN=  -14   IYMIN=  -14   IZMIN=  -10


 serial   3D FFT for wavefunctions
 parallel 3D FFT for charge:
    minimum data exchange during FFTs selected (reduces bandwidth)


 total amount of memory used by VASP MPI-rank0   172445. kBytes
=======================================================================

   base      :      30000. kBytes
   nonlr-proj:      11355. kBytes
   fftplans  :       2458. kBytes
   grid      :      15239. kBytes
   one-center:        497. kBytes
   wavefun   :     112896. kBytes
 
     INWAV:  cpu time      0.0000: real time      0.0002
 Broyden mixing: mesh for mixing (old mesh)
   NGX = 29   NGY = 29   NGZ = 21
  (NGX  =112   NGY  =112   NGZ  = 84)
  gives a total of  17661 points

 initial charge density was supplied:
 charge density of overlapping atoms calculated
 number of electron     160.0000000 magnetization       0.0000000
 keeping initial charge density in first step


--------------------------------------------------------------------------------------------------------


 Maximum index for non-local projection operator         5575
 Maximum index for augmentation-charges         1105 (set IRDMAX)


--------------------------------------------------------------------------------------------------------


 First call to EWALD:  gamma=   0.267
 Maximum number of real-space cells 3x 3x 3
 Maximum number of reciprocal cells 3x 3x 2

    FEWALD:  cpu time      0.0015: real time      0.0016


--------------------------------------- Ionic step        1  -------------------------------------------




--------------------------------------- Iteration      1(   1)  ---------------------------------------


    POTLOK:  cpu time      0.0476: real time      0.0621
    SETDIJ:  cpu time      0.2731: real time      0.2740
     EDDAV:  cpu time     22.9931: real time     23.0822
       DOS:  cpu time      0.0023: real time      0.0023
    --------------------------------------------
      LOOP:  cpu time     23.3161: real time     23.4206

 eigenvalue-minimisations  : 34200
 total energy-change (2. order) : 0.2041691E+04  (-0.8889200E+04)
 number of electron     160.0000000 magnetization       0.0000000
 augmentation part      160.0000000 magnetization       0.0000000

 Free energy of the ion-electron system (eV)
  ---------------------------------------------------
  alpha Z        PSCENC =       872.68586007
  Ewald energy   TEWEN  =    -11806.47571465
  -Hartree energ DENC   =     -8691.73614430
  -exchange      EXHF   =         0.00000000
  -V(xc)+E(xc)   XCENC  =       566.86492126
  PAW double counting   =     15528.57853435   -16124.40356803
  entropy T*S    EENTRO =        -0.00988886
  eigenvalues    EBANDS =       -14.65387865
  atomic energy  EATOM  =     21710.84102437
  Solvation  Ediel_sol  =         0.00000000
  ---------------------------------------------------
  free energy    TOTEN  =      2041.69114556 eV

  energy without entropy =     2041.70103442  energy(sigma->0) =     2041.69608999


--------------------------------------------------------------------------------------------------------




--------------------------------------- Iteration      1(   2)  ---------------------------------------


     EDDAV:  cpu time     22.0257: real time     22.1090
       DOS:  cpu time      0.0020: real time      0.0020
    --------------------------------------------
      LOOP:  cpu time     22.0277: real time     22.1110

 eigenvalue-minimisations  : 32000
 total energy-change (2. order) :-0.1920532E+04  (-0.1864981E+04)
 number of electron     160.0000000 magnetization       0.0000000
 augmentation part      160.0000000 magnetization       0.0000000

 Free energy of the ion-electron system (eV)
  ---------------------------------------------------
  alpha Z        PSCENC =       872.68586007
  Ewald energy   TEWEN  =    -11806.47571465
  -Hartree energ DENC   =     -8691.73614430
  -exchange      EXHF   =         0.00000000
  -V(xc)+E(xc)   XCENC  =       566.86492126
  PAW double counting   =     15528.57853435   -16124.40356803
  entropy T*S    EENTRO =        -0.01403228
  eigenvalues    EBANDS =     -1935.18212266
  atomic energy  EATOM  =     21710.84102437
  Solvation  Ediel_sol  =         0.00000000
  ---------------------------------------------------
  free energy    TOTEN  =       121.15875813 eV

  energy without entropy =      121.17279041  energy(sigma->0) =      121.16577427


--------------------------------------------------------------------------------------------------------




--------------------------------------- Iteration      1(   3)  ---------------------------------------


     EDDAV:  cpu time     30.2772: real time     30.4267
       DOS:  cpu time      0.0027: real time      0.0027
    --------------------------------------------
      LOOP:  cpu time     30.2798: real time     30.4294

 eigenvalue-minimisations  : 45320
 total energy-change (2. order) :-0.2053415E+03  (-0.1824169E+03)
 number of electron     160.0000000 magnetization       0.0000000
 augmentation part      160.0000000 magnetization       0.0000000

 Free energy of the ion-electron system (eV)
  ---------------------------------------------------
  alpha Z        PSCENC =       872.68586007
  Ewald energy   TEWEN  =    -11806.47571465
  -Hartree energ DENC   =     -8691.73614430
  -exchange      EXHF   =         0.00000000
  -V(xc)+E(xc)   XCENC  =       566.86492126
  PAW double counting   =     15528.57853435   -16124.40356803
  entropy T*S    EENTRO =        -0.02527769
  eigenvalues    EBANDS =     -2140.51238123
  atomic energy  EATOM  =     21710.84102437
  Solvation  Ediel_sol  =         0.00000000
  ---------------------------------------------------
  free energy    TOTEN  =       -84.18274586 eV

  energy without entropy =      -84.15746817  energy(sigma->0) =      -84.17010701


--------------------------------------------------------------------------------------------------------




--------------------------------------- Iteration      1(   4)  ---------------------------------------


     EDDAV:  cpu time     29.8593: real time     29.9905
       DOS:  cpu time      0.0025: real time      0.0025
    --------------------------------------------
      LOOP:  cpu time     29.8617: real time     29.9930

 eigenvalue-minimisations  : 46480
 total energy-change (2. order) :-0.1402775E+02  (-0.1368993E+02)
 number of electron     160.0000000 magnetization       0.0000000
 augmentation part      160.0000000 magnetization       0.0000000

 Free energy of the ion-electron system (eV)
  ---------------------------------------------------
  alpha Z        PSCENC =       872.68586007
  Ewald energy   TEWEN  =    -11806.47571465
  -Hartree energ DENC   =     -8691.73614430
  -exchange      EXHF   =         0.00000000
  -V(xc)+E(xc)   XCENC  =       566.86492126
  PAW double counting   =     15528.57853435   -16124.40356803
  entropy T*S    EENTRO =        -0.02535649
  eigenvalues    EBANDS =     -2154.54005081
  atomic energy  EATOM  =     21710.84102437
  Solvation  Ediel_sol  =         0.00000000
  ---------------------------------------------------
  free energy    TOTEN  =       -98.21049424 eV

  energy without entropy =      -98.18513775  energy(sigma->0) =      -98.19781599


--------------------------------------------------------------------------------------------------------




--------------------------------------- Iteration      1(   5)  ---------------------------------------


     EDDAV:  cpu time     29.4253: real time     29.5828
       DOS:  cpu time      0.0025: real time      0.0025
    CHARGE:  cpu time      0.6102: real time      0.6135
    MIXING:  cpu time      0.0015: real time      0.0015
    --------------------------------------------
      LOOP:  cpu time     30.0395: real time     30.2003

 eigenvalue-minimisations  : 45540
 total energy-change (2. order) :-0.3222240E+00  (-0.3210340E+00)
 number of electron     159.9999819 magnetization      -0.0000000
 augmentation part       53.2587243 magnetization      -0.0000000

 Broyden mixing:
  rms(total) = 0.26896E+01    rms(broyden)= 0.26893E+01
  rms(prec ) = 0.42319E+01
  weight for this iteration     100.00

 Free energy of the ion-electron system (eV)
  ---------------------------------------------------
  alpha Z        PSCENC =       872.68586007
  Ewald energy   TEWEN  =    -11806.47571465
  -Hartree energ DENC   =     -8691.73614430
  -exchange      EXHF   =         0.00000000
  -V(xc)+E(xc)   XCENC  =       566.86492126
  PAW double counting   =     15528.57853435   -16124.40356803
  entropy T*S    EENTRO =        -0.02528585
  eigenvalues    EBANDS =     -2154.86234546
  atomic energy  EATOM  =     21710.84102437
  Solvation  Ediel_sol  =         0.00000000
  ---------------------------------------------------
  free energy    TOTEN  =       -98.53271825 eV

  energy without entropy =      -98.50743240  energy(sigma->0) =      -98.52007532


--------------------------------------------------------------------------------------------------------




--------------------------------------- Iteration      1(   6)  ---------------------------------------


    POTLOK:  cpu time      0.0414: real time      0.0495
    SETDIJ:  cpu time      0.2733: real time      0.2741
    EDDIAG:  cpu time      3.6835: real time      3.6988
  RMM-DIIS:  cpu time     12.7550: real time     12.7980
    ORTHCH:  cpu time      0.5667: real time      0.5686
       DOS:  cpu time      0.0019: real time      0.0019
    CHARGE:  cpu time      0.6298: real time      0.6333
    MIXING:  cpu time      0.0014: real time      0.0014
    --------------------------------------------
      LOOP:  cpu time     17.9530: real time     18.0257

 eigenvalue-minimisations  : 32037
 total energy-change (2. order) :-0.1358682E+02  (-0.1589481E+02)
 number of electron     159.9999775 magnetization      -0.0000000
 augmentation part       69.6125785 magnetization      -0.0000000

 Broyden mixing:
  rms(total) = 0.48811E+01    rms(broyden)= 0.48810E+01
  rms(prec ) = 0.80193E+01
  weight for this iteration     100.00

 eigenvalues of (default mixing * dielectric matrix)
  average eigenvalue GAMMA=   0.3127
  0.3127

 Free energy of the ion-electron system (eV)
  ---------------------------------------------------
  alpha Z        PSCENC =       872.68586007
  Ewald energy   TEWEN  =    -11806.47571465
  -Hartree energ DENC   =     -8248.99734098
  -exchange      EXHF   =         0.00000000
  -V(xc)+E(xc)   XCENC  =       554.73486629
  PAW double counting   =     15030.99245417   -15595.62994303
  entropy T*S    EENTRO =        -0.02136912
  eigenvalues    EBANDS =     -2630.24937202
  atomic energy  EATOM  =     21710.84102437
  Solvation  Ediel_sol  =         0.00000000
  ---------------------------------------------------
  free energy    TOTEN  =      -112.11953489 eV

  energy without entropy =     -112.09816577  energy(sigma->0) =     -112.10885033


--------------------------------------------------------------------------------------------------------




--------------------------------------- Iteration      1(   7)  ---------------------------------------


    POTLOK:  cpu time      0.0417: real time      0.0420
    SETDIJ:  cpu time      0.2762: real time      0.2769
    EDDIAG:  cpu time      3.7200: real time      3.7349
  RMM-DIIS:  cpu time     12.7176: real time     12.7606
    ORTHCH:  cpu time      0.5684: real time      0.5703
       DOS:  cpu time      0.0020: real time      0.0020
    CHARGE:  cpu time      0.6244: real time      0.6268
    MIXING:  cpu time      0.0012: real time      0.0012
    --------------------------------------------
      LOOP:  cpu time     17.9514: real time     18.0146

 eigenvalue-minimisations  : 32008
 total energy-change (2. order) : 0.2152004E+02  (-0.4019575E+01)
 number of electron     159.9999812 magnetization      -0.0000000
 augmentation part       58.0854497 magnetization      -0.0000000

 Broyden mixing:
  rms(total) = 0.95531E+00    rms(broyden)= 0.95479E+00
  rms(prec ) = 0.11380E+01
  weight for this iteration     100.00

 eigenvalues of (default mixing * dielectric matrix)
  average eigenvalue GAMMA=   0.4465
  0.6212  0.2719

 Free energy of the ion-electron system (eV)
  ---------------------------------------------------
  alpha Z        PSCENC =       872.68586007
  Ewald energy   TEWEN  =    -11806.47571465
  -Hartree energ DENC   =     -8520.41508738
  -exchange      EXHF   =         0.00000000
  -V(xc)+E(xc)   XCENC  =       559.96452269
  PAW double counting   =     15511.57215992   -16108.29424944
  entropy T*S    EENTRO =        -0.02902480
  eigenvalues    EBANDS =     -2310.44898301
  atomic energy  EATOM  =     21710.84102437
  Solvation  Ediel_sol  =         0.00000000
  ---------------------------------------------------
  free energy    TOTEN  =       -90.59949223 eV

  energy without entropy =      -90.57046742  energy(sigma->0) =      -90.58497983


--------------------------------------------------------------------------------------------------------




--------------------------------------- Iteration      1(   8)  ---------------------------------------


    POTLOK:  cpu time      0.0807: real time      0.1160
    SETDIJ:  cpu time      0.2720: real time      0.2731
    EDDIAG:  cpu time      3.4365: real time      3.4485
  RMM-DIIS:  cpu time     14.9669: real time     15.0174
    ORTHCH:  cpu time      0.5601: real time      0.5620
       DOS:  cpu time      0.0019: real time      0.0019
    CHARGE:  cpu time      0.5741: real time      0.5769
    MIXING:  cpu time      0.0013: real time      0.0013
    --------------------------------------------
      LOOP:  cpu time     19.8934: real time     19.9969

 eigenvalue-minimisations  : 41210
 total energy-change (2. order) :-0.4951377E+00  (-0.2896534E+00)
 number of electron     159.9999813 magnetization       0.0000000
 augmentation part       58.4841280 magnetization       0.0000000

 Broyden mixing:
  rms(total) = 0.42627E+00    rms(broyden)= 0.42610E+00
  rms(prec ) = 0.56839E+00
  weight for this iteration     100.00

 eigenvalues of (default mixing * dielectric matrix)
  average eigenvalue GAMMA=   0.7020
  0.3157  0.8951  0.8951

 Free energy of the ion-electron system (eV)
  ---------------------------------------------------
  alpha Z        PSCENC =       872.68586007
  Ewald energy   TEWEN  =    -11806.47571465
  -Hartree energ DENC   =     -8509.73213005
  -exchange      EXHF   =         0.00000000
  -V(xc)+E(xc)   XCENC  =       560.34627284
  PAW double counting   =     15581.83719690   -16185.62653890
  entropy T*S    EENTRO =        -0.02668969
  eigenvalues    EBANDS =     -2314.94391082
  atomic energy  EATOM  =     21710.84102437
  Solvation  Ediel_sol  =         0.00000000
  ---------------------------------------------------
  free energy    TOTEN  =       -91.09462993 eV

  energy without entropy =      -91.06794023  energy(sigma->0) =      -91.08128508


--------------------------------------------------------------------------------------------------------




--------------------------------------- Iteration      1(   9)  ---------------------------------------


    POTLOK:  cpu time      0.0399: real time      0.0401
    SETDIJ:  cpu time      0.2699: real time      0.2706
    EDDIAG:  cpu time      3.4446: real time      3.4581
  RMM-DIIS:  cpu time     16.5833: real time     16.6416
    ORTHCH:  cpu time      0.5602: real time      0.5621
       DOS:  cpu time      0.0020: real time      0.0020
    CHARGE:  cpu time      0.5970: real time      0.5997
    MIXING:  cpu time      0.0012: real time      0.0012
    --------------------------------------------
      LOOP:  cpu time     21.4981: real time     21.5755

 eigenvalue-minimisations  : 45940
 total energy-change (2. order) :-0.4952772E-01  (-0.7625912E-01)
 number of electron     159.9999814 magnetization       0.0000000
 augmentation part       58.7876815 magnetization       0.0000000

 Broyden mixing:
  rms(total) = 0.22414E+00    rms(broyden)= 0.22397E+00
  rms(prec ) = 0.27983E+00
  weight for this iteration     100.00

 eigenvalues of (default mixing * dielectric matrix)
  average eigenvalue GAMMA=   0.9243
  0.3128  1.3239  1.3239  0.7366

 Free energy of the ion-electron system (eV)
  ---------------------------------------------------
  alpha Z        PSCENC =       872.68586007
  Ewald energy   TEWEN  =    -11806.47571465
  -Hartree energ DENC   =     -8495.63995470
  -exchange      EXHF   =         0.00000000
  -V(xc)+E(xc)   XCENC  =       560.49517714
  PAW double counting   =     15676.92626694   -16287.06410808
  entropy T*S    EENTRO =        -0.02413648
  eigenvalues    EBANDS =     -2322.88857225
  atomic energy  EATOM  =     21710.84102437
  Solvation  Ediel_sol  =         0.00000000
  ---------------------------------------------------
  free energy    TOTEN  =       -91.14415765 eV

  energy without entropy =      -91.12002116  energy(sigma->0) =      -91.13208941


--------------------------------------------------------------------------------------------------------




--------------------------------------- Iteration      1(  10)  ---------------------------------------


    POTLOK:  cpu time      0.0402: real time      0.0475
    SETDIJ:  cpu time      0.2679: real time      0.2687
    EDDIAG:  cpu time      3.6388: real time      3.6517
  RMM-DIIS:  cpu time     18.1031: real time     18.1651
    ORTHCH:  cpu time      0.5699: real time      0.5719
       DOS:  cpu time      0.0019: real time      0.0019
    CHARGE:  cpu time      0.6124: real time      0.6150
    MIXING:  cpu time      0.0015: real time      0.0015
    --------------------------------------------
      LOOP:  cpu time     23.2358: real time     23.3234

 eigenvalue-minimisations  : 45741
 total energy-change (2. order) :-0.6429761E-02  (-0.2138372E-01)
 number of electron     159.9999813 magnetization       0.0000000
 augmentation part       58.9766299 magnetization       0.0000000

 Broyden mixing:
  rms(total) = 0.93602E-01    rms(broyden)= 0.93473E-01
  rms(prec ) = 0.10526E+00
  weight for this iteration     100.00

 eigenvalues of (default mixing * dielectric matrix)
  average eigenvalue GAMMA=   1.0824
  2.4129  0.3127  0.9998  0.9998  0.6866

 Free energy of the ion-electron system (eV)
  ---------------------------------------------------
  alpha Z        PSCENC =       872.68586007
  Ewald energy   TEWEN  =    -11806.47571465
  -Hartree energ DENC   =     -8488.00862404
  -exchange      EXHF   =         0.00000000
  -V(xc)+E(xc)   XCENC  =       560.59318967
  PAW double counting   =     15757.34681538   -16372.05038167
  entropy T*S    EENTRO =        -0.02161113
  eigenvalues    EBANDS =     -2326.06114541
  atomic energy  EATOM  =     21710.84102437
  Solvation  Ediel_sol  =         0.00000000
  ---------------------------------------------------
  free energy    TOTEN  =       -91.15058741 eV

  energy without entropy =      -91.12897628  energy(sigma->0) =      -91.13978184


--------------------------------------------------------------------------------------------------------




--------------------------------------- Iteration      1(  11)  ---------------------------------------


    POTLOK:  cpu time      0.0440: real time      0.0893
    SETDIJ:  cpu time      0.2737: real time      0.2745
    EDDIAG:  cpu time      3.6748: real time      3.6880
  RMM-DIIS:  cpu time     16.1001: real time     16.1556
    ORTHCH:  cpu time      0.5556: real time      0.5575
       DOS:  cpu time      0.0020: real time      0.0020
    CHARGE:  cpu time      0.5670: real time      0.5691
    MIXING:  cpu time      0.0013: real time      0.0013
    --------------------------------------------
      LOOP:  cpu time     21.2186: real time     21.3373

 eigenvalue-minimisations  : 43916
 total energy-change (2. order) :-0.6646235E-02  (-0.4224195E-02)
 number of electron     159.9999814 magnetization       0.0000000
 augmentation part       58.9852624 magnetization       0.0000000

 Broyden mixing:
  rms(total) = 0.33834E-01    rms(broyden)= 0.33809E-01
  rms(prec ) = 0.38476E-01
  weight for this iteration     100.00

 eigenvalues of (default mixing * dielectric matrix)
  average eigenvalue GAMMA=   1.1124
  2.1914  1.6975  0.3127  0.9643  0.8562  0.6521

 Free energy of the ion-electron system (eV)
  ---------------------------------------------------
  alpha Z        PSCENC =       872.68586007
  Ewald energy   TEWEN  =    -11806.47571465
  -Hartree energ DENC   =     -8486.21566101
  -exchange      EXHF   =         0.00000000
  -V(xc)+E(xc)   XCENC  =       560.64567555
  PAW double counting   =     15798.23230056   -16414.76740611
  entropy T*S    EENTRO =        -0.02195830
  eigenvalues    EBANDS =     -2326.08135412
  atomic energy  EATOM  =     21710.84102437
  Solvation  Ediel_sol  =         0.00000000
  ---------------------------------------------------
  free energy    TOTEN  =       -91.15723364 eV

  energy without entropy =      -91.13527534  energy(sigma->0) =      -91.14625449


--------------------------------------------------------------------------------------------------------




--------------------------------------- Iteration      1(  12)  ---------------------------------------


    POTLOK:  cpu time      0.0390: real time      0.0392
    SETDIJ:  cpu time      0.2714: real time      0.2725
    EDDIAG:  cpu time      3.4337: real time      3.4464
  RMM-DIIS:  cpu time     15.5606: real time     15.6131
    ORTHCH:  cpu time      0.5595: real time      0.5615
       DOS:  cpu time      0.0019: real time      0.0019
    CHARGE:  cpu time      0.6027: real time      0.6049
    MIXING:  cpu time      0.0013: real time      0.0014
    --------------------------------------------
      LOOP:  cpu time     20.4701: real time     20.5410

 eigenvalue-minimisations  : 42206
 total energy-change (2. order) :-0.3522347E-02  (-0.9554639E-03)
 number of electron     159.9999814 magnetization       0.0000000
 augmentation part       58.9753733 magnetization       0.0000000

 Broyden mixing:
  rms(total) = 0.16280E-01    rms(broyden)= 0.16266E-01
  rms(prec ) = 0.20060E-01
  weight for this iteration     100.00

 eigenvalues of (default mixing * dielectric matrix)
  average eigenvalue GAMMA=   1.1023
  2.4420  1.5334  0.3127  1.0222  1.0222  0.7447  0.6388

 Free energy of the ion-electron system (eV)
  ---------------------------------------------------
  alpha Z        PSCENC =       872.68586007
  Ewald energy   TEWEN  =    -11806.47571465
  -Hartree energ DENC   =     -8486.97086639
  -exchange      EXHF   =         0.00000000
  -V(xc)+E(xc)   XCENC  =       560.64944948
  PAW double counting   =     15799.48905168   -16415.84376620
  entropy T*S    EENTRO =        -0.02246819
  eigenvalues    EBANDS =     -2325.51332614
  atomic energy  EATOM  =     21710.84102437
  Solvation  Ediel_sol  =         0.00000000
  ---------------------------------------------------
  free energy    TOTEN  =       -91.16075599 eV

  energy without entropy =      -91.13828780  energy(sigma->0) =      -91.14952189


--------------------------------------------------------------------------------------------------------




--------------------------------------- Iteration      1(  13)  ---------------------------------------


    POTLOK:  cpu time      0.0395: real time      0.0556
    SETDIJ:  cpu time      0.2712: real time      0.2719
    EDDIAG:  cpu time      3.6076: real time      3.6206
  RMM-DIIS:  cpu time     11.9338: real time     11.9764
    ORTHCH:  cpu time      0.5679: real time      0.5697
       DOS:  cpu time      0.0020: real time      0.0020
    --------------------------------------------
      LOOP:  cpu time     16.4219: real time     16.4963

 eigenvalue-minimisations  : 28994
 total energy-change (2. order) : 0.5413530E-04  (-0.1959805E-03)
 number of electron     159.9999814 magnetization       0.0000000
 augmentation part       58.9753733 magnetization       0.0000000

 Free energy of the ion-electron system (eV)
  ---------------------------------------------------
  alpha Z        PSCENC =       872.68586007
  Ewald energy   TEWEN  =    -11806.47571465
  -Hartree energ DENC   =     -8487.45897861
  -exchange      EXHF   =         0.00000000
  -V(xc)+E(xc)   XCENC  =       560.66907659
  PAW double counting   =     15799.43890109   -16415.62584175
  entropy T*S    EENTRO =        -0.02242235
  eigenvalues    EBANDS =     -2325.21260661
  atomic energy  EATOM  =     21710.84102437
  Solvation  Ediel_sol  =         0.00000000
  ---------------------------------------------------
  free energy    TOTEN  =       -91.16070185 eV

  energy without entropy =      -91.13827950  energy(sigma->0) =      -91.14949068


--------------------------------------------------------------------------------------------------------




 average (electrostatic) potential at core
  the test charge radii are     0.9500  1.0808
  (the norm of the test charge is              1.0000)
       1 -46.6678       2 -46.6678       3 -46.6678       4 -46.6678       5 -46.6678
       6 -46.6678       7 -46.6678       8 -46.6678       9 -54.4448      10 -54.4448
      11 -54.4448      12 -54.4448      13 -54.4448      14 -54.4448      15 -54.4448
      16 -54.4448
 
 
 
 E-fermi :   4.4586     XC(G=0): -10.8189     alpha+bet : -9.9991

 Fermi energy:         4.4585966177

 spin component 1

 k-point     1 :       0.0000    0.0000    0.0000
  band No.  band energies     occupation 
      1     -50.2238      1.00000
      2     -50.2102      1.00000
      3     -50.2102      1.00000
      4     -50.1998      1.00000
      5     -50.1448      1.00000
      6     -50.0654      1.00000
      7     -50.0545      1.00000
      8     -50.0545      1.00000
      9     -50.0413      1.00000
     10     -49.9596      1.00000
     11     -49.9596      1.00000
     12     -49.7711      1.00000
     13     -47.5410      1.00000
     14     -47.5379      1.00000
     15     -47.5379      1.00000
     16     -47.5365      1.00000
     17     -47.5234      1.00000
     18     -47.3195      1.00000
     19     -47.3195      1.00000
     20     -47.1865      1.00000
     21     -47.1862      1.00000
     22     -47.1862      1.00000
     23     -47.1823      1.00000
     24     -47.1116      1.00000
     25     -10.3024      1.00000
     26      -8.9026      1.00000
     27      -8.9026      1.00000
     28      -8.8882      1.00000
     29      -8.8882      1.00000
     30      -8.6189      1.00000
     31      -8.2925      1.00000
     32      -8.0704      1.00000
     33      -1.9532      1.00000
     34      -1.6980      1.00000
     35      -0.8149      1.00000
     36      -0.8149      1.00000
     37      -0.7372      1.00000
     38      -0.7372      1.00000
     39      -0.4628      1.00000
     40      -0.1190      1.00000
     41       0.1550      1.00000
     42       0.2527      1.00000
     43       0.4051      1.00000
     44       0.4051      1.00000
     45       0.4074      1.00000
     46       0.4421      1.00000
     47       0.4421      1.00000
     48       0.6789      1.00000
     49       0.8912      1.00000
     50       1.0321      1.00000
     51       1.0321      1.00000
     52       1.4628      1.00000
     53       1.4628      1.00000
     54       1.5941      1.00000
     55       1.7914      1.00000
     56       1.8270      1.00000
     57       2.0706      1.00000
     58       2.0706      1.00000
     59       2.1048      1.00000
     60       2.1246      1.00000
     61       2.1246      1.00000
     62       2.2513      1.00000
     63       2.3236      1.00000
     64       2.3943      1.00000
     65       2.6294      1.00000
     66       2.6294      1.00000
     67       2.7266      1.00000
     68       2.9031      1.00000
     69       2.9471      1.00000
     70       2.9594      1.00000
     71       3.0878      1.00000
     72       3.0878      1.00000
     73       3.6996      1.00000
     74       3.6996      1.00000
     75       3.8020      1.00000
     76       3.8020      1.00000
     77       3.9379      1.00000
     78       4.0429      1.00000
     79       4.1994      1.00000
     80       4.2239      1.00000
     81       4.6465      0.00000
     82       4.9066      0.00000
     83       4.9066      0.00000
     84       4.9236      0.00000
     85       4.9237      0.00000
     86       4.9875      0.00000
     87       5.1895      0.00000
     88       5.2514      0.00000
     89       5.2516      0.00000
     90       5.3045      0.00000
     91       5.3047      0.00000
     92       5.5561      0.00000
     93       5.8562      0.00000
     94       5.9415      0.00000
     95       5.9834      0.00000
     96       6.0019      0.00000
     97       6.7095      0.00000
     98       6.7237      0.00000
     99       7.2121      0.00000
    100       7.9310      0.00000

 k-point     2 :       0.1429   -0.0000    0.0000
  band No.  band energies     occupation 
      1     -50.2234      1.00000
      2     -50.2130      1.00000
      3     -50.2075      1.00000
      4     -50.2001      1.00000
      5     -50.1402      1.00000
      6     -50.0652      1.00000
      7     -50.0572      1.00000
      8     -50.0517      1.00000
      9     -50.0416      1.00000
     10     -50.0011      1.00000
     11     -49.9180      1.00000
     12     -49.7759      1.00000
     13     -47.5409      1.00000
     14     -47.5384      1.00000
     15     -47.5374      1.00000
     16     -47.5365      1.00000
     17     -47.5183      1.00000
     18     -47.3652      1.00000
     19     -47.2736      1.00000
     20     -47.1866      1.00000
     21     -47.1866      1.00000
     22     -47.1856      1.00000
     23     -47.1825      1.00000
     24     -47.1168      1.00000
     25     -10.2660      1.00000
     26      -9.1886      1.00000
     27      -8.9134      1.00000
     28      -8.8383      1.00000
     29      -8.6396      1.00000
     30      -8.6294      1.00000
     31      -8.3205      1.00000
     32      -8.0773      1.00000
     33      -1.9032      1.00000
     34      -1.6175      1.00000
     35      -0.8239      1.00000
     36      -0.8019      1.00000
     37      -0.7627      1.00000
     38      -0.7075      1.00000
     39      -0.5165      1.00000
     40      -0.1102      1.00000
     41       0.1462      1.00000
     42       0.2375      1.00000
     43       0.3457      1.00000
     44       0.3565      1.00000
     45       0.4266      1.00000
     46       0.4831      1.00000
[...]
         0         1         2         3         4         5         6         7         8         9
 total charge-density along one line
 
 soft charge-density along one line, spin component           2
         0         1         2         3         4         5         6         7         8         9
 total charge-density along one line
 
 pseudopotential strength for first ion, spin component:           1
-54.611   0.030  -0.000  27.922  -0.025   0.000  -0.000  -0.000
  0.030 -54.687   0.000  -0.025  27.979  -0.000   0.000   0.000
 -0.000   0.000 -54.525   0.000  -0.000  27.854   0.000   0.000
 27.922  -0.025   0.000  -9.826   0.018  -0.000   0.000   0.000
 -0.025  27.979  -0.000   0.018  -9.865   0.000  -0.000  -0.000
  0.000  -0.000  27.854  -0.000   0.000  -9.781  -0.000  -0.000
 -0.000   0.000   0.000   0.000  -0.000  -0.000  -8.435   0.000
 -0.000   0.000   0.000   0.000  -0.000  -0.000   0.000  -8.251
 -0.000  -0.000   0.000   0.000   0.000  -0.000   0.000  -0.044
  0.000  -0.000  -0.000  -0.000   0.000   0.000  -0.041  -0.000
 -0.000  -0.000  -0.000   0.000   0.000   0.000  -0.000  -0.100
  0.000  -0.000  -0.000  -0.000   0.000   0.000  -0.174  -0.000
  0.000  -0.000  -0.000  -0.000   0.000   0.000  -0.000  -0.219
  0.000   0.000  -0.000  -0.000  -0.000   0.000  -0.000   0.011
 -0.000   0.000   0.000   0.000  -0.000  -0.000   0.009   0.000
  0.000   0.000   0.000  -0.000  -0.000  -0.000   0.000   0.024
 -0.000   0.000   0.000   0.000  -0.000  -0.000   0.000  -0.008
  0.000  -0.000  -0.000  -0.000   0.000   0.000  -0.000   0.001
 pseudopotential strength for first ion, spin component:           2
-52.540   0.102  -0.000  26.338  -0.074   0.000  -0.000  -0.000
  0.102 -52.568   0.000  -0.074  26.358  -0.000   0.000   0.000
 -0.000   0.000 -52.516   0.000  -0.000  26.312   0.000   0.000
 26.338  -0.074   0.000  -8.706   0.054  -0.000   0.000   0.000
 -0.074  26.358  -0.000   0.054  -8.721   0.000  -0.000  -0.000
  0.000  -0.000  26.312  -0.000   0.000  -8.691  -0.000  -0.000
 -0.000   0.000   0.000   0.000  -0.000  -0.000  -6.370   0.000
 -0.000   0.000   0.000   0.000  -0.000  -0.000   0.000  -6.727
 -0.000  -0.000   0.000   0.000   0.000  -0.000   0.000   0.112
  0.000  -0.000  -0.000  -0.000   0.000   0.000   0.114  -0.000
 -0.000  -0.000  -0.000   0.000   0.000   0.000  -0.000   0.026
  0.000  -0.000  -0.000  -0.000   0.000   0.000  -0.657  -0.000
  0.000  -0.000  -0.000  -0.000   0.000   0.000  -0.000  -0.574
  0.000   0.000  -0.000  -0.000  -0.000   0.000  -0.000  -0.024
 -0.000   0.000   0.000   0.000  -0.000  -0.000  -0.025   0.000
  0.000   0.000   0.000  -0.000  -0.000  -0.000   0.000  -0.007
 -0.000   0.000   0.000   0.000  -0.000  -0.000   0.000  -0.013
  0.000  -0.000  -0.000  -0.000   0.000   0.000  -0.000   0.003
 total augmentation occupancy for first ion, spin component:           1
  2.011  -0.018   0.000   0.058  -0.044  -0.000  -0.000   0.000   0.000   0.000   0.000  -0.000   0.000   0.000  -0.000   0.000
 -0.018   2.014   0.000  -0.044   0.067  -0.000   0.000  -0.000   0.000   0.000   0.000   0.000   0.000   0.000  -0.000   0.000
  0.000   0.000   2.011  -0.000   0.000   0.055  -0.000  -0.000  -0.000  -0.000   0.000   0.000   0.000   0.000   0.000  -0.000
  0.058  -0.044   0.000   0.198  -0.106  -0.000   0.000  -0.000   0.000   0.000  -0.000   0.000   0.000  -0.000  -0.000   0.000
 -0.044   0.067  -0.000  -0.106   0.221   0.000  -0.000   0.000   0.000   0.000   0.000   0.000  -0.000   0.000   0.000   0.000
 -0.000   0.000   0.055   0.000   0.000   0.182   0.000   0.000  -0.000   0.000   0.000   0.000   0.000   0.000   0.000   0.000
 -0.000   0.000  -0.000   0.000  -0.000   0.000   1.261   0.000  -0.000  -0.101  -0.000  -0.059  -0.000   0.000  -0.058  -0.000
  0.000   0.000  -0.000   0.000   0.000   0.000  -0.000   1.462  -0.024  -0.000  -0.096  -0.000   0.096  -0.149  -0.000   0.092
 -0.000   0.000  -0.000  -0.000   0.000  -0.000   0.000  -0.024   1.302   0.000  -0.139  -0.000  -0.151   0.085   0.000  -0.081
  0.000   0.000  -0.000   0.000   0.000   0.000  -0.101  -0.000   0.000   1.265  -0.000  -0.059   0.000   0.000  -0.031   0.000
  0.000   0.000   0.000   0.000   0.000   0.000  -0.000  -0.096  -0.139  -0.000   1.511   0.000   0.096  -0.079  -0.000   0.172
 -0.000  -0.000   0.000   0.000   0.000   0.000  -0.059  -0.000   0.000  -0.059   0.000   0.171  -0.000   0.000  -0.026  -0.000
 -0.000  -0.000   0.000  -0.000  -0.000   0.000   0.000   0.096  -0.151   0.000   0.096  -0.000   0.249  -0.073  -0.000   0.090
  0.000   0.000   0.000   0.000  -0.000   0.000   0.000  -0.149   0.085  -0.000  -0.079   0.000  -0.073   0.174  -0.000  -0.016
 -0.000  -0.000   0.000  -0.000   0.000  -0.000  -0.058  -0.000   0.000  -0.031   0.000  -0.026  -0.000  -0.000   0.164  -0.000
  0.000   0.000  -0.000   0.000   0.000   0.000  -0.000   0.092  -0.081   0.000   0.172   0.000   0.090  -0.016  -0.000   0.143
  0.000  -0.000   0.000   0.000  -0.000  -0.000   0.000  -0.005  -0.047   0.000   0.089   0.000  -0.316   0.028   0.000  -0.004
 -0.000   0.000  -0.000   0.000  -0.000  -0.000  -0.000   0.005   0.023   0.000  -0.014   0.000   0.021  -0.006   0.000   0.003
 total augmentation occupancy for first ion, spin component:           2
 -0.005   0.000  -0.000  -0.002  -0.000  -0.000  -0.000   0.000   0.000   0.000  -0.000  -0.000   0.000  -0.000  -0.000   0.000
  0.000  -0.007  -0.000  -0.000  -0.007   0.000   0.000   0.000   0.000   0.000   0.000  -0.000   0.000  -0.000   0.000  -0.000
 -0.000   0.000  -0.007   0.000   0.000  -0.004   0.000   0.000   0.000   0.000   0.000   0.000   0.000  -0.000  -0.000  -0.000
 -0.002  -0.000  -0.000   0.014  -0.002  -0.000  -0.000   0.000   0.000   0.000   0.000   0.000  -0.000   0.000  -0.000   0.000
 -0.000  -0.007   0.000  -0.002   0.002   0.000   0.000   0.000  -0.000   0.000   0.000   0.000   0.000  -0.000  -0.000   0.000
 -0.000   0.000  -0.004  -0.000   0.000   0.012   0.000  -0.000   0.000  -0.000  -0.000   0.000   0.000   0.000   0.000  -0.000
 -0.000   0.000  -0.000  -0.000   0.000   0.000   0.688   0.000  -0.000   0.120  -0.000  -0.271   0.000   0.000   0.004   0.000
 -0.000  -0.000   0.000   0.000   0.000  -0.000   0.000   0.377   0.123   0.000   0.050  -0.000  -0.192  -0.011  -0.000  -0.030
  0.000   0.000   0.000   0.000   0.000   0.000   0.000   0.123   0.526   0.000   0.176   0.000  -0.010  -0.209  -0.000  -0.023
  0.000   0.000   0.000   0.000   0.000   0.000   0.120  -0.000  -0.000   0.658  -0.000   0.006  -0.000  -0.000  -0.264  -0.000
 -0.000   0.000   0.000   0.000   0.000  -0.000  -0.000   0.050   0.176  -0.000   0.238   0.000  -0.017  -0.017  -0.000  -0.147
 -0.000   0.000   0.000   0.000   0.000  -0.000  -0.271   0.000   0.000   0.006   0.000   0.054   0.000   0.000   0.006   0.000
  0.000   0.000   0.000   0.000   0.000   0.000  -0.000  -0.192  -0.010  -0.000  -0.017   0.000   0.007   0.026  -0.000  -0.002
  0.000   0.000  -0.000   0.000  -0.000   0.000   0.000  -0.011  -0.209   0.000  -0.017  -0.000   0.026   0.006   0.000   0.007
 -0.000   0.000   0.000  -0.000  -0.000   0.000   0.004   0.000   0.000  -0.264   0.000   0.006  -0.000  -0.000   0.037  -0.000
  0.000   0.000  -0.000   0.000  -0.000  -0.000   0.000  -0.030  -0.023   0.000  -0.147  -0.000  -0.002   0.007  -0.000  -0.017
 -0.000  -0.000   0.000   0.000   0.000  -0.000   0.000   0.117   0.030  -0.000  -0.046  -0.000  -0.031   0.003   0.000  -0.023
  0.000  -0.000   0.000  -0.000  -0.000  -0.000   0.000   0.018   0.018   0.000  -0.016  -0.000  -0.003  -0.003   0.000  -0.000


------------------------ aborting loop because EDIFF is reached ----------------------------------------





 total charge

# of ion       s       p       d       tot
------------------------------------------
    1        0.347   6.303   6.093  12.744
    2        0.347   6.303   6.093  12.744
    3        0.347   6.303   6.093  12.744
    4        0.347   6.303   6.093  12.744
    5        0.347   6.303   6.093  12.744
    6        0.347   6.303   6.093  12.744
    7        0.347   6.303   6.093  12.744
    8        0.347   6.303   6.093  12.744
    9        1.494   2.257   0.061   3.812
   10        1.494   2.257   0.061   3.812
   11        1.494   2.257   0.061   3.812
   12        1.494   2.257   0.061   3.812
   13        1.494   2.257   0.061   3.812
   14        1.494   2.257   0.061   3.812
   15        1.494   2.257   0.061   3.812
   16        1.494   2.257   0.061   3.812
--------------------------------------------------
tot         14.726  68.482  49.236 132.444



 magnetization (x)

# of ion       s       p       d       tot
------------------------------------------
    1        0.026   0.014   2.429   2.469
    2       -0.026  -0.014  -2.429  -2.469
    3       -0.026  -0.014  -2.429  -2.469
    4        0.026   0.014   2.429   2.469
    5        0.026   0.014   2.429   2.469
    6       -0.026  -0.014  -2.429  -2.469
    7       -0.026  -0.014  -2.429  -2.469
    8        0.026   0.014   2.429   2.469
    9        0.000   0.000   0.000   0.000
   10        0.000   0.000   0.000   0.000
   11        0.000   0.000   0.000   0.000
   12        0.000   0.000   0.000   0.000
   13        0.000   0.000   0.000   0.000
   14        0.000   0.000   0.000   0.000
   15        0.000   0.000   0.000   0.000
   16        0.000   0.000   0.000   0.000
--------------------------------------------------
tot         -0.000   0.000  -0.000  -0.000
 
    CHARGE:  cpu time      0.6152: real time      0.6179
    FORLOC:  cpu time      0.0023: real time      0.0023
    FORNL :  cpu time      5.2925: real time      5.3100
    STRESS:  cpu time     15.7607: real time     15.8143
    FORCOR:  cpu time      0.0378: real time      0.0380
    FORHAR:  cpu time      0.0053: real time      0.0053
    MIXING:  cpu time      0.0010: real time      0.0010
    OFIELD:  cpu time      0.0000: real time      0.0000
    FORVDW:  cpu time      0.8046: real time      0.8068

  FORCE on cell =-STRESS in cart. coord.  units (eV):
  Direction    XX          YY          ZZ          XY          YZ          ZX
  --------------------------------------------------------------------------------------
  Alpha Z   872.68586   872.68586   872.68586
  Ewald   -1389.41514 -2169.68596 -8248.07384    -0.00000    -0.00000     0.00000
  Hartree  5150.81244  4456.40854 -1123.89165    -0.00000    -0.00000    -0.00000
  E(xc)    -897.63648  -899.94918  -898.99160     0.00000     0.00000    -0.00000
  Local   -5686.88370 -4223.99910  7466.68529     0.00000     0.00000    -0.00000
  n-local  -278.38219  -251.03219  -243.12485    -0.73316    -0.38716    -0.76672
  augment   528.81577   515.44244   511.68852     0.00000    -0.00000     0.00000
  Kinetic  1706.48917  1706.57722  1669.46295     3.78012    -0.17140     0.57662
  Fock        0.00000     0.00000     0.00000     0.00000     0.00000     0.00000
  vdW        -6.62928    -6.66677    -6.94151     0.00000     0.00000    -0.00000
  -------------------------------------------------------------------------------------
  Total      -0.14355    -0.21913    -0.50083     0.00000     0.00000     0.00000
  in kB      -0.79035    -1.20647    -2.75745     0.00000     0.00000     0.00000
  external pressure =       -1.58 kB  Pullay stress =        0.00 kB


 VOLUME and BASIS-vectors are now :
 -----------------------------------------------------------------------------
  energy-cutoff  :      550.00
  volume of cell :      291.00
      direct lattice vectors                 reciprocal lattice vectors
     4.764939639 -5.559217425  0.000000000     0.104933124 -0.089940717  0.000000000
     4.764939639  5.559217425  0.000000000     0.104933124  0.089940717  0.000000000
     0.000000000  0.000000000  5.492776524     0.000000000  0.000000000  0.182057288

  length of vectors
     7.321854147  7.321854147  5.492776524     0.138203810  0.138203810  0.182057288


 FORCES acting on ions
    electron-ion (+dipol)            ewald-force                    non-local-force                 convergence-correction
 -----------------------------------------------------------------------------------------------
   -.313E-12 -.414E-13 0.217E-13   -.128E-12 0.128E-12 0.711E-13   0.178E-21 0.145E-23 -.128E-22   0.455E-12 -.265E-11 0.401E-11
   0.976E-12 0.142E-11 0.460E-13   -.129E-12 0.128E-12 0.435E-13   -.858E-22 -.144E-21 -.118E-21   0.138E-11 -.234E-11 0.791E-12
   0.804E-12 0.609E-12 0.348E-10   -.116E-12 0.142E-12 0.711E-13   0.139E-21 -.259E-21 -.993E-22   -.343E-12 0.285E-11 -.210E-11
   0.699E-11 0.960E-11 0.156E-10   -.128E-12 0.131E-12 0.391E-13   -.137E-22 -.564E-22 0.424E-23   -.103E-11 0.241E-11 0.484E-12
   0.501E-11 0.412E-11 0.724E-11   0.829E-13 -.426E-13 0.373E-13   0.391E-22 -.136E-21 0.557E-22   0.133E-11 -.108E-11 -.433E-12
   -.283E-12 -.336E-11 0.779E-11   0.853E-13 -.284E-13 0.213E-13   -.125E-21 0.353E-21 -.875E-22   0.135E-12 -.851E-12 -.958E-12
   -.208E-10 -.253E-10 -.459E-10   0.853E-13 -.675E-13 0.533E-13   -.202E-22 0.305E-21 -.131E-21   -.224E-11 0.134E-11 -.260E-12
   0.139E-11 0.456E-11 -.442E-10   0.888E-13 -.284E-13 0.568E-13   -.217E-21 0.295E-22 -.311E-22   -.115E-11 0.788E-12 0.382E-11
   -.177E-07 0.240E-11 0.307E+03   0.280E-13 -.426E-13 -.308E+03   -.199E-17 -.784E-17 0.104E+01   0.163E-12 -.147E-12 0.886E-01
   -.177E-07 -.195E-11 0.307E+03   0.284E-13 -.354E-13 -.308E+03   0.336E-17 0.126E-17 0.104E+01   0.717E-13 0.639E-13 0.886E-01
   -.177E-07 0.522E-11 0.307E+03   0.284E-13 -.494E-13 -.308E+03   -.622E-17 0.163E-17 0.104E+01   0.235E-12 0.501E-12 0.886E-01
   -.177E-07 -.758E-12 0.307E+03   0.290E-13 -.497E-13 -.308E+03   0.534E-17 0.226E-17 0.104E+01   -.450E-12 -.439E-12 0.886E-01
   0.177E-07 -.183E-12 -.307E+03   0.176E-13 -.500E-13 0.308E+03   -.817E-18 0.247E-17 -.104E+01   -.370E-12 0.391E-12 -.886E-01
   0.177E-07 -.396E-12 -.307E+03   0.145E-13 -.391E-13 0.308E+03   -.108E-17 0.146E-17 -.104E+01   -.699E-12 0.524E-12 -.886E-01
   0.177E-07 0.500E-12 -.307E+03   0.137E-13 -.607E-13 0.308E+03   0.187E-17 0.145E-17 -.104E+01   0.672E-12 -.103E-12 -.886E-01
   0.177E-07 0.372E-12 -.307E+03   0.101E-13 -.564E-13 0.308E+03   0.194E-17 0.433E-18 -.104E+01   0.507E-12 -.725E-12 -.886E-01
 -----------------------------------------------------------------------------------------------
   -.114E-10 -.318E-11 -.343E-10   0.119E-13 -.212E-13 0.171E-12   0.240E-17 0.312E-17 -.178E-14   -.133E-11 0.529E-12 0.456E-11
 
 
 POSITION                                       TOTAL-FORCE (eV/Angst)
 -----------------------------------------------------------------------------------
     -0.00000     -0.00000     -0.00000        -0.000000      0.000000      0.000000
      2.38247      2.77961     -0.00000        -0.000000      0.000000      0.000000
      2.38247     -2.77961     -0.00000        -0.000000      0.000000      0.000000
      4.76494      0.00000     -0.00000        -0.000000      0.000000      0.000000
      2.38247      0.00000     -0.00000        -0.000000      0.000000      0.000000
      4.76494      2.77961     -0.00000        -0.000000      0.000000      0.000000
      4.76494     -2.77961     -0.00000        -0.000000      0.000000      0.000000
      7.14741      0.00000     -0.00000        -0.000000      0.000000      0.000000
      2.38247     -1.38980      3.67254        -0.000000      0.000000      0.002709
      4.76494      1.38980      3.67254         0.000000      0.000000      0.002709
      4.76494     -4.16941      3.67254         0.000000      0.000000      0.002709
      7.14741     -1.38980      3.67254        -0.000000     -0.000000      0.002709
      2.38247      1.38980      1.82024         0.000000      0.000000     -0.002709
      4.76494      4.16941      1.82024         0.000000     -0.000000     -0.002709
      4.76494     -1.38980      1.82024        -0.000000     -0.000000     -0.002709
      7.14741      1.38980      1.82024        -0.000000      0.000000     -0.002709
 -----------------------------------------------------------------------------------
    total drift:                               -0.000000     -0.000000     -0.000000


--------------------------------------------------------------------------------------------------------



  FREE ENERGIE OF THE ION-ELECTRON SYSTEM (eV)
  ---------------------------------------------------
  free  energy   TOTEN  =       -98.39106566 eV

  energy  without entropy=      -98.36852135  energy(sigma->0) =      -98.37979350
 
 d Force =-0.5204794E-05[-0.258E-05,-0.782E-05]  d Energy =-0.3803955E-04 0.328E-04
 d Force = 0.2939517E+00[ 0.294E+00, 0.294E+00]  d Ewald  = 0.6578069E-01 0.228E+00


--------------------------------------------------------------------------------------------------------


    POTLOK:  cpu time      0.3332: real time      0.3341


--------------------------------------------------------------------------------------------------------




--------------------------------------------------------------------------------------------------------


  
 reached required accuracy - stopping structural energy minimisation
     LOOP+:  cpu time     60.8449: real time     61.1451
    4ORBIT:  cpu time      0.0000: real time      0.0000



 total charge

# of ion       s       p       d       tot
------------------------------------------
    1        0.347   6.303   6.093  12.744
    2        0.347   6.303   6.093  12.744
    3        0.347   6.303   6.093  12.744
    4        0.347   6.303   6.093  12.744
    5        0.347   6.303   6.093  12.744
    6        0.347   6.303   6.093  12.744
    7        0.347   6.303   6.093  12.744
    8        0.347   6.303   6.093  12.744
    9        1.494   2.257   0.061   3.812
   10        1.494   2.257   0.061   3.812
   11        1.494   2.257   0.061   3.812
   12        1.494   2.257   0.061   3.812
   13        1.494   2.257   0.061   3.812
   14        1.494   2.257   0.061   3.812
   15        1.494   2.257   0.061   3.812
   16        1.494   2.257   0.061   3.812
--------------------------------------------------
tot         14.726  68.482  49.236 132.444



 magnetization (x)

# of ion       s       p       d       tot
------------------------------------------
    1        0.026   0.014   2.429   2.469
    2       -0.026  -0.014  -2.429  -2.469
    3       -0.026  -0.014  -2.429  -2.469
    4        0.026   0.014   2.429   2.469
    5        0.026   0.014   2.429   2.469
    6       -0.026  -0.014  -2.429  -2.469
    7       -0.026  -0.014  -2.429  -2.469
    8        0.026   0.014   2.429   2.469
    9        0.000   0.000   0.000   0.000
   10        0.000   0.000   0.000   0.000
   11        0.000   0.000   0.000   0.000
   12        0.000   0.000   0.000   0.000
   13        0.000   0.000   0.000   0.000
   14        0.000   0.000   0.000   0.000
   15        0.000   0.000   0.000   0.000
   16        0.000   0.000   0.000   0.000
--------------------------------------------------
tot         -0.000   0.000  -0.000  -0.000
 

 total amount of memory used by VASP MPI-rank0   172445. kBytes
=======================================================================

   base      :      30000. kBytes
   nonlr-proj:      11355. kBytes
   fftplans  :       2458. kBytes
   grid      :      15239. kBytes
   one-center:        497. kBytes
   wavefun   :     112896. kBytes
 
  
  
 General timing and accounting informations for this job:
 ========================================================
  
                  Total CPU time used (sec):      466.196
                            User time (sec):      464.525
                          System time (sec):        1.671
                         Elapsed time (sec):      469.449
  
                   Maximum memory used (kb):      444616.
                   Average memory used (kb):          N/A
  
                          Minor page faults:       181848
                          Major page faults:            0
                 Voluntary context switches:        21852
