 running   20 mpi-ranks, on    5 nodes
 distrk:  each k-point on   20 cores,    1 groups
 distr:  one band on    1 cores,   20 groups
 vasp.6.4.1 05Apr23 (build Jun 01 2023 13:46:15) complex                        
  
 POSCAR found type information on POSCAR FeSe
 POSCAR found :  2 types and      16 ions
 Reading from existing POTCAR
 scaLAPACK will be used
 -----------------------------------------------------------------------------
|                                                                             |
|           W    W    AA    RRRRR   N    N  II  N    N   GGGG   !!!           |
|           W    W   A  A   R    R  NN   N  II  NN   N  G    G  !!!           |
|           W    W  A    A  R    R  N N  N  II  N N  N  G       !!!           |
|           W WW W  AAAAAA  RRRRR   N  N N  II  N  N N  G  GGG   !            |
|           WW  WW  A    A  R   R   N   NN  II  N   NN  G    G                |
|           W    W  A    A  R    R  N    N  II  N    N   GGGG   !!!           |
|                                                                             |
|     For optimal performance we recommend to set                             |
|       NCORE = 2 up to number-of-cores-per-socket                            |
|     NCORE specifies how many cores store one orbital (NPAR=cpu/NCORE).      |
|     This setting can greatly improve the performance of VASP for DFT.       |
|     The default, NCORE=1 might be grossly inefficient on modern             |
|     multi-core architectures or massively parallel machines. Do your        |
|     own testing! More info at https://www.vasp.at/wiki/index.php/NCORE      |
|     Unfortunately you need to use the default for GW and RPA                |
|     calculations (for HF NCORE is supported but not extensively tested      |
|     yet).                                                                   |
|                                                                             |
 -----------------------------------------------------------------------------

 Reading from existing POTCAR
 LDA part: xc-table for Pade appr. of Perdew
 POSCAR, INCAR and KPOINTS ok, starting setup
 FFT: planning ... GRIDC
 FFT: planning ... GRID_SOFT
 FFT: planning ... GRID
 WAVECAR not read
 WARNING: random wavefunctions but no delay for mixing, default for NELMDL
 entering main loop
       N       E                     dE             d eps       ncg     rms          rms(c)
DAV:   1     0.204182756962E+04    0.20418E+04   -0.88861E+04 34080   0.200E+03
DAV:   2     0.120796006740E+03   -0.19210E+04   -0.18647E+04 32000   0.587E+02
DAV:   3    -0.842318019447E+02   -0.20503E+03   -0.18198E+03 45080   0.192E+02
DAV:   4    -0.981952892638E+02   -0.13963E+02   -0.13598E+02 46320   0.510E+01
DAV:   5    -0.985239208652E+02   -0.32863E+00   -0.32783E+00 45480   0.828E+00    0.269E+01
RMM:   6    -0.112158775269E+03   -0.13635E+02   -0.15904E+02 34743   0.823E+01    0.488E+01
RMM:   7    -0.905314572852E+02    0.21627E+02   -0.40612E+01 32079   0.488E+01    0.955E+00
RMM:   8    -0.910808009845E+02   -0.54934E+00   -0.34244E+00 46103   0.519E+00    0.433E+00
RMM:   9    -0.911338383800E+02   -0.53037E-01   -0.82106E-01 52045   0.269E+00    0.232E+00
RMM:  10    -0.911407429509E+02   -0.69046E-02   -0.22439E-01 51557   0.143E+00    0.101E+00
RMM:  11    -0.911464567179E+02   -0.57138E-02   -0.44487E-02 50741   0.758E-01    0.376E-01
RMM:  12    -0.911506098877E+02   -0.41532E-02   -0.94403E-03 47631   0.322E-01    0.172E-01
RMM:  13    -0.911505657517E+02    0.44136E-04   -0.21965E-03 36119   0.162E-01    0.993E-02
RMM:  14    -0.911504870295E+02    0.78722E-04   -0.62893E-04 27452   0.106E-01
   1 F= -.98380570E+02 E0= -.98380570E+02  d E =0.000000E+00  mag=    -0.0000
 -----------------------------------------------------------------------------
|                                                                             |
|           W    W    AA    RRRRR   N    N  II  N    N   GGGG   !!!           |
|           W    W   A  A   R    R  NN   N  II  NN   N  G    G  !!!           |
|           W    W  A    A  R    R  N N  N  II  N N  N  G       !!!           |
|           W WW W  AAAAAA  RRRRR   N  N N  II  N  N N  G  GGG   !            |
|           WW  WW  A    A  R   R   N   NN  II  N   NN  G    G                |
|           W    W  A    A  R    R  N    N  II  N    N   GGGG   !!!           |
|                                                                             |
|     Tetrahedron method does not include variations of the Fermi             |
|     occupations, so forces and stress will be inaccurate. We suggest        |
|     using a different smearing scheme ISMEAR = 1 or 2 for metals in         |
|     relaxations.                                                            |
|                                                                             |
 -----------------------------------------------------------------------------

