 running   24 mpi-ranks, on    1 nodes
 distrk:  each k-point on   24 cores,    1 groups
 distr:  one band on    1 cores,   24 groups
 vasp.6.4.1 05Apr23 (build Jun 01 2023 13:46:15) complex                        
  
 POSCAR found type information on POSCAR FeSe
 POSCAR found :  2 types and      16 ions
 Reading from existing POTCAR
 scaLAPACK will be used
 -----------------------------------------------------------------------------
|                                                                             |
|           W    W    AA    RRRRR   N    N  II  N    N   GGGG   !!!           |
|           W    W   A  A   R    R  NN   N  II  NN   N  G    G  !!!           |
|           W    W  A    A  R    R  N N  N  II  N N  N  G       !!!           |
|           W WW W  AAAAAA  RRRRR   N  N N  II  N  N N  G  GGG   !            |
|           WW  WW  A    A  R   R   N   NN  II  N   NN  G    G                |
|           W    W  A    A  R    R  N    N  II  N    N   GGGG   !!!           |
|                                                                             |
|     For optimal performance we recommend to set                             |
|       NCORE = 2 up to number-of-cores-per-socket                            |
|     NCORE specifies how many cores store one orbital (NPAR=cpu/NCORE).      |
|     This setting can greatly improve the performance of VASP for DFT.       |
|     The default, NCORE=1 might be grossly inefficient on modern             |
|     multi-core architectures or massively parallel machines. Do your        |
|     own testing! More info at https://www.vasp.at/wiki/index.php/NCORE      |
|     Unfortunately you need to use the default for GW and RPA                |
|     calculations (for HF NCORE is supported but not extensively tested      |
|     yet).                                                                   |
|                                                                             |
 -----------------------------------------------------------------------------

 Reading from existing POTCAR
 LDA part: xc-table for Pade appr. of Perdew
 POSCAR, INCAR and KPOINTS ok, starting setup
 FFT: planning ... GRIDC
 FFT: planning ... GRID_SOFT
 FFT: planning ... GRID
 WAVECAR not read
 WARNING: random wavefunctions but no delay for mixing, default for NELMDL
 entering main loop
       N       E                     dE             d eps       ncg     rms          rms(c)
DAV:   1     0.195896265734E+04    0.19590E+04   -0.90677E+04 95784   0.203E+03
DAV:   2     0.951062429434E+02   -0.18639E+04   -0.18306E+04 84984   0.576E+02
DAV:   3    -0.939405219992E+02   -0.18905E+03   -0.18305E+03124080   0.183E+02
DAV:   4    -0.104868983863E+03   -0.10928E+02   -0.10867E+02120384   0.458E+01
DAV:   5    -0.105178452832E+03   -0.30947E+00   -0.30900E+00113856   0.729E+00    0.255E+01
RMM:   6    -0.111060506545E+03   -0.58821E+01   -0.12694E+02 84871   0.793E+01    0.366E+01
RMM:   7    -0.966916002006E+02    0.14369E+02   -0.33728E+01 85074   0.457E+01    0.126E+01
RMM:   8    -0.990682610675E+02   -0.23767E+01   -0.70899E+00 96356   0.136E+01    0.246E+01
RMM:   9    -0.959755446830E+02    0.30927E+01   -0.56069E+00 93099   0.129E+01    0.191E+00
RMM:  10    -0.964124217346E+02   -0.43688E+00   -0.20437E+00120079   0.455E+00    0.942E+00
RMM:  11    -0.961442121515E+02    0.26821E+00   -0.34305E-01102505   0.261E+00    0.151E+00
RMM:  12    -0.961519947238E+02   -0.77826E-02   -0.17112E-01 87057   0.237E+00    0.216E+00
RMM:  13    -0.961470644398E+02    0.49303E-02   -0.80108E-02103666   0.819E-01    0.182E+00
RMM:  14    -0.961305694599E+02    0.16495E-01   -0.50174E-02 95877   0.116E+00    0.706E-01
RMM:  15    -0.961411421747E+02   -0.10573E-01   -0.18056E-02110727   0.508E-01    0.964E-01
RMM:  16    -0.961346630332E+02    0.64791E-02   -0.12890E-02 99014   0.584E-01    0.534E-01
RMM:  17    -0.961319940817E+02    0.26690E-02   -0.89200E-03 87893   0.468E-01    0.193E-01
RMM:  18    -0.961326128567E+02   -0.61878E-03   -0.48501E-03 87726   0.224E-01    0.625E-02
RMM:  19    -0.961327907897E+02   -0.17793E-03   -0.10844E-03 68420   0.135E-01
   1 F= -.10132809E+03 E0= -.10131355E+03  d E =-.101328E+03  mag=    -0.0000
 curvature:   0.00 expect dE= 0.000E+00 dE for cont linesearch  0.000E+00
 trial: gam= 0.00000 g(F)=  0.386E-01 g(S)=  0.218E-02 ort = 0.000E+00 (trialstep = 0.100E+01)
 search vector abs. value=  0.408E-01
 bond charge predicted
       N       E                     dE             d eps       ncg     rms          rms(c)
DAV:   1    -0.961613309007E+02   -0.28718E-01   -0.20128E+00115224   0.514E+00    0.111E+00
RMM:   2    -0.962855317654E+02   -0.12420E+00   -0.25933E-01 86328   0.327E+00    0.530E+00
RMM:   3    -0.961616037311E+02    0.12393E+00   -0.10319E-01 88534   0.230E+00    0.608E-01
RMM:   4    -0.961623345787E+02   -0.73085E-03   -0.28119E-02 94583   0.102E+00    0.544E-01
RMM:   5    -0.961705365743E+02   -0.82020E-02   -0.12019E-02 97238   0.611E-01    0.175E+00
RMM:   6    -0.961616569961E+02    0.88796E-02   -0.46901E-03 83880   0.456E-01    0.512E-01
RMM:   7    -0.961608216754E+02    0.83532E-03   -0.21105E-03 85986   0.170E-01    0.291E-01
RMM:   8    -0.961601992965E+02    0.62238E-03   -0.72208E-04 62805   0.145E-01    0.103E-01
RMM:   9    -0.961604997727E+02   -0.30048E-03   -0.50217E-04 55603   0.119E-01    0.125E-01
RMM:  10    -0.961604232302E+02    0.76543E-04   -0.17511E-04 48541   0.914E-02
   2 F= -.10135313E+03 E0= -.10133850E+03  d E =-.250422E-01  mag=     0.0000
 trial-energy change:   -0.025042  1 .order   -0.026494   -0.040795   -0.012193
 step:   1.4263(harm=  1.4263)  dis= 0.02169  next Energy=  -101.357180 (dE=-0.291E-01)
 bond charge predicted
       N       E                     dE             d eps       ncg     rms          rms(c)
DAV:   1    -0.961638057791E+02   -0.33060E-02   -0.36652E-01103776   0.219E+00    0.473E-01
RMM:   2    -0.961866078980E+02   -0.22802E-01   -0.46743E-02 86445   0.139E+00    0.229E+00
RMM:   3    -0.961639915459E+02    0.22616E-01   -0.18725E-02 88654   0.976E-01    0.285E-01
RMM:   4    -0.961663250722E+02   -0.23335E-02   -0.58545E-03 93971   0.449E-01    0.882E-01
RMM:   5    -0.961642442008E+02    0.20809E-02   -0.22951E-03 74945   0.301E-01    0.300E-01
RMM:   6    -0.961639007673E+02    0.34343E-03   -0.77172E-04 63402   0.177E-01    0.153E-01
RMM:   7    -0.961639225330E+02   -0.21766E-04   -0.32089E-04 50912   0.743E-02
   3 F= -.10135557E+03 E0= -.10134095E+03  d E =-.274840E-01  mag=     0.0000
 curvature:  -0.71 expect dE=-0.142E-01 dE for cont linesearch -0.614E-05
 trial: gam= 0.47396 g(F)=  0.128E-02 g(S)=  0.186E-01 ort = 0.593E-03 (trialstep = 0.109E+01)
 search vector abs. value=  0.297E-01
 bond charge predicted
       N       E                     dE             d eps       ncg     rms          rms(c)
DAV:   1    -0.963323121969E+02   -0.16841E+00   -0.44055E+00101808   0.126E+01    0.310E+00
RMM:   2    -0.963071175254E+02    0.25195E-01   -0.63983E-01101335   0.511E+00    0.437E+00
RMM:   3    -0.964125615626E+02   -0.10544E+00   -0.45024E-01 91203   0.447E+00    0.706E+00
RMM:   4    -0.962293641873E+02    0.18320E+00   -0.23327E-01 89294   0.332E+00    0.314E+00
RMM:   5    -0.962985696306E+02   -0.69205E-01   -0.11958E-01 94530   0.199E+00    0.571E+00
RMM:   6    -0.962019707214E+02    0.96599E-01   -0.60766E-02 91849   0.160E+00    0.159E+00
RMM:   7    -0.961880578525E+02    0.13913E-01   -0.17107E-02106687   0.581E-01    0.816E-01
RMM:   8    -0.961860156686E+02    0.20422E-02   -0.54828E-03 87608   0.420E-01    0.610E-01
RMM:   9    -0.961873317834E+02   -0.13161E-02   -0.26805E-03 85793   0.206E-01    0.637E-01
RMM:  10    -0.961835585260E+02    0.37733E-02   -0.54729E-03114572   0.338E-01    0.512E-01
RMM:  11    -0.961835696057E+02   -0.11080E-04   -0.23570E-03 83246   0.305E-01    0.226E-01
RMM:  12    -0.961838805392E+02   -0.31093E-03   -0.62962E-04 60151   0.145E-01    0.100E-01
RMM:  13    -0.961839478622E+02   -0.67323E-04   -0.34583E-04 50943   0.109E-01
   4 F= -.10136942E+03 E0= -.10135445E+03  d E =-.138501E-01  mag=    -0.0000
 trial-energy change:   -0.013850  1 .order   -0.013860   -0.021932   -0.005788
 step:   1.4744(harm=  1.4744)  dis= 0.00958  next Energy=  -101.370469 (dE=-0.149E-01)
 bond charge predicted
       N       E                     dE             d eps       ncg     rms          rms(c)
DAV:   1    -0.962073060921E+02   -0.23426E-01   -0.57234E-01104376   0.456E+00    0.113E+00
RMM:   2    -0.962028572231E+02    0.44489E-02   -0.85568E-02102019   0.188E+00    0.144E+00
RMM:   3    -0.962196944879E+02   -0.16837E-01   -0.59353E-02 89338   0.165E+00    0.267E+00
RMM:   4    -0.961931824127E+02    0.26512E-01   -0.30524E-02 88531   0.121E+00    0.105E+00
RMM:   5    -0.962032948797E+02   -0.10112E-01   -0.15951E-02 91453   0.727E-01    0.208E+00
RMM:   6    -0.961881450698E+02    0.15150E-01   -0.80665E-03 86013   0.595E-01    0.115E-01
RMM:   7    -0.961886087687E+02   -0.46370E-03   -0.25094E-03 84493   0.162E-01    0.209E-01
RMM:   8    -0.961883828167E+02    0.22595E-03   -0.52060E-04 55749   0.123E-01    0.950E-02
RMM:   9    -0.961883643759E+02    0.18441E-04   -0.13235E-04 47557   0.759E-02
   5 F= -.10137170E+03 E0= -.10135667E+03  d E =-.161312E-01  mag=    -0.0000
 curvature:  -1.08 expect dE=-0.406E-02 dE for cont linesearch -0.692E-03
 trial: gam=-0.08003 g(F)=  0.120E-02 g(S)=  0.255E-02 ort = 0.435E-02 (trialstep = 0.116E+01)
 search vector abs. value=  0.325E-02
 bond charge predicted
       N       E                     dE             d eps       ncg     rms          rms(c)
DAV:   1    -0.961732521427E+02    0.15131E-01   -0.55930E-01 88752   0.137E+01    0.976E-01
RMM:   2    -0.962170020963E+02   -0.43750E-01   -0.31419E-01119825   0.334E+00    0.261E+00
RMM:   3    -0.961972973670E+02    0.19705E-01   -0.83696E-02 96162   0.195E+00    0.113E+00
RMM:   4    -0.961968537993E+02    0.44357E-03   -0.26286E-02 94493   0.105E+00    0.108E+00
RMM:   5    -0.961983829140E+02   -0.15291E-02   -0.12180E-02 99596   0.617E-01    0.120E+00
RMM:   6    -0.961962447594E+02    0.21382E-02   -0.42957E-03 83270   0.421E-01    0.748E-01
RMM:   7    -0.961914201749E+02    0.48246E-02   -0.24811E-03 80354   0.298E-01    0.286E-01
RMM:   8    -0.961919277497E+02   -0.50757E-03   -0.13475E-03 73106   0.177E-01    0.341E-01
RMM:   9    -0.961916601565E+02    0.26759E-03   -0.44432E-04 53869   0.134E-01    0.168E-01
RMM:  10    -0.961915482777E+02    0.11188E-03   -0.67516E-04 59135   0.158E-01
   6 F= -.10137378E+03 E0= -.10135888E+03  d E =-.207652E-02  mag=     0.0000
 trial-energy change:   -0.002077  1 .order   -0.002470   -0.003962   -0.000979
 step:   1.5449(harm=  1.5449)  dis= 0.00416  next Energy=  -101.374333 (dE=-0.263E-02)
 bond charge predicted
       N       E                     dE             d eps       ncg     rms          rms(c)
DAV:   1    -0.961900108916E+02    0.16493E-02   -0.59908E-02 90192   0.445E+00    0.316E-01
RMM:   2    -0.961948674240E+02   -0.48565E-02   -0.34441E-02120076   0.110E+00    0.874E-01
RMM:   3    -0.961926431009E+02    0.22243E-02   -0.89781E-03 92684   0.649E-01    0.392E-01
RMM:   4    -0.961933450432E+02   -0.70194E-03   -0.31779E-03 85847   0.366E-01    0.633E-01
RMM:   5    -0.961923144226E+02    0.10306E-02   -0.13979E-03 68670   0.239E-01    0.244E-01
RMM:   6    -0.961920297727E+02    0.28465E-03   -0.54021E-04 58788   0.161E-01    0.432E-02
RMM:   7    -0.961920936592E+02   -0.63886E-04   -0.24568E-04 49959   0.667E-02
   7 F= -.10137396E+03 E0= -.10135916E+03  d E =-.225733E-02  mag=    -0.0000
 curvature:  -0.74 expect dE=-0.987E-03 dE for cont linesearch -0.611E-04
 trial: gam= 0.42053 g(F)=  0.130E-02 g(S)=  0.355E-04 ort =-0.519E-03 (trialstep = 0.124E+01)
 search vector abs. value=  0.148E-02
 reached required accuracy - stopping structural energy minimisation
