 running   24 mpi-ranks, on    1 nodes
 distrk:  each k-point on   24 cores,    1 groups
 distr:  one band on    1 cores,   24 groups
 vasp.6.4.1 05Apr23 (build Jun 01 2023 13:46:15) complex                        
  
 POSCAR found type information on POSCAR FeSe
 POSCAR found :  2 types and      16 ions
 Reading from existing POTCAR
 scaLAPACK will be used
 -----------------------------------------------------------------------------
|                                                                             |
|           W    W    AA    RRRRR   N    N  II  N    N   GGGG   !!!           |
|           W    W   A  A   R    R  NN   N  II  NN   N  G    G  !!!           |
|           W    W  A    A  R    R  N N  N  II  N N  N  G       !!!           |
|           W WW W  AAAAAA  RRRRR   N  N N  II  N  N N  G  GGG   !            |
|           WW  WW  A    A  R   R   N   NN  II  N   NN  G    G                |
|           W    W  A    A  R    R  N    N  II  N    N   GGGG   !!!           |
|                                                                             |
|     For optimal performance we recommend to set                             |
|       NCORE = 2 up to number-of-cores-per-socket                            |
|     NCORE specifies how many cores store one orbital (NPAR=cpu/NCORE).      |
|     This setting can greatly improve the performance of VASP for DFT.       |
|     The default, NCORE=1 might be grossly inefficient on modern             |
|     multi-core architectures or massively parallel machines. Do your        |
|     own testing! More info at https://www.vasp.at/wiki/index.php/NCORE      |
|     Unfortunately you need to use the default for GW and RPA                |
|     calculations (for HF NCORE is supported but not extensively tested      |
|     yet).                                                                   |
|                                                                             |
 -----------------------------------------------------------------------------

 Reading from existing POTCAR
 LDA part: xc-table for Pade appr. of Perdew
 POSCAR, INCAR and KPOINTS ok, starting setup
 FFT: planning ... GRIDC
 FFT: planning ... GRID_SOFT
 FFT: planning ... GRID
 WAVECAR not read
 WARNING: random wavefunctions but no delay for mixing, default for NELMDL
 entering main loop
       N       E                     dE             d eps       ncg     rms          rms(c)
DAV:   1     0.195435951620E+04    0.19544E+04   -0.90545E+04 96072   0.203E+03
DAV:   2     0.953683104952E+02   -0.18590E+04   -0.18256E+04 85032   0.575E+02
DAV:   3    -0.939855919070E+02   -0.18935E+03   -0.18324E+03125016   0.182E+02
DAV:   4    -0.105036530133E+03   -0.11051E+02   -0.10987E+02121392   0.456E+01
DAV:   5    -0.105352075137E+03   -0.31555E+00   -0.31500E+00113088   0.728E+00    0.258E+01
RMM:   6    -0.112240370285E+03   -0.68883E+01   -0.13330E+02 84874   0.810E+01    0.381E+01
RMM:   7    -0.966234852565E+02    0.15617E+02   -0.35864E+01 85069   0.470E+01    0.114E+01
RMM:   8    -0.996737147919E+02   -0.30502E+01   -0.77872E+00 95356   0.140E+01    0.272E+01
RMM:   9    -0.960258552053E+02    0.36479E+01   -0.56194E+00 92071   0.131E+01    0.177E+00
RMM:  10    -0.962570343799E+02   -0.23118E+00   -0.19563E+00125128   0.407E+00    0.458E+00
RMM:  11    -0.962229550870E+02    0.34079E-01   -0.27746E-01119886   0.166E+00    0.205E+00
RMM:  12    -0.962285914209E+02   -0.56363E-02   -0.77203E-02 87536   0.160E+00    0.244E+00
RMM:  13    -0.961952837254E+02    0.33308E-01   -0.63122E-02 90462   0.115E+00    0.150E+00
RMM:  14    -0.962051445877E+02   -0.98609E-02   -0.57421E-02106783   0.918E-01    0.149E+00
RMM:  15    -0.962012869472E+02    0.38576E-02   -0.17342E-02107472   0.524E-01    0.113E+00
RMM:  16    -0.961892328073E+02    0.12054E-01   -0.47409E-02120685   0.111E+00    0.432E-01
RMM:  17    -0.961915853097E+02   -0.23525E-02   -0.81443E-03 84933   0.597E-01    0.228E-01
RMM:  18    -0.961918929523E+02   -0.30764E-03   -0.27017E-03 79569   0.250E-01    0.482E-02
RMM:  19    -0.961920055656E+02   -0.11261E-03   -0.72156E-04 61497   0.134E-01
   1 F= -.10137387E+03 E0= -.10135900E+03  d E =-.101374E+03  mag=    -0.0000
 curvature:   0.00 expect dE= 0.000E+00 dE for cont linesearch  0.000E+00
 trial: gam= 0.00000 g(F)=  0.131E-02 g(S)=  0.423E-04 ort = 0.000E+00 (trialstep = 0.100E+01)
 search vector abs. value=  0.135E-02
 bond charge predicted
       N       E                     dE             d eps       ncg     rms          rms(c)
DAV:   1    -0.961929399077E+02   -0.10470E-02   -0.64775E-02114192   0.130E+00    0.145E-01
RMM:   2    -0.961934674336E+02   -0.52753E-03   -0.58952E-03 96526   0.491E-01    0.243E-01
RMM:   3    -0.961936886176E+02   -0.22118E-03   -0.23048E-03 84995   0.297E-01    0.316E-01
RMM:   4    -0.961933572640E+02    0.33135E-03   -0.72288E-04 61750   0.188E-01    0.157E-01
RMM:   5    -0.961934189214E+02   -0.61657E-04   -0.31136E-04 48213   0.109E-01
   2 F= -.10137498E+03 E0= -.10136010E+03  d E =-.111016E-02  mag=    -0.0000
 trial-energy change:   -0.001110  1 .order   -0.000926   -0.001350   -0.000502
 step:   1.5923(harm=  1.5923)  dis= 0.00465  next Energy=  -101.374946 (dE=-0.107E-02)
 bond charge predicted
       N       E                     dE             d eps       ncg     rms          rms(c)
DAV:   1    -0.961935290420E+02   -0.17178E-03   -0.23023E-02120024   0.827E-01    0.101E-01
RMM:   2    -0.961937410198E+02   -0.21198E-03   -0.20548E-03 93478   0.286E-01    0.159E-01
RMM:   3    -0.961938549942E+02   -0.11397E-03   -0.76396E-04 68272   0.174E-01
   3 F= -.10137524E+03 E0= -.10136043E+03  d E =-.136846E-02  mag=    -0.0000
 curvature:  -0.80 expect dE=-0.135E-02 dE for cont linesearch -0.980E-06
 trial: gam= 1.28694 g(F)=  0.342E-03 g(S)=  0.135E-02 ort =-0.408E-04 (trialstep = 0.394E+00)
 search vector abs. value=  0.383E-02
 reached required accuracy - stopping structural energy minimisation
