  16  16   1   0
  0.1862500E+02  0.7386038E-09  0.7386038E-09  0.5530791E-09  0.5000000E-15
  1.000000000000000E-004
  CAR 
 unknown system                          
     11.90411351    -53.47346832  301      4.22497475      1.00000000
    -53.473  0.0000E+00  0.0000E+00  0.0000E+00  0.0000E+00
    -53.256  0.0000E+00  0.0000E+00  0.0000E+00  0.0000E+00
    -53.038  0.0000E+00  0.0000E+00  0.0000E+00  0.0000E+00
    -52.820  0.0000E+00  0.0000E+00  0.0000E+00  0.0000E+00
    -52.602  0.0000E+00  0.0000E+00  0.0000E+00  0.0000E+00
    -52.384  0.0000E+00  0.0000E+00  0.0000E+00  0.0000E+00
    -52.166  0.0000E+00  0.0000E+00  0.0000E+00  0.0000E+00
    -51.948  0.0000E+00  0.0000E+00  0.0000E+00  0.0000E+00
    -51.730  0.0000E+00  0.0000E+00  0.0000E+00  0.0000E+00
    -51.512  0.0000E+00  0.0000E+00  0.0000E+00  0.0000E+00
    -51.294  0.0000E+00  0.0000E+00  0.0000E+00  0.0000E+00
    -51.076  0.0000E+00  0.0000E+00  0.0000E+00  0.0000E+00
    -50.858  0.0000E+00  0.0000E+00  0.0000E+00  0.0000E+00
    -50.640  0.0000E+00  0.0000E+00  0.0000E+00  0.0000E+00
    -50.423  0.1835E+02  0.1835E+02  0.4000E+01  0.4000E+01
    -50.205  0.3484E+02  0.3484E+02  0.1008E+02  0.1008E+02
    -49.987  0.7866E+01  0.7866E+01  0.1200E+02  0.1200E+02
    -49.769  0.0000E+00  0.0000E+00  0.1200E+02  0.1200E+02
    -49.551  0.0000E+00  0.0000E+00  0.1200E+02  0.1200E+02
    -49.333  0.0000E+00  0.0000E+00  0.1200E+02  0.1200E+02
    -49.115  0.0000E+00  0.0000E+00  0.1200E+02  0.1200E+02
    -48.897  0.0000E+00  0.0000E+00  0.1200E+02  0.1200E+02
    -48.679  0.0000E+00  0.0000E+00  0.1200E+02  0.1200E+02
    -48.461  0.0000E+00  0.0000E+00  0.1200E+02  0.1200E+02
    -48.243  0.0000E+00  0.0000E+00  0.1200E+02  0.1200E+02
    -48.025  0.0000E+00  0.0000E+00  0.1200E+02  0.1200E+02
    -47.807  0.0000E+00  0.0000E+00  0.1200E+02  0.1200E+02
    -47.589  0.3193E+02  0.3193E+02  0.1765E+02  0.1765E+02
    -47.372  0.3708E+02  0.3708E+02  0.2330E+02  0.2330E+02
    -47.154  0.2622E+01  0.2622E+01  0.2400E+02  0.2400E+02
    -46.936  0.0000E+00  0.0000E+00  0.2400E+02  0.2400E+02
    -46.718  0.0000E+00  0.0000E+00  0.2400E+02  0.2400E+02
    -46.500  0.0000E+00  0.0000E+00  0.2400E+02  0.2400E+02
    -46.282  0.0000E+00  0.0000E+00  0.2400E+02  0.2400E+02
    -46.064  0.0000E+00  0.0000E+00  0.2400E+02  0.2400E+02
    -45.846  0.0000E+00  0.0000E+00  0.2400E+02  0.2400E+02
    -45.628  0.0000E+00  0.0000E+00  0.2400E+02  0.2400E+02
    -45.410  0.0000E+00  0.0000E+00  0.2400E+02  0.2400E+02
    -45.192  0.0000E+00  0.0000E+00  0.2400E+02  0.2400E+02
    -44.974  0.0000E+00  0.0000E+00  0.2400E+02  0.2400E+02
    -44.756  0.0000E+00  0.0000E+00  0.2400E+02  0.2400E+02
    -44.539  0.0000E+00  0.0000E+00  0.2400E+02  0.2400E+02
    -44.321  0.0000E+00  0.0000E+00  0.2400E+02  0.2400E+02
    -44.103  0.0000E+00  0.0000E+00  0.2400E+02  0.2400E+02
    -43.885  0.0000E+00  0.0000E+00  0.2400E+02  0.2400E+02
    -43.667  0.0000E+00  0.0000E+00  0.2400E+02  0.2400E+02
    -43.449  0.0000E+00  0.0000E+00  0.2400E+02  0.2400E+02
    -43.231  0.0000E+00  0.0000E+00  0.2400E+02  0.2400E+02
    -43.013  0.0000E+00  0.0000E+00  0.2400E+02  0.2400E+02
    -42.795  0.0000E+00  0.0000E+00  0.2400E+02  0.2400E+02
    -42.577  0.0000E+00  0.0000E+00  0.2400E+02  0.2400E+02
    -42.359  0.0000E+00  0.0000E+00  0.2400E+02  0.2400E+02
    -42.141  0.0000E+00  0.0000E+00  0.2400E+02  0.2400E+02
    -41.923  0.0000E+00  0.0000E+00  0.2400E+02  0.2400E+02
    -41.706  0.0000E+00  0.0000E+00  0.2400E+02  0.2400E+02
    -41.488  0.0000E+00  0.0000E+00  0.2400E+02  0.2400E+02
    -41.270  0.0000E+00  0.0000E+00  0.2400E+02  0.2400E+02
    -41.052  0.0000E+00  0.0000E+00  0.2400E+02  0.2400E+02
    -40.834  0.0000E+00  0.0000E+00  0.2400E+02  0.2400E+02
    -40.616  0.0000E+00  0.0000E+00  0.2400E+02  0.2400E+02
    -40.398  0.0000E+00  0.0000E+00  0.2400E+02  0.2400E+02
    -40.180  0.0000E+00  0.0000E+00  0.2400E+02  0.2400E+02
    -39.962  0.0000E+00  0.0000E+00  0.2400E+02  0.2400E+02
    -39.744  0.0000E+00  0.0000E+00  0.2400E+02  0.2400E+02
    -39.526  0.0000E+00  0.0000E+00  0.2400E+02  0.2400E+02
    -39.308  0.0000E+00  0.0000E+00  0.2400E+02  0.2400E+02
    -39.090  0.0000E+00  0.0000E+00  0.2400E+02  0.2400E+02
    -38.872  0.0000E+00  0.0000E+00  0.2400E+02  0.2400E+02
    -38.655  0.0000E+00  0.0000E+00  0.2400E+02  0.2400E+02
    -38.437  0.0000E+00  0.0000E+00  0.2400E+02  0.2400E+02
    -38.219  0.0000E+00  0.0000E+00  0.2400E+02  0.2400E+02
    -38.001  0.0000E+00  0.0000E+00  0.2400E+02  0.2400E+02
    -37.783  0.0000E+00  0.0000E+00  0.2400E+02  0.2400E+02
    -37.565  0.0000E+00  0.0000E+00  0.2400E+02  0.2400E+02
    -37.347  0.0000E+00  0.0000E+00  0.2400E+02  0.2400E+02
    -37.129  0.0000E+00  0.0000E+00  0.2400E+02  0.2400E+02
    -36.911  0.0000E+00  0.0000E+00  0.2400E+02  0.2400E+02
    -36.693  0.0000E+00  0.0000E+00  0.2400E+02  0.2400E+02
    -36.475  0.0000E+00  0.0000E+00  0.2400E+02  0.2400E+02
    -36.257  0.0000E+00  0.0000E+00  0.2400E+02  0.2400E+02
    -36.039  0.0000E+00  0.0000E+00  0.2400E+02  0.2400E+02
    -35.822  0.0000E+00  0.0000E+00  0.2400E+02  0.2400E+02
    -35.604  0.0000E+00  0.0000E+00  0.2400E+02  0.2400E+02
    -35.386  0.0000E+00  0.0000E+00  0.2400E+02  0.2400E+02
    -35.168  0.0000E+00  0.0000E+00  0.2400E+02  0.2400E+02
    -34.950  0.0000E+00  0.0000E+00  0.2400E+02  0.2400E+02
    -34.732  0.0000E+00  0.0000E+00  0.2400E+02  0.2400E+02
    -34.514  0.0000E+00  0.0000E+00  0.2400E+02  0.2400E+02
    -34.296  0.0000E+00  0.0000E+00  0.2400E+02  0.2400E+02
    -34.078  0.0000E+00  0.0000E+00  0.2400E+02  0.2400E+02
    -33.860  0.0000E+00  0.0000E+00  0.2400E+02  0.2400E+02
    -33.642  0.0000E+00  0.0000E+00  0.2400E+02  0.2400E+02
    -33.424  0.0000E+00  0.0000E+00  0.2400E+02  0.2400E+02
    -33.206  0.0000E+00  0.0000E+00  0.2400E+02  0.2400E+02
    -32.988  0.0000E+00  0.0000E+00  0.2400E+02  0.2400E+02
    -32.771  0.0000E+00  0.0000E+00  0.2400E+02  0.2400E+02
    -32.553  0.0000E+00  0.0000E+00  0.2400E+02  0.2400E+02
    -32.335  0.0000E+00  0.0000E+00  0.2400E+02  0.2400E+02
    -32.117  0.0000E+00  0.0000E+00  0.2400E+02  0.2400E+02
    -31.899  0.0000E+00  0.0000E+00  0.2400E+02  0.2400E+02
    -31.681  0.0000E+00  0.0000E+00  0.2400E+02  0.2400E+02
    -31.463  0.0000E+00  0.0000E+00  0.2400E+02  0.2400E+02
    -31.245  0.0000E+00  0.0000E+00  0.2400E+02  0.2400E+02
    -31.027  0.0000E+00  0.0000E+00  0.2400E+02  0.2400E+02
    -30.809  0.0000E+00  0.0000E+00  0.2400E+02  0.2400E+02
    -30.591  0.0000E+00  0.0000E+00  0.2400E+02  0.2400E+02
    -30.373  0.0000E+00  0.0000E+00  0.2400E+02  0.2400E+02
    -30.155  0.0000E+00  0.0000E+00  0.2400E+02  0.2400E+02
    -29.938  0.0000E+00  0.0000E+00  0.2400E+02  0.2400E+02
    -29.720  0.0000E+00  0.0000E+00  0.2400E+02  0.2400E+02
    -29.502  0.0000E+00  0.0000E+00  0.2400E+02  0.2400E+02
    -29.284  0.0000E+00  0.0000E+00  0.2400E+02  0.2400E+02
    -29.066  0.0000E+00  0.0000E+00  0.2400E+02  0.2400E+02
    -28.848  0.0000E+00  0.0000E+00  0.2400E+02  0.2400E+02
    -28.630  0.0000E+00  0.0000E+00  0.2400E+02  0.2400E+02
    -28.412  0.0000E+00  0.0000E+00  0.2400E+02  0.2400E+02
    -28.194  0.0000E+00  0.0000E+00  0.2400E+02  0.2400E+02
    -27.976  0.0000E+00  0.0000E+00  0.2400E+02  0.2400E+02
    -27.758  0.0000E+00  0.0000E+00  0.2400E+02  0.2400E+02
    -27.540  0.0000E+00  0.0000E+00  0.2400E+02  0.2400E+02
    -27.322  0.0000E+00  0.0000E+00  0.2400E+02  0.2400E+02
    -27.105  0.0000E+00  0.0000E+00  0.2400E+02  0.2400E+02
    -26.887  0.0000E+00  0.0000E+00  0.2400E+02  0.2400E+02
    -26.669  0.0000E+00  0.0000E+00  0.2400E+02  0.2400E+02
    -26.451  0.0000E+00  0.0000E+00  0.2400E+02  0.2400E+02
    -26.233  0.0000E+00  0.0000E+00  0.2400E+02  0.2400E+02
    -26.015  0.0000E+00  0.0000E+00  0.2400E+02  0.2400E+02
    -25.797  0.0000E+00  0.0000E+00  0.2400E+02  0.2400E+02
    -25.579  0.0000E+00  0.0000E+00  0.2400E+02  0.2400E+02
    -25.361  0.0000E+00  0.0000E+00  0.2400E+02  0.2400E+02
    -25.143  0.0000E+00  0.0000E+00  0.2400E+02  0.2400E+02
    -24.925  0.0000E+00  0.0000E+00  0.2400E+02  0.2400E+02
    -24.707  0.0000E+00  0.0000E+00  0.2400E+02  0.2400E+02
    -24.489  0.0000E+00  0.0000E+00  0.2400E+02  0.2400E+02
    -24.271  0.0000E+00  0.0000E+00  0.2400E+02  0.2400E+02
    -24.054  0.0000E+00  0.0000E+00  0.2400E+02  0.2400E+02
    -23.836  0.0000E+00  0.0000E+00  0.2400E+02  0.2400E+02
    -23.618  0.0000E+00  0.0000E+00  0.2400E+02  0.2400E+02
    -23.400  0.0000E+00  0.0000E+00  0.2400E+02  0.2400E+02
    -23.182  0.0000E+00  0.0000E+00  0.2400E+02  0.2400E+02
    -22.964  0.0000E+00  0.0000E+00  0.2400E+02  0.2400E+02
    -22.746  0.0000E+00  0.0000E+00  0.2400E+02  0.2400E+02
    -22.528  0.0000E+00  0.0000E+00  0.2400E+02  0.2400E+02
    -22.310  0.0000E+00  0.0000E+00  0.2400E+02  0.2400E+02
    -22.092  0.0000E+00  0.0000E+00  0.2400E+02  0.2400E+02
    -21.874  0.0000E+00  0.0000E+00  0.2400E+02  0.2400E+02
    -21.656  0.0000E+00  0.0000E+00  0.2400E+02  0.2400E+02
    -21.438  0.0000E+00  0.0000E+00  0.2400E+02  0.2400E+02
    -21.221  0.0000E+00  0.0000E+00  0.2400E+02  0.2400E+02
    -21.003  0.0000E+00  0.0000E+00  0.2400E+02  0.2400E+02
    -20.785  0.0000E+00  0.0000E+00  0.2400E+02  0.2400E+02
    -20.567  0.0000E+00  0.0000E+00  0.2400E+02  0.2400E+02
    -20.349  0.0000E+00  0.0000E+00  0.2400E+02  0.2400E+02
    -20.131  0.0000E+00  0.0000E+00  0.2400E+02  0.2400E+02
    -19.913  0.0000E+00  0.0000E+00  0.2400E+02  0.2400E+02
    -19.695  0.0000E+00  0.0000E+00  0.2400E+02  0.2400E+02
    -19.477  0.0000E+00  0.0000E+00  0.2400E+02  0.2400E+02
    -19.259  0.0000E+00  0.0000E+00  0.2400E+02  0.2400E+02
    -19.041  0.0000E+00  0.0000E+00  0.2400E+02  0.2400E+02
    -18.823  0.0000E+00  0.0000E+00  0.2400E+02  0.2400E+02
    -18.605  0.0000E+00  0.0000E+00  0.2400E+02  0.2400E+02
    -18.387  0.0000E+00  0.0000E+00  0.2400E+02  0.2400E+02
    -18.170  0.0000E+00  0.0000E+00  0.2400E+02  0.2400E+02
    -17.952  0.0000E+00  0.0000E+00  0.2400E+02  0.2400E+02
    -17.734  0.0000E+00  0.0000E+00  0.2400E+02  0.2400E+02
    -17.516  0.0000E+00  0.0000E+00  0.2400E+02  0.2400E+02
    -17.298  0.0000E+00  0.0000E+00  0.2400E+02  0.2400E+02
    -17.080  0.0000E+00  0.0000E+00  0.2400E+02  0.2400E+02
    -16.862  0.0000E+00  0.0000E+00  0.2400E+02  0.2400E+02
    -16.644  0.0000E+00  0.0000E+00  0.2400E+02  0.2400E+02
    -16.426  0.0000E+00  0.0000E+00  0.2400E+02  0.2400E+02
    -16.208  0.0000E+00  0.0000E+00  0.2400E+02  0.2400E+02
    -15.990  0.0000E+00  0.0000E+00  0.2400E+02  0.2400E+02
    -15.772  0.0000E+00  0.0000E+00  0.2400E+02  0.2400E+02
    -15.554  0.0000E+00  0.0000E+00  0.2400E+02  0.2400E+02
    -15.337  0.0000E+00  0.0000E+00  0.2400E+02  0.2400E+02
    -15.119  0.0000E+00  0.0000E+00  0.2400E+02  0.2400E+02
    -14.901  0.0000E+00  0.0000E+00  0.2400E+02  0.2400E+02
    -14.683  0.0000E+00  0.0000E+00  0.2400E+02  0.2400E+02
    -14.465  0.0000E+00  0.0000E+00  0.2400E+02  0.2400E+02
    -14.247  0.0000E+00  0.0000E+00  0.2400E+02  0.2400E+02
    -14.029  0.0000E+00  0.0000E+00  0.2400E+02  0.2400E+02
    -13.811  0.0000E+00  0.0000E+00  0.2400E+02  0.2400E+02
    -13.593  0.0000E+00  0.0000E+00  0.2400E+02  0.2400E+02
    -13.375  0.0000E+00  0.0000E+00  0.2400E+02  0.2400E+02
    -13.157  0.0000E+00  0.0000E+00  0.2400E+02  0.2400E+02
    -12.939  0.0000E+00  0.0000E+00  0.2400E+02  0.2400E+02
    -12.721  0.0000E+00  0.0000E+00  0.2400E+02  0.2400E+02
    -12.504  0.0000E+00  0.0000E+00  0.2400E+02  0.2400E+02
    -12.286  0.0000E+00  0.0000E+00  0.2400E+02  0.2400E+02
    -12.068  0.0000E+00  0.0000E+00  0.2400E+02  0.2400E+02
    -11.850  0.0000E+00  0.0000E+00  0.2400E+02  0.2400E+02
    -11.632  0.0000E+00  0.0000E+00  0.2400E+02  0.2400E+02
    -11.414  0.0000E+00  0.0000E+00  0.2400E+02  0.2400E+02
    -11.196  0.0000E+00  0.0000E+00  0.2400E+02  0.2400E+02
    -10.978  0.0000E+00  0.0000E+00  0.2400E+02  0.2400E+02
    -10.760  0.0000E+00  0.0000E+00  0.2400E+02  0.2400E+02
    -10.542  0.0000E+00  0.0000E+00  0.2400E+02  0.2400E+02
    -10.324  0.3743E+00  0.3743E+00  0.2401E+02  0.2401E+02
    -10.106  0.1422E+01  0.1422E+01  0.2419E+02  0.2419E+02
     -9.888  0.2322E+01  0.2322E+01  0.2457E+02  0.2457E+02
     -9.670  0.3061E+01  0.3061E+01  0.2508E+02  0.2508E+02
     -9.453  0.3214E+01  0.3214E+01  0.2565E+02  0.2565E+02
     -9.235  0.4137E+01  0.4137E+01  0.2635E+02  0.2635E+02
     -9.017  0.7600E+01  0.7600E+01  0.2736E+02  0.2736E+02
     -8.799  0.1119E+02  0.1119E+02  0.2891E+02  0.2891E+02
     -8.581  0.1016E+02  0.1016E+02  0.3039E+02  0.3039E+02
     -8.363  0.7842E+01  0.7842E+01  0.3180E+02  0.3180E+02
     -8.145  0.2636E+00  0.2636E+00  0.3200E+02  0.3200E+02
     -7.927  0.0000E+00  0.0000E+00  0.3200E+02  0.3200E+02
     -7.709  0.0000E+00  0.0000E+00  0.3200E+02  0.3200E+02
     -7.491  0.0000E+00  0.0000E+00  0.3200E+02  0.3200E+02
     -7.273  0.0000E+00  0.0000E+00  0.3200E+02  0.3200E+02
     -7.055  0.0000E+00  0.0000E+00  0.3200E+02  0.3200E+02
     -6.837  0.0000E+00  0.0000E+00  0.3200E+02  0.3200E+02
     -6.620  0.0000E+00  0.0000E+00  0.3200E+02  0.3200E+02
     -6.402  0.0000E+00  0.0000E+00  0.3200E+02  0.3200E+02
     -6.184  0.0000E+00  0.0000E+00  0.3200E+02  0.3200E+02
     -5.966  0.0000E+00  0.0000E+00  0.3200E+02  0.3200E+02
     -5.748  0.0000E+00  0.0000E+00  0.3200E+02  0.3200E+02
     -5.530  0.0000E+00  0.0000E+00  0.3200E+02  0.3200E+02
     -5.312  0.0000E+00  0.0000E+00  0.3200E+02  0.3200E+02
     -5.094  0.0000E+00  0.0000E+00  0.3200E+02  0.3200E+02
     -4.876  0.0000E+00  0.0000E+00  0.3200E+02  0.3200E+02
     -4.658  0.0000E+00  0.0000E+00  0.3200E+02  0.3200E+02
     -4.440  0.0000E+00  0.0000E+00  0.3200E+02  0.3200E+02
     -4.222  0.0000E+00  0.0000E+00  0.3200E+02  0.3200E+02
     -4.004  0.0000E+00  0.0000E+00  0.3200E+02  0.3200E+02
     -3.787  0.0000E+00  0.0000E+00  0.3200E+02  0.3200E+02
     -3.569  0.0000E+00  0.0000E+00  0.3200E+02  0.3200E+02
     -3.351  0.0000E+00  0.0000E+00  0.3200E+02  0.3200E+02
     -3.133  0.0000E+00  0.0000E+00  0.3200E+02  0.3200E+02
     -2.915  0.0000E+00  0.0000E+00  0.3200E+02  0.3200E+02
     -2.697  0.0000E+00  0.0000E+00  0.3200E+02  0.3200E+02
     -2.479  0.0000E+00  0.0000E+00  0.3200E+02  0.3200E+02
     -2.261  0.0000E+00  0.0000E+00  0.3200E+02  0.3200E+02
     -2.043  0.3195E-01  0.3195E-01  0.3200E+02  0.3200E+02
     -1.825  0.1072E+01  0.1072E+01  0.3207E+02  0.3207E+02
     -1.607  0.5211E+01  0.5211E+01  0.3263E+02  0.3263E+02
     -1.389  0.7332E+01  0.7332E+01  0.3392E+02  0.3392E+02
     -1.171  0.8844E+01  0.8844E+01  0.3544E+02  0.3544E+02
     -0.953  0.6463E+01  0.6463E+01  0.3669E+02  0.3669E+02
     -0.736  0.6911E+01  0.6911E+01  0.3808E+02  0.3808E+02
     -0.518  0.5764E+01  0.5764E+01  0.3898E+02  0.3898E+02
     -0.300  0.5469E+01  0.5469E+01  0.3984E+02  0.3984E+02
     -0.082  0.8151E+01  0.8151E+01  0.4119E+02  0.4119E+02
      0.136  0.7473E+01  0.7473E+01  0.4237E+02  0.4237E+02
      0.354  0.1226E+02  0.1226E+02  0.4427E+02  0.4427E+02
      0.572  0.1485E+02  0.1485E+02  0.4658E+02  0.4658E+02
      0.790  0.1388E+02  0.1388E+02  0.4888E+02  0.4888E+02
      1.008  0.1497E+02  0.1497E+02  0.5135E+02  0.5135E+02
      1.226  0.1115E+02  0.1115E+02  0.5312E+02  0.5312E+02
      1.444  0.1010E+02  0.1010E+02  0.5474E+02  0.5474E+02
      1.662  0.1471E+02  0.1471E+02  0.5647E+02  0.5647E+02
      1.880  0.1632E+02  0.1632E+02  0.5904E+02  0.5904E+02
      2.097  0.1854E+02  0.1854E+02  0.6146E+02  0.6146E+02
      2.315  0.2404E+02  0.2404E+02  0.6491E+02  0.6491E+02
      2.533  0.2479E+02  0.2479E+02  0.6829E+02  0.6829E+02
      2.751  0.1510E+02  0.1510E+02  0.7078E+02  0.7078E+02
      2.969  0.8544E+01  0.8544E+01  0.7209E+02  0.7209E+02
      3.187  0.8929E+01  0.8929E+01  0.7370E+02  0.7370E+02
      3.405  0.7917E+01  0.7917E+01  0.7511E+02  0.7511E+02
      3.623  0.4626E+01  0.4626E+01  0.7601E+02  0.7601E+02
      3.841  0.6613E+01  0.6613E+01  0.7709E+02  0.7709E+02
      4.059  0.1021E+02  0.1021E+02  0.7870E+02  0.7870E+02
      4.277  0.1056E+02  0.1056E+02  0.8037E+02  0.8037E+02
      4.495  0.1374E+02  0.1374E+02  0.8176E+02  0.8176E+02
      4.713  0.2315E+02  0.2315E+02  0.8491E+02  0.8491E+02
      4.931  0.1396E+02  0.1396E+02  0.8704E+02  0.8704E+02
      5.148  0.1513E+02  0.1513E+02  0.8910E+02  0.8910E+02
      5.366  0.1171E+02  0.1171E+02  0.9106E+02  0.9106E+02
      5.584  0.1803E+02  0.1803E+02  0.9298E+02  0.9298E+02
      5.802  0.7204E+01  0.7202E+01  0.9480E+02  0.9480E+02
      6.020  0.1423E+01  0.1423E+01  0.9509E+02  0.9509E+02
      6.238  0.1755E+01  0.1755E+01  0.9537E+02  0.9537E+02
      6.456  0.1631E+01  0.1631E+01  0.9571E+02  0.9571E+02
      6.674  0.9517E+00  0.9544E+00  0.9598E+02  0.9598E+02
      6.892  0.5773E+00  0.5753E+00  0.9613E+02  0.9613E+02
      7.110  0.8268E+00  0.8270E+00  0.9627E+02  0.9627E+02
      7.328  0.1331E+01  0.1320E+01  0.9648E+02  0.9648E+02
      7.546  0.1622E+01  0.1610E+01  0.9682E+02  0.9682E+02
      7.764  0.2661E+01  0.2711E+01  0.9727E+02  0.9726E+02
      7.981  0.3657E+01  0.3691E+01  0.9792E+02  0.9792E+02
      8.199  0.4775E+01  0.4747E+01  0.9884E+02  0.9881E+02
      8.417  0.2198E+01  0.2342E+01  0.9956E+02  0.9957E+02
      8.635  0.9202E+00  0.9092E+00  0.9989E+02  0.9989E+02
      8.853  0.1948E+00  0.3569E+00  0.1000E+03  0.9998E+02
      9.071  0.0000E+00  0.0000E+00  0.1000E+03  0.1000E+03
      9.289  0.0000E+00  0.0000E+00  0.1000E+03  0.1000E+03
      9.507  0.0000E+00  0.0000E+00  0.1000E+03  0.1000E+03
      9.725  0.0000E+00  0.0000E+00  0.1000E+03  0.1000E+03
      9.943  0.0000E+00  0.0000E+00  0.1000E+03  0.1000E+03
     10.161  0.0000E+00  0.0000E+00  0.1000E+03  0.1000E+03
     10.379  0.0000E+00  0.0000E+00  0.1000E+03  0.1000E+03
     10.597  0.0000E+00  0.0000E+00  0.1000E+03  0.1000E+03
     10.814  0.0000E+00  0.0000E+00  0.1000E+03  0.1000E+03
     11.032  0.0000E+00  0.0000E+00  0.1000E+03  0.1000E+03
     11.250  0.0000E+00  0.0000E+00  0.1000E+03  0.1000E+03
     11.468  0.0000E+00  0.0000E+00  0.1000E+03  0.1000E+03
     11.686  0.0000E+00  0.0000E+00  0.1000E+03  0.1000E+03
     11.904  0.0000E+00  0.0000E+00  0.1000E+03  0.1000E+03
     11.90411351    -53.47346832  301      4.22497475      1.00000000
    -53.473  0.0000E+00  0.0000E+00  0.0000E+00  0.0000E+00  0.0000E+00  0.0000E+00  0.0000E+00  0.0000E+00  0.0000E+00  0.0000E+00  0.0000E+00  0.0000E+00  0.0000E+00  0.0000E+00  0.0000E+00  0.0000E+00  0.0000E+00  0.0000E+00
    -53.256  0.0000E+00  0.0000E+00  0.0000E+00  0.0000E+00  0.0000E+00  0.0000E+00  0.0000E+00  0.0000E+00  0.0000E+00  0.0000E+00  0.0000E+00  0.0000E+00  0.0000E+00  0.0000E+00  0.0000E+00  0.0000E+00  0.0000E+00  0.0000E+00
    -53.038  0.0000E+00  0.0000E+00  0.0000E+00  0.0000E+00  0.0000E+00  0.0000E+00  0.0000E+00  0.0000E+00  0.0000E+00  0.0000E+00  0.0000E+00  0.0000E+00  0.0000E+00  0.0000E+00  0.0000E+00  0.0000E+00  0.0000E+00  0.0000E+00
    -52.820  0.0000E+00  0.0000E+00  0.0000E+00  0.0000E+00  0.0000E+00  0.0000E+00  0.0000E+00  0.0000E+00  0.0000E+00  0.0000E+00  0.0000E+00  0.0000E+00  0.0000E+00  0.0000E+00  0.0000E+00  0.0000E+00  0.0000E+00  0.0000E+00
    -52.602  0.0000E+00  0.0000E+00  0.0000E+00  0.0000E+00  0.0000E+00  0.0000E+00  0.0000E+00  0.0000E+00  0.0000E+00  0.0000E+00  0.0000E+00  0.0000E+00  0.0000E+00  0.0000E+00  0.0000E+00  0.0000E+00  0.0000E+00  0.0000E+00
    -52.384  0.0000E+00  0.0000E+00  0.0000E+00  0.0000E+00  0.0000E+00  0.0000E+00  0.0000E+00  0.0000E+00  0.0000E+00  0.0000E+00  0.0000E+00  0.0000E+00  0.0000E+00  0.0000E+00  0.0000E+00  0.0000E+00  0.0000E+00  0.0000E+00
    -52.166  0.0000E+00  0.0000E+00  0.0000E+00  0.0000E+00  0.0000E+00  0.0000E+00  0.0000E+00  0.0000E+00  0.0000E+00  0.0000E+00  0.0000E+00  0.0000E+00  0.0000E+00  0.0000E+00  0.0000E+00  0.0000E+00  0.0000E+00  0.0000E+00
    -51.948  0.0000E+00  0.0000E+00  0.0000E+00  0.0000E+00  0.0000E+00  0.0000E+00  0.0000E+00  0.0000E+00  0.0000E+00  0.0000E+00  0.0000E+00  0.0000E+00  0.0000E+00  0.0000E+00  0.0000E+00  0.0000E+00  0.0000E+00  0.0000E+00
    -51.730  0.0000E+00  0.0000E+00  0.0000E+00  0.0000E+00  0.0000E+00  0.0000E+00  0.0000E+00  0.0000E+00  0.0000E+00  0.0000E+00  0.0000E+00  0.0000E+00  0.0000E+00  0.0000E+00  0.0000E+00  0.0000E+00  0.0000E+00  0.0000E+00
    -51.512  0.0000E+00  0.0000E+00  0.0000E+00  0.0000E+00  0.0000E+00  0.0000E+00  0.0000E+00  0.0000E+00  0.0000E+00  0.0000E+00  0.0000E+00  0.0000E+00  0.0000E+00  0.0000E+00  0.0000E+00  0.0000E+00  0.0000E+00  0.0000E+00
    -51.294  0.0000E+00  0.0000E+00  0.0000E+00  0.0000E+00  0.0000E+00  0.0000E+00  0.0000E+00  0.0000E+00  0.0000E+00  0.0000E+00  0.0000E+00  0.0000E+00  0.0000E+00  0.0000E+00  0.0000E+00  0.0000E+00  0.0000E+00  0.0000E+00
    -51.076  0.0000E+00  0.0000E+00  0.0000E+00  0.0000E+00  0.0000E+00  0.0000E+00  0.0000E+00  0.0000E+00  0.0000E+00  0.0000E+00  0.0000E+00  0.0000E+00  0.0000E+00  0.0000E+00  0.0000E+00  0.0000E+00  0.0000E+00  0.0000E+00
    -50.858  0.0000E+00  0.0000E+00  0.0000E+00  0.0000E+00  0.0000E+00  0.0000E+00  0.0000E+00  0.0000E+00  0.0000E+00  0.0000E+00  0.0000E+00  0.0000E+00  0.0000E+00  0.0000E+00  0.0000E+00  0.0000E+00  0.0000E+00  0.0000E+00
    -50.640  0.0000E+00  0.0000E+00  0.0000E+00  0.0000E+00  0.0000E+00  0.0000E+00  0.0000E+00  0.0000E+00  0.0000E+00  0.0000E+00  0.0000E+00  0.0000E+00  0.0000E+00  0.0000E+00  0.0000E+00  0.0000E+00  0.0000E+00  0.0000E+00
    -50.423  0.6517E-10  0.1659E-05  0.9272E+00  0.8903E-04  0.3642E+01  0.7817E-05  0.1668E-09  0.3982E-07  0.1888E-05  0.3755E-08  0.1191E-09  0.4075E-06  0.1580E-09  0.4996E-06  0.7494E-05  0.3950E-09  0.1356E-09  0.1857E-05
    -50.205  0.2098E-03  0.5112E-05  0.3643E+01  0.3117E-03  0.9284E+00  0.7217E-06  0.4102E+01  0.3708E-05  0.7629E-05  0.2689E-06  0.9293E-09  0.7461E-08  0.9664E-04  0.1992E-05  0.1892E-05  0.2505E-09  0.2899E-03  0.6311E-05
    -49.987  0.6005E-04  0.2761E-08  0.4823E-09  0.9235E-07  0.1685E-10  0.9419E-09  0.1963E+01  0.9413E-06  0.1032E-10  0.7600E-07  0.2686E-09  0.7976E-10  0.2766E-04  0.1021E-08  0.5430E-11  0.1092E-09  0.8298E-04  0.1184E-09
    -49.769  0.0000E+00  0.0000E+00  0.0000E+00  0.0000E+00  0.0000E+00  0.0000E+00  0.0000E+00  0.0000E+00  0.0000E+00  0.0000E+00  0.0000E+00  0.0000E+00  0.0000E+00  0.0000E+00  0.0000E+00  0.0000E+00  0.0000E+00  0.0000E+00
    -49.551  0.0000E+00  0.0000E+00  0.0000E+00  0.0000E+00  0.0000E+00  0.0000E+00  0.0000E+00  0.0000E+00  0.0000E+00  0.0000E+00  0.0000E+00  0.0000E+00  0.0000E+00  0.0000E+00  0.0000E+00  0.0000E+00  0.0000E+00  0.0000E+00
    -49.333  0.0000E+00  0.0000E+00  0.0000E+00  0.0000E+00  0.0000E+00  0.0000E+00  0.0000E+00  0.0000E+00  0.0000E+00  0.0000E+00  0.0000E+00  0.0000E+00  0.0000E+00  0.0000E+00  0.0000E+00  0.0000E+00  0.0000E+00  0.0000E+00
    -49.115  0.0000E+00  0.0000E+00  0.0000E+00  0.0000E+00  0.0000E+00  0.0000E+00  0.0000E+00  0.0000E+00  0.0000E+00  0.0000E+00  0.0000E+00  0.0000E+00  0.0000E+00  0.0000E+00  0.0000E+00  0.0000E+00  0.0000E+00  0.0000E+00
    -48.897  0.0000E+00  0.0000E+00  0.0000E+00  0.0000E+00  0.0000E+00  0.0000E+00  0.0000E+00  0.0000E+00  0.0000E+00  0.0000E+00  0.0000E+00  0.0000E+00  0.0000E+00  0.0000E+00  0.0000E+00  0.0000E+00  0.0000E+00  0.0000E+00
    -48.679  0.0000E+00  0.0000E+00  0.0000E+00  0.0000E+00  0.0000E+00  0.0000E+00  0.0000E+00  0.0000E+00  0.0000E+00  0.0000E+00  0.0000E+00  0.0000E+00  0.0000E+00  0.0000E+00  0.0000E+00  0.0000E+00  0.0000E+00  0.0000E+00
    -48.461  0.0000E+00  0.0000E+00  0.0000E+00  0.0000E+00  0.0000E+00  0.0000E+00  0.0000E+00  0.0000E+00  0.0000E+00  0.0000E+00  0.0000E+00  0.0000E+00  0.0000E+00  0.0000E+00  0.0000E+00  0.0000E+00  0.0000E+00  0.0000E+00
    -48.243  0.0000E+00  0.0000E+00  0.0000E+00  0.0000E+00  0.0000E+00  0.0000E+00  0.0000E+00  0.0000E+00  0.0000E+00  0.0000E+00  0.0000E+00  0.0000E+00  0.0000E+00  0.0000E+00  0.0000E+00  0.0000E+00  0.0000E+00  0.0000E+00
    -48.025  0.0000E+00  0.0000E+00  0.0000E+00  0.0000E+00  0.0000E+00  0.0000E+00  0.0000E+00  0.0000E+00  0.0000E+00  0.0000E+00  0.0000E+00  0.0000E+00  0.0000E+00  0.0000E+00  0.0000E+00  0.0000E+00  0.0000E+00  0.0000E+00
    -47.807  0.0000E+00  0.0000E+00  0.0000E+00  0.0000E+00  0.0000E+00  0.0000E+00  0.0000E+00  0.0000E+00  0.0000E+00  0.0000E+00  0.0000E+00  0.0000E+00  0.0000E+00  0.0000E+00  0.0000E+00  0.0000E+00  0.0000E+00  0.0000E+00
    -47.589  0.4712E-05  0.1807E-03  0.2617E-03  0.2038E+01  0.4735E-05  0.2531E+01  0.4222E-05  0.3375E+01  0.3315E-06  0.5020E-05  0.5137E-06  0.3510E-08  0.1495E-05  0.8339E-04  0.2659E-09  0.6306E-05  0.5349E-05  0.2510E-03
    -47.372  0.4795E-05  0.1913E-03  0.2192E-03  0.2533E+01  0.1453E-05  0.2040E+01  0.3002E-05  0.4674E+01  0.2700E-06  0.6349E-05  0.8677E-07  0.4702E-08  0.1918E-05  0.8823E-04  0.2634E-09  0.5155E-05  0.5874E-05  0.2658E-03
    -47.154  0.1732E-09  0.4170E-05  0.5363E-08  0.2697E-09  0.9559E-12  0.1508E-09  0.3152E-06  0.6549E+00  0.3036E-07  0.2494E-10  0.1821E-10  0.1100E-09  0.5921E-10  0.1925E-05  0.2599E-10  0.1175E-10  0.4400E-10  0.5794E-05
    -46.936  0.0000E+00  0.0000E+00  0.0000E+00  0.0000E+00  0.0000E+00  0.0000E+00  0.0000E+00  0.0000E+00  0.0000E+00  0.0000E+00  0.0000E+00  0.0000E+00  0.0000E+00  0.0000E+00  0.0000E+00  0.0000E+00  0.0000E+00  0.0000E+00
    -46.718  0.0000E+00  0.0000E+00  0.0000E+00  0.0000E+00  0.0000E+00  0.0000E+00  0.0000E+00  0.0000E+00  0.0000E+00  0.0000E+00  0.0000E+00  0.0000E+00  0.0000E+00  0.0000E+00  0.0000E+00  0.0000E+00  0.0000E+00  0.0000E+00
    -46.500  0.0000E+00  0.0000E+00  0.0000E+00  0.0000E+00  0.0000E+00  0.0000E+00  0.0000E+00  0.0000E+00  0.0000E+00  0.0000E+00  0.0000E+00  0.0000E+00  0.0000E+00  0.0000E+00  0.0000E+00  0.0000E+00  0.0000E+00  0.0000E+00
    -46.282  0.0000E+00  0.0000E+00  0.0000E+00  0.0000E+00  0.0000E+00  0.0000E+00  0.0000E+00  0.0000E+00  0.0000E+00  0.0000E+00  0.0000E+00  0.0000E+00  0.0000E+00  0.0000E+00  0.0000E+00  0.0000E+00  0.0000E+00  0.0000E+00
    -46.064  0.0000E+00  0.0000E+00  0.0000E+00  0.0000E+00  0.0000E+00  0.0000E+00  0.0000E+00  0.0000E+00  0.0000E+00  0.0000E+00  0.0000E+00  0.0000E+00  0.0000E+00  0.0000E+00  0.0000E+00  0.0000E+00  0.0000E+00  0.0000E+00
    -45.846  0.0000E+00  0.0000E+00  0.0000E+00  0.0000E+00  0.0000E+00  0.0000E+00  0.0000E+00  0.0000E+00  0.0000E+00  0.0000E+00  0.0000E+00  0.0000E+00  0.0000E+00  0.0000E+00  0.0000E+00  0.0000E+00  0.0000E+00  0.0000E+00
    -45.628  0.0000E+00  0.0000E+00  0.0000E+00  0.0000E+00  0.0000E+00  0.0000E+00  0.0000E+00  0.0000E+00  0.0000E+00  0.0000E+00  0.0000E+00  0.0000E+00  0.0000E+00  0.0000E+00  0.0000E+00  0.0000E+00  0.0000E+00  0.0000E+00
    -45.410  0.0000E+00  0.0000E+00  0.0000E+00  0.0000E+00  0.0000E+00  0.0000E+00  0.0000E+00  0.0000E+00  0.0000E+00  0.0000E+00  0.0000E+00  0.0000E+00  0.0000E+00  0.0000E+00  0.0000E+00  0.0000E+00  0.0000E+00  0.0000E+00
    -45.192  0.0000E+00  0.0000E+00  0.0000E+00  0.0000E+00  0.0000E+00  0.0000E+00  0.0000E+00  0.0000E+00  0.0000E+00  0.0000E+00  0.0000E+00  0.0000E+00  0.0000E+00  0.0000E+00  0.0000E+00  0.0000E+00  0.0000E+00  0.0000E+00
    -44.974  0.0000E+00  0.0000E+00  0.0000E+00  0.0000E+00  0.0000E+00  0.0000E+00  0.0000E+00  0.0000E+00  0.0000E+00  0.0000E+00  0.0000E+00  0.0000E+00  0.0000E+00  0.0000E+00  0.0000E+00  0.0000E+00  0.0000E+00  0.0000E+00
    -44.756  0.0000E+00  0.0000E+00  0.0000E+00  0.0000E+00  0.0000E+00  0.0000E+00  0.0000E+00  0.0000E+00  0.0000E+00  0.0000E+00  0.0000E+00  0.0000E+00  0.0000E+00  0.0000E+00  0.0000E+00  0.0000E+00  0.0000E+00  0.0000E+00
    -44.539  0.0000E+00  0.0000E+00  0.0000E+00  0.0000E+00  0.0000E+00  0.0000E+00  0.0000E+00  0.0000E+00  0.0000E+00  0.0000E+00  0.0000E+00  0.0000E+00  0.0000E+00  0.0000E+00  0.0000E+00  0.0000E+00  0.0000E+00  0.0000E+00
    -44.321  0.0000E+00  0.0000E+00  0.0000E+00  0.0000E+00  0.0000E+00  0.0000E+00  0.0000E+00  0.0000E+00  0.0000E+00  0.0000E+00  0.0000E+00  0.0000E+00  0.0000E+00  0.0000E+00  0.0000E+00  0.0000E+00  0.0000E+00  0.0000E+00
    -44.103  0.0000E+00  0.0000E+00  0.0000E+00  0.0000E+00  0.0000E+00  0.0000E+00  0.0000E+00  0.0000E+00  0.0000E+00  0.0000E+00  0.0000E+00  0.0000E+00  0.0000E+00  0.0000E+00  0.0000E+00  0.0000E+00  0.0000E+00  0.0000E+00
    -43.885  0.0000E+00  0.0000E+00  0.0000E+00  0.0000E+00  0.0000E+00  0.0000E+00  0.0000E+00  0.0000E+00  0.0000E+00  0.0000E+00  0.0000E+00  0.0000E+00  0.0000E+00  0.0000E+00  0.0000E+00  0.0000E+00  0.0000E+00  0.0000E+00
    -43.667  0.0000E+00  0.0000E+00  0.0000E+00  0.0000E+00  0.0000E+00  0.0000E+00  0.0000E+00  0.0000E+00  0.0000E+00  0.0000E+00  0.0000E+00  0.0000E+00  0.0000E+00  0.0000E+00  0.0000E+00  0.0000E+00  0.0000E+00  0.0000E+00
    -43.449  0.0000E+00  0.0000E+00  0.0000E+00  0.0000E+00  0.0000E+00  0.0000E+00  0.0000E+00  0.0000E+00  0.0000E+00  0.0000E+00  0.0000E+00  0.0000E+00  0.0000E+00  0.0000E+00  0.0000E+00  0.0000E+00  0.0000E+00  0.0000E+00
    -43.231  0.0000E+00  0.0000E+00  0.0000E+00  0.0000E+00  0.0000E+00  0.0000E+00  0.0000E+00  0.0000E+00  0.0000E+00  0.0000E+00  0.0000E+00  0.0000E+00  0.0000E+00  0.0000E+00  0.0000E+00  0.0000E+00  0.0000E+00  0.0000E+00
    -43.013  0.0000E+00  0.0000E+00  0.0000E+00  0.0000E+00  0.0000E+00  0.0000E+00  0.0000E+00  0.0000E+00  0.0000E+00  0.0000E+00  0.0000E+00  0.0000E+00  0.0000E+00  0.0000E+00  0.0000E+00  0.0000E+00  0.0000E+00  0.0000E+00
    -42.795  0.0000E+00  0.0000E+00  0.0000E+00  0.0000E+00  0.0000E+00  0.0000E+00  0.0000E+00  0.0000E+00  0.0000E+00  0.0000E+00  0.0000E+00  0.0000E+00  0.0000E+00  0.0000E+00  0.0000E+00  0.0000E+00  0.0000E+00  0.0000E+00
    -42.577  0.0000E+00  0.0000E+00  0.0000E+00  0.0000E+00  0.0000E+00  0.0000E+00  0.0000E+00  0.0000E+00  0.0000E+00  0.0000E+00  0.0000E+00  0.0000E+00  0.0000E+00  0.0000E+00  0.0000E+00  0.0000E+00  0.0000E+00  0.0000E+00