 running   20 mpi-ranks, on    5 nodes
 distrk:  each k-point on   20 cores,    1 groups
 distr:  one band on    1 cores,   20 groups
 vasp.6.4.1 05Apr23 (build Jun 01 2023 13:46:15) complex                        
  
 POSCAR found type information on POSCAR FeSe
 POSCAR found :  2 types and      16 ions
 Reading from existing POTCAR
 scaLAPACK will be used
 -----------------------------------------------------------------------------
|                                                                             |
|           W    W    AA    RRRRR   N    N  II  N    N   GGGG   !!!           |
|           W    W   A  A   R    R  NN   N  II  NN   N  G    G  !!!           |
|           W    W  A    A  R    R  N N  N  II  N N  N  G       !!!           |
|           W WW W  AAAAAA  RRRRR   N  N N  II  N  N N  G  GGG   !            |
|           WW  WW  A    A  R   R   N   NN  II  N   NN  G    G                |
|           W    W  A    A  R    R  N    N  II  N    N   GGGG   !!!           |
|                                                                             |
|     For optimal performance we recommend to set                             |
|       NCORE = 2 up to number-of-cores-per-socket                            |
|     NCORE specifies how many cores store one orbital (NPAR=cpu/NCORE).      |
|     This setting can greatly improve the performance of VASP for DFT.       |
|     The default, NCORE=1 might be grossly inefficient on modern             |
|     multi-core architectures or massively parallel machines. Do your        |
|     own testing! More info at https://www.vasp.at/wiki/index.php/NCORE      |
|     Unfortunately you need to use the default for GW and RPA                |
|     calculations (for HF NCORE is supported but not extensively tested      |
|     yet).                                                                   |
|                                                                             |
 -----------------------------------------------------------------------------

 Reading from existing POTCAR
 LDA part: xc-table for Pade appr. of Perdew
 POSCAR, INCAR and KPOINTS ok, starting setup
 FFT: planning ... GRIDC
 FFT: planning ... GRID_SOFT
 FFT: planning ... GRID
 WAVECAR not read
 WARNING: random wavefunctions but no delay for mixing, default for NELMDL
 entering main loop
       N       E                     dE             d eps       ncg     rms          rms(c)
DAV:   1     0.203289802466E+04    0.20329E+04   -0.88913E+04 34480   0.198E+03
DAV:   2     0.120944017850E+03   -0.19120E+04   -0.18560E+04 32000   0.581E+02
DAV:   3    -0.844419285245E+02   -0.20539E+03   -0.18230E+03 45280   0.190E+02
DAV:   4    -0.986951501487E+02   -0.14253E+02   -0.13866E+02 46920   0.514E+01
DAV:   5    -0.990322053949E+02   -0.33706E+00   -0.33623E+00 44800   0.834E+00    0.273E+01
RMM:   6    -0.112907502387E+03   -0.13875E+02   -0.16565E+02 34805   0.838E+01    0.505E+01
RMM:   7    -0.906524308909E+02    0.22255E+02   -0.42518E+01 32080   0.499E+01    0.101E+01
RMM:   8    -0.912501860009E+02   -0.59776E+00   -0.34629E+00 46070   0.520E+00    0.469E+00
RMM:   9    -0.913099231628E+02   -0.59737E-01   -0.85660E-01 51813   0.275E+00    0.248E+00
RMM:  10    -0.913172005782E+02   -0.72774E-02   -0.25579E-01 51685   0.154E+00    0.107E+00
RMM:  11    -0.913230578188E+02   -0.58572E-02   -0.49310E-02 49841   0.827E-01    0.388E-01
RMM:  12    -0.913281695343E+02   -0.51117E-02   -0.10942E-02 49022   0.347E-01    0.201E-01
RMM:  13    -0.913281774218E+02   -0.78874E-05   -0.24659E-03 37633   0.170E-01    0.119E-01
RMM:  14    -0.913280792866E+02    0.98135E-04   -0.75196E-04 27977   0.114E-01
   1 F= -.98399540E+02 E0= -.98399540E+02  d E =0.000000E+00  mag=    -0.0000
 -----------------------------------------------------------------------------
|                                                                             |
|           W    W    AA    RRRRR   N    N  II  N    N   GGGG   !!!           |
|           W    W   A  A   R    R  NN   N  II  NN   N  G    G  !!!           |
|           W    W  A    A  R    R  N N  N  II  N N  N  G       !!!           |
|           W WW W  AAAAAA  RRRRR   N  N N  II  N  N N  G  GGG   !            |
|           WW  WW  A    A  R   R   N   NN  II  N   NN  G    G                |
|           W    W  A    A  R    R  N    N  II  N    N   GGGG   !!!           |
|                                                                             |
|     Tetrahedron method does not include variations of the Fermi             |
|     occupations, so forces and stress will be inaccurate. We suggest        |
|     using a different smearing scheme ISMEAR = 1 or 2 for metals in         |
|     relaxations.                                                            |
|                                                                             |
 -----------------------------------------------------------------------------

