       N       E                     dE             d eps       ncg     rms          rms(c)
DAV:   1     0.203458660459E+04    0.20346E+04   -0.89640E+04 36140   0.192E+03
DAV:   2     0.139738078296E+03   -0.18948E+04   -0.18392E+04 32000   0.563E+02
DAV:   3    -0.771376081378E+02   -0.21688E+03   -0.19641E+03 43960   0.191E+02
DAV:   4    -0.920374415712E+02   -0.14900E+02   -0.14560E+02 46480   0.512E+01
DAV:   5    -0.924349146772E+02   -0.39747E+00   -0.39660E+00 44340   0.926E+00    0.375E+01
RMM:   6    -0.108910461570E+03   -0.16476E+02   -0.14807E+02 32200   0.774E+01    0.455E+01
RMM:   7    -0.885061849894E+02    0.20404E+02   -0.35546E+01 32049   0.460E+01    0.113E+01
RMM:   8    -0.898174602435E+02   -0.13113E+01   -0.74241E+00 38460   0.984E+00    0.313E+00
RMM:   9    -0.899295719938E+02   -0.11211E+00   -0.23632E+00 42639   0.398E+00    0.161E+00
RMM:  10    -0.899793526328E+02   -0.49781E-01   -0.42037E-01 47122   0.194E+00    0.105E+00
RMM:  11    -0.899878028044E+02   -0.84502E-02   -0.69485E-02 43445   0.857E-01    0.508E-01
RMM:  12    -0.899914043032E+02   -0.36015E-02   -0.23026E-02 42669   0.451E-01    0.236E-01
RMM:  13    -0.899918154905E+02   -0.41119E-03   -0.47897E-03 37008   0.267E-01    0.118E-01
RMM:  14    -0.899920114652E+02   -0.19597E-03   -0.16477E-03 27710   0.125E-01
   1 F= -.95006118E+02 E0= -.94990765E+02  d E =-.950061E+02  mag=     0.0000
       N       E                     dE             d eps       ncg     rms          rms(c)
DAV:   1    -0.953864451161E+02   -0.53946E+01   -0.11378E+02 34600   0.435E+01    0.157E+01
RMM:   2    -0.921798920649E+02    0.32066E+01   -0.68356E+00 34535   0.182E+01    0.128E+01
RMM:   3    -0.913712440031E+02    0.80865E+00   -0.56274E+00 32290   0.157E+01    0.809E+00
RMM:   4    -0.906337578429E+02    0.73749E+00   -0.16050E+00 33342   0.741E+00    0.198E+00
RMM:   5    -0.906443754644E+02   -0.10618E-01   -0.45589E-01 37792   0.260E+00    0.982E-01
RMM:   6    -0.906396032645E+02    0.47722E-02   -0.94474E-02 40951   0.142E+00    0.402E-01
RMM:   7    -0.906418892403E+02   -0.22860E-02   -0.28716E-02 40850   0.562E-01    0.292E-01
RMM:   8    -0.906427114295E+02   -0.82219E-03   -0.52295E-03 37505   0.264E-01    0.180E-01
RMM:   9    -0.906428428375E+02   -0.13141E-03   -0.11456E-03 27192   0.184E-01
   2 F= -.95644603E+02 E0= -.95633014E+02  d E =-.638485E+00  mag=     0.0000
       N       E                     dE             d eps       ncg     rms          rms(c)
DAV:   1    -0.960948782159E+02   -0.54522E+01   -0.12803E+02 32120   0.458E+01    0.163E+01
RMM:   2    -0.923918515035E+02    0.37030E+01   -0.70959E+00 35007   0.183E+01    0.125E+01
RMM:   3    -0.916813568198E+02    0.71049E+00   -0.64010E+00 32235   0.166E+01    0.880E+00
RMM:   4    -0.908614456544E+02    0.81991E+00   -0.17707E+00 33053   0.798E+00    0.229E+00
RMM:   5    -0.908749142923E+02   -0.13469E-01   -0.54837E-01 37605   0.274E+00    0.118E+00
RMM:   6    -0.908659434571E+02    0.89708E-02   -0.11003E-01 40451   0.152E+00    0.431E-01
RMM:   7    -0.908688286377E+02   -0.28852E-02   -0.34967E-02 41183   0.598E-01    0.277E-01
RMM:   8    -0.908696271171E+02   -0.79848E-03   -0.61240E-03 37929   0.292E-01    0.150E-01
RMM:   9    -0.908697691023E+02   -0.14199E-03   -0.12120E-03 26542   0.169E-01
   3 F= -.95864372E+02 E0= -.95858844E+02  d E =-.858254E+00  mag=    -0.0000
       N       E                     dE             d eps       ncg     rms          rms(c)
DAV:   1    -0.916266157528E+02   -0.75699E+00   -0.48287E+01 32280   0.212E+01    0.608E+00
RMM:   2    -0.916593329067E+02   -0.32717E-01   -0.37403E+00 32852   0.116E+01    0.754E+00
RMM:   3    -0.912916783908E+02    0.36765E+00   -0.17424E+00 33223   0.849E+00    0.246E+00
RMM:   4    -0.912463090035E+02    0.45369E-01   -0.45176E-01 38123   0.258E+00    0.779E-01
RMM:   5    -0.912504583480E+02   -0.41493E-02   -0.85042E-02 42793   0.109E+00    0.543E-01
RMM:   6    -0.912469437329E+02    0.35146E-02   -0.13466E-02 35800   0.571E-01    0.266E-01
RMM:   7    -0.912472970131E+02   -0.35328E-03   -0.60326E-03 37115   0.288E-01    0.135E-01
RMM:   8    -0.912473791587E+02   -0.82146E-04   -0.12822E-03 27391   0.138E-01
   4 F= -.96233891E+02 E0= -.96226235E+02  d E =-.369519E+00  mag=    -0.0000
       N       E                     dE             d eps       ncg     rms          rms(c)
DAV:   1    -0.915582274770E+02   -0.31093E+00   -0.31260E+01 32520   0.170E+01    0.491E+00
RMM:   2    -0.916163668604E+02   -0.58139E-01   -0.23996E+00 32953   0.927E+00    0.651E+00
RMM:   3    -0.913431750136E+02    0.27319E+00   -0.11303E+00 33232   0.684E+00    0.203E+00
RMM:   4    -0.913157983588E+02    0.27377E-01   -0.29133E-01 38301   0.206E+00    0.705E-01
RMM:   5    -0.913186182245E+02   -0.28199E-02   -0.55333E-02 41849   0.876E-01    0.503E-01
RMM:   6    -0.913155896509E+02    0.30286E-02   -0.92629E-03 35850   0.468E-01    0.225E-01
RMM:   7    -0.913157815308E+02   -0.19188E-03   -0.44440E-03 35876   0.239E-01    0.118E-01
RMM:   8    -0.913158496571E+02   -0.68126E-04   -0.86013E-04 24226   0.124E-01
   5 F= -.96313104E+02 E0= -.96303693E+02  d E =-.448732E+00  mag=    -0.0000
       N       E                     dE             d eps       ncg     rms          rms(c)
DAV:   1    -0.947498332848E+02   -0.34341E+01   -0.99966E+01 32000   0.388E+01    0.141E+01
RMM:   2    -0.935176241379E+02    0.12322E+01   -0.80567E+00 33723   0.185E+01    0.163E+01
RMM:   3    -0.919165906858E+02    0.16010E+01   -0.59283E+00 32087   0.167E+01    0.655E+00
RMM:   4    -0.914804674450E+02    0.43612E+00   -0.13362E+00 36592   0.558E+00    0.162E+00
RMM:   5    -0.915154636019E+02   -0.34996E-01   -0.33982E-01 41874   0.223E+00    0.112E+00
RMM:   6    -0.915051235034E+02    0.10340E-01   -0.48632E-02 39902   0.100E+00    0.646E-01
RMM:   7    -0.914992321856E+02    0.58913E-02   -0.18853E-02 35043   0.689E-01    0.320E-01
RMM:   8    -0.915004180183E+02   -0.11858E-02   -0.82292E-03 38650   0.329E-01    0.169E-01
RMM:   9    -0.915004317797E+02   -0.13761E-04   -0.16693E-03 29605   0.170E-01
   6 F= -.97735986E+02 E0= -.97725565E+02  d E =-.142288E+01  mag=     0.0000
       N       E                     dE             d eps       ncg     rms          rms(c)
DAV:   1    -0.915043889632E+02   -0.39709E-02   -0.35021E-02 38140   0.760E-01    0.285E-01
RMM:   2    -0.915046625983E+02   -0.27364E-03   -0.52838E-03 33034   0.490E-01    0.400E-01
RMM:   3    -0.915033107974E+02    0.13518E-02   -0.27442E-03 28128   0.377E-01    0.102E-01
RMM:   4    -0.915032617016E+02    0.49096E-04   -0.64592E-04 23332   0.991E-02
   7 F= -.97738619E+02 E0= -.97728205E+02  d E =-.142551E+01  mag=    -0.0000
       N       E                     dE             d eps       ncg     rms          rms(c)
DAV:   1    -0.915133809629E+02   -0.10070E-01   -0.14142E-01 34920   0.147E+00    0.551E-01
RMM:   2    -0.915130849812E+02    0.29598E-03   -0.16129E-02 33547   0.852E-01    0.706E-01
RMM:   3    -0.915091365103E+02    0.39485E-02   -0.92609E-03 32061   0.682E-01    0.216E-01
RMM:   4    -0.915087244694E+02    0.41204E-03   -0.22132E-03 28330   0.194E-01    0.741E-02
RMM:   5    -0.915087366568E+02   -0.12187E-04   -0.39549E-04 19200   0.117E-01
   8 F= -.97743800E+02 E0= -.97733390E+02  d E =-.143070E+01  mag=    -0.0000
       N       E                     dE             d eps       ncg     rms          rms(c)
DAV:   1    -0.915381777387E+02   -0.29453E-01   -0.56418E-01 32540   0.294E+00    0.110E+00
RMM:   2    -0.915363240713E+02    0.18537E-02   -0.62676E-02 33460   0.168E+00    0.140E+00
RMM:   3    -0.915210031196E+02    0.15321E-01   -0.36779E-02 32044   0.136E+00    0.439E-01
RMM:   4    -0.915193355656E+02    0.16676E-02   -0.89351E-03 33214   0.385E-01    0.155E-01
RMM:   5    -0.915193937288E+02   -0.58163E-04   -0.16682E-03 29284   0.232E-01
   9 F= -.97753888E+02 E0= -.97743480E+02  d E =-.144078E+01  mag=     0.0000
       N       E                     dE             d eps       ncg     rms          rms(c)
DAV:   1    -0.916137919984E+02   -0.94456E-01   -0.22633E+00 32200   0.588E+00    0.219E+00
RMM:   2    -0.916026272822E+02    0.11165E-01   -0.23885E-01 33475   0.328E+00    0.274E+00
RMM:   3    -0.915460407250E+02    0.56587E-01   -0.14339E-01 32048   0.267E+00    0.893E-01
RMM:   4    -0.915389736538E+02    0.70671E-02   -0.35323E-02 36277   0.770E-01    0.307E-01
RMM:   5    -0.915392599772E+02   -0.28632E-03   -0.66656E-03 35823   0.397E-01    0.200E-01
RMM:   6    -0.915389502808E+02    0.30970E-03   -0.16654E-03 28627   0.164E-01    0.113E-01
RMM:   7    -0.915388228150E+02    0.12747E-03   -0.53303E-04 21435   0.141E-01
  10 F= -.97772352E+02 E0= -.97761931E+02  d E =-.145925E+01  mag=     0.0000
       N       E                     dE             d eps       ncg     rms          rms(c)
DAV:   1    -0.918672314417E+02   -0.32828E+00   -0.91001E+00 32000   0.118E+01    0.430E+00
RMM:   2    -0.917877990501E+02    0.79432E-01   -0.84510E-01 33536   0.615E+00    0.510E+00
RMM:   3    -0.916031285918E+02    0.18467E+00   -0.53969E-01 32046   0.512E+00    0.184E+00
RMM:   4    -0.915724580044E+02    0.30671E-01   -0.13393E-01 36540   0.155E+00    0.596E-01
RMM:   5    -0.915738467885E+02   -0.13888E-02   -0.26828E-02 38731   0.733E-01    0.409E-01
RMM:   6    -0.915724559379E+02    0.13909E-02   -0.55630E-03 36212   0.320E-01    0.216E-01
RMM:   7    -0.915720028095E+02    0.45313E-03   -0.18655E-03 31520   0.225E-01    0.919E-02
RMM:   8    -0.915720480164E+02   -0.45207E-04   -0.63618E-04 22290   0.122E-01
  11 F= -.97804158E+02 E0= -.97793929E+02  d E =-.149105E+01  mag=    -0.0000
       N       E                     dE             d eps       ncg     rms          rms(c)
DAV:   1    -0.927524195316E+02   -0.11804E+01   -0.36720E+01 32000   0.235E+01    0.843E+00
RMM:   2    -0.922429879699E+02    0.50943E+00   -0.27616E+00 33740   0.110E+01    0.888E+00
RMM:   3    -0.917558286613E+02    0.48716E+00   -0.19709E+00 32064   0.960E+00    0.388E+00
RMM:   4    -0.916102353227E+02    0.14559E+00   -0.49306E-01 36439   0.327E+00    0.111E+00
RMM:   5    -0.916207574411E+02   -0.10522E-01   -0.11995E-01 41847   0.136E+00    0.846E-01
RMM:   6    -0.916153743192E+02    0.53831E-02   -0.17768E-02 38594   0.622E-01    0.467E-01
RMM:   7    -0.916131290623E+02    0.22453E-02   -0.82523E-03 34506   0.456E-01    0.195E-01
RMM:   8    -0.916134615171E+02   -0.33245E-03   -0.32140E-03 34774   0.246E-01    0.768E-02
RMM:   9    -0.916135189270E+02   -0.57410E-04   -0.74966E-04 23445   0.116E-01
  12 F= -.97844723E+02 E0= -.97834637E+02  d E =-.153162E+01  mag=    -0.0000
       N       E                     dE             d eps       ncg     rms          rms(c)
DAV:   1    -0.959340578938E+02   -0.43206E+01   -0.14955E+02 32000   0.473E+01    0.169E+01
RMM:   2    -0.929790958739E+02    0.29550E+01   -0.82243E+00 33789   0.183E+01    0.136E+01
RMM:   3    -0.922239442023E+02    0.75515E+00   -0.71460E+00 32139   0.175E+01    0.854E+00
RMM:   4    -0.915545333959E+02    0.66941E+00   -0.18233E+00 33959   0.773E+00    0.249E+00
RMM:   5    -0.916067413467E+02   -0.52208E-01   -0.55003E-01 40418   0.277E+00    0.181E+00
RMM:   6    -0.915925314136E+02    0.14210E-01   -0.90675E-02 42660   0.123E+00    0.113E+00
RMM:   7    -0.915823903520E+02    0.10141E-01   -0.39423E-02 33755   0.111E+00    0.462E-01
RMM:   8    -0.915839231552E+02   -0.15328E-02   -0.16467E-02 41051   0.486E-01    0.242E-01
RMM:   9    -0.915840685716E+02   -0.14542E-03   -0.30998E-03 34208   0.215E-01    0.879E-02
RMM:  10    -0.915841916787E+02   -0.12311E-03   -0.70565E-04 22947   0.123E-01
  13 F= -.97820422E+02 E0= -.97810121E+02  d E =-.150732E+01  mag=    -0.0000
       N       E                     dE             d eps       ncg     rms          rms(c)
DAV:   1    -0.940973800161E+02   -0.25133E+01   -0.76062E+01 32000   0.344E+01    0.130E+01
RMM:   2    -0.938700980931E+02    0.22728E+00   -0.94761E+00 33725   0.205E+01    0.140E+01
RMM:   3    -0.917959509066E+02    0.20741E+01   -0.47383E+00 32040   0.156E+01    0.450E+00
RMM:   4    -0.916248190091E+02    0.17113E+00   -0.11766E+00 35729   0.430E+00    0.166E+00
RMM:   5    -0.916314350796E+02   -0.66161E-02   -0.21435E-01 36243   0.270E+00    0.979E-01
RMM:   6    -0.916286893572E+02    0.27457E-02   -0.75745E-02 40316   0.860E-01    0.641E-01
RMM:   7    -0.916247479993E+02    0.39414E-02   -0.15525E-02 35025   0.676E-01    0.282E-01
RMM:   8    -0.916252942384E+02   -0.54624E-03   -0.67929E-03 38393   0.306E-01    0.110E-01
RMM:   9    -0.916254061906E+02   -0.11195E-03   -0.15658E-03 29829   0.141E-01
  14 F= -.97857210E+02 E0= -.97847116E+02  d E =-.154411E+01  mag=    -0.0000
       N       E                     dE             d eps       ncg     rms          rms(c)
DAV:   1    -0.918954611938E+02   -0.27017E+00   -0.10245E+01 32740   0.117E+01    0.367E+00
RMM:   2    -0.917341523629E+02    0.16131E+00   -0.51533E-01 34106   0.452E+00    0.195E+00
RMM:   3    -0.917355540444E+02   -0.14017E-02   -0.33089E-01 33384   0.315E+00    0.189E+00
RMM:   4    -0.917051995639E+02    0.30354E-01   -0.13675E-01 33655   0.237E+00    0.336E-01
RMM:   5    -0.917079315745E+02   -0.27320E-02   -0.41694E-02 41048   0.691E-01    0.210E-01
RMM:   6    -0.917076563905E+02    0.27518E-03   -0.52223E-03 34804   0.327E-01    0.135E-01
RMM:   7    -0.917073900918E+02    0.26630E-03   -0.24131E-03 30541   0.161E-01    0.701E-02
RMM:   8    -0.917074833948E+02   -0.93303E-04   -0.55753E-04 21299   0.112E-01
  15 F= -.97938246E+02 E0= -.97929464E+02  d E =-.810359E-01  mag=    -0.0000
       N       E                     dE             d eps       ncg     rms          rms(c)
DAV:   1    -0.918482226289E+02   -0.14083E+00   -0.63208E+00 35440   0.916E+00    0.290E+00
RMM:   2    -0.917475275760E+02    0.10070E+00   -0.31851E-01 34108   0.356E+00    0.149E+00
RMM:   3    -0.917430139653E+02    0.45136E-02   -0.19686E-01 33646   0.229E+00    0.131E+00
RMM:   4    -0.917307032768E+02    0.12311E-01   -0.79681E-02 33814   0.178E+00    0.255E-01
RMM:   5    -0.917322739727E+02   -0.15707E-02   -0.24985E-02 40947   0.537E-01    0.169E-01
RMM:   6    -0.917320223148E+02    0.25166E-03   -0.29503E-03 32816   0.249E-01    0.112E-01
RMM:   7    -0.917317905086E+02    0.23181E-03   -0.17795E-03 28710   0.140E-01    0.556E-02
RMM:   8    -0.917318526394E+02   -0.62131E-04   -0.35192E-04 19607   0.101E-01
  16 F= -.97961694E+02 E0= -.97953590E+02  d E =-.104484E+00  mag=     0.0000
       N       E                     dE             d eps       ncg     rms          rms(c)
DAV:   1    -0.927377233458E+02   -0.10059E+01   -0.24825E+01 32320   0.203E+01    0.713E+00
RMM:   2    -0.919401367148E+02    0.79759E+00   -0.99511E-01 34440   0.716E+00    0.355E+00
RMM:   3    -0.918675927498E+02    0.72544E-01   -0.83769E-01 33647   0.494E+00    0.343E+00
RMM:   4    -0.917765302971E+02    0.91062E-01   -0.31862E-01 32725   0.382E+00    0.691E-01
RMM:   5    -0.917800287539E+02   -0.34985E-02   -0.75976E-02 40423   0.109E+00    0.443E-01
RMM:   6    -0.917781581556E+02    0.18706E-02   -0.17368E-02 39823   0.545E-01    0.209E-01
RMM:   7    -0.917788796065E+02   -0.72145E-03   -0.50687E-03 37445   0.276E-01    0.976E-02
RMM:   8    -0.917790751649E+02   -0.19556E-03   -0.97602E-04 24782   0.121E-01
  17 F= -.98006572E+02 E0= -.97997883E+02  d E =-.448785E-01  mag=     0.0000
       N       E                     dE             d eps       ncg     rms          rms(c)
DAV:   1    -0.917792235266E+02   -0.34392E-03   -0.25433E-03 37500   0.228E-01    0.762E-02
RMM:   2    -0.917791792465E+02    0.44280E-04   -0.17185E-04 17199   0.977E-02
  18 F= -.98006657E+02 E0= -.97997924E+02  d E =-.449626E-01  mag=    -0.0000
       N       E                     dE             d eps       ncg     rms          rms(c)
DAV:   1    -0.918422291936E+02   -0.63006E-01   -0.14507E+00 32860   0.489E+00    0.192E+00
RMM:   2    -0.918057261806E+02    0.36503E-01   -0.94016E-02 34564   0.208E+00    0.153E+00
RMM:   3    -0.917924774117E+02    0.13249E-01   -0.79776E-02 32086   0.193E+00    0.893E-01
RMM:   4    -0.917854695690E+02    0.70078E-02   -0.22438E-02 34468   0.787E-01    0.208E-01
RMM:   5    -0.917858185316E+02   -0.34896E-03   -0.58495E-03 36851   0.286E-01    0.145E-01
RMM:   6    -0.917856476740E+02    0.17086E-03   -0.87643E-04 24251   0.147E-01
  19 F= -.98012993E+02 E0= -.98004561E+02  d E =-.633682E-02  mag=    -0.0000
       N       E                     dE             d eps       ncg     rms          rms(c)
DAV:   1    -0.920668044459E+02   -0.28099E+00   -0.69810E+00 32340   0.107E+01    0.423E+00
RMM:   2    -0.918851117804E+02    0.18169E+00   -0.45552E-01 34663   0.456E+00    0.329E+00
RMM:   3    -0.918254218101E+02    0.59690E-01   -0.38479E-01 32090   0.422E+00    0.194E+00
RMM:   4    -0.917930308395E+02    0.32391E-01   -0.10808E-01 34546   0.175E+00    0.457E-01
RMM:   5    -0.917946784387E+02   -0.16476E-02   -0.29484E-02 40596   0.619E-01    0.309E-01
RMM:   6    -0.917938352290E+02    0.84321E-03   -0.42933E-03 35656   0.296E-01    0.191E-01
RMM:   7    -0.917932481121E+02    0.58712E-03   -0.24426E-03 30696   0.255E-01    0.894E-02
RMM:   8    -0.917933279561E+02   -0.79844E-04   -0.78225E-04 24072   0.131E-01
  20 F= -.98020538E+02 E0= -.98012666E+02  d E =-.138819E-01  mag=     0.0000
       N       E                     dE             d eps       ncg     rms          rms(c)
DAV:   1    -0.918376148645E+02   -0.44367E-01   -0.16242E+00 34820   0.467E+00    0.171E+00
RMM:   2    -0.918107673562E+02    0.26848E-01   -0.10761E-01 34272   0.219E+00    0.128E+00
RMM:   3    -0.918029924127E+02    0.77749E-02   -0.71335E-02 32386   0.180E+00    0.778E-01
RMM:   4    -0.917977691041E+02    0.52233E-02   -0.20487E-02 33915   0.761E-01    0.179E-01
RMM:   5    -0.917980688246E+02   -0.29972E-03   -0.57258E-03 36131   0.286E-01    0.120E-01
RMM:   6    -0.917979549574E+02    0.11387E-03   -0.80244E-04 24111   0.146E-01
  21 F= -.98025312E+02 E0= -.98017193E+02  d E =-.477339E-02  mag=     0.0000
       N       E                     dE             d eps       ncg     rms          rms(c)
DAV:   1    -0.918063648902E+02   -0.82961E-02   -0.32910E-01 36880   0.210E+00    0.784E-01
RMM:   2    -0.918008990120E+02    0.54659E-02   -0.22640E-02 34444   0.101E+00    0.592E-01
RMM:   3    -0.917991536625E+02    0.17453E-02   -0.14781E-02 32296   0.819E-01    0.356E-01
RMM:   4    -0.917981053806E+02    0.10483E-02   -0.43449E-03 30982   0.346E-01    0.839E-02
RMM:   5    -0.917981671659E+02   -0.61785E-04   -0.12692E-03 27673   0.139E-01
  22 F= -.98025629E+02 E0= -.98017395E+02  d E =-.509038E-02  mag=    -0.0000
       N       E                     dE             d eps       ncg     rms          rms(c)
DAV:   1    -0.918389035226E+02   -0.40798E-01   -0.10879E+00 32400   0.415E+00    0.159E+00
RMM:   2    -0.918185532271E+02    0.20350E-01   -0.88685E-02 33306   0.203E+00    0.146E+00
RMM:   3    -0.918039850182E+02    0.14568E-01   -0.60293E-02 32062   0.170E+00    0.664E-01
RMM:   4    -0.918007266663E+02    0.32584E-02   -0.16115E-02 35364   0.576E-01    0.225E-01
RMM:   5    -0.918008421873E+02   -0.11552E-03   -0.34024E-03 34154   0.258E-01    0.147E-01
RMM:   6    -0.918006505662E+02    0.19162E-03   -0.62712E-04 22052   0.133E-01
  23 F= -.98028490E+02 E0= -.98020304E+02  d E =-.286173E-02  mag=    -0.0000
       N       E                     dE             d eps       ncg     rms          rms(c)
DAV:   1    -0.921479470587E+02   -0.34710E+00   -0.98483E+00 32160   0.124E+01    0.479E+00
RMM:   2    -0.919373388477E+02    0.21061E+00   -0.70310E-01 33277   0.566E+00    0.412E+00
RMM:   3    -0.918330404785E+02    0.10430E+00   -0.53935E-01 32044   0.501E+00    0.208E+00
RMM:   4    -0.918016725564E+02    0.31368E-01   -0.14105E-01 35950   0.186E+00    0.670E-01
RMM:   5    -0.918029185979E+02   -0.12460E-02   -0.33664E-02 40343   0.726E-01    0.436E-01
RMM:   6    -0.918012204590E+02    0.16981E-02   -0.54247E-03 34959   0.377E-01    0.228E-01
RMM:   7    -0.918009483965E+02    0.27206E-03   -0.29143E-03 33224   0.253E-01    0.103E-01
RMM:   8    -0.918010125078E+02   -0.64111E-04   -0.91423E-04 25096   0.154E-01
  24 F= -.98030338E+02 E0= -.98022283E+02  d E =-.470915E-02  mag=    -0.0000
       N       E                     dE             d eps       ncg     rms          rms(c)
DAV:   1    -0.918036735063E+02   -0.27251E-02   -0.54519E-02 38400   0.990E-01    0.357E-01
RMM:   2    -0.918024707273E+02    0.12028E-02   -0.44945E-03 32761   0.463E-01    0.338E-01
RMM:   3    -0.918016002400E+02    0.87049E-03   -0.29685E-03 30318   0.377E-01    0.154E-01
RMM:   4    -0.918013782328E+02    0.22201E-03   -0.85687E-04 25883   0.127E-01    0.621E-02
RMM:   5    -0.918013781390E+02    0.93823E-07   -0.12843E-04 17736   0.697E-02
  25 F= -.98030580E+02 E0= -.98022418E+02  d E =-.241858E-03  mag=     0.0000
       N       E                     dE             d eps       ncg     rms          rms(c)
DAV:   1    -0.918039397428E+02   -0.25615E-02   -0.61794E-02 34800   0.104E+00    0.380E-01
RMM:   2    -0.918025435477E+02    0.13962E-02   -0.49915E-03 33346   0.478E-01    0.349E-01
RMM:   3    -0.918016323900E+02    0.91116E-03   -0.34075E-03 30731   0.407E-01    0.164E-01
RMM:   4    -0.918013834092E+02    0.24898E-03   -0.99037E-04 26357   0.139E-01    0.641E-02
RMM:   5    -0.918013911314E+02   -0.77222E-05   -0.17344E-04 18018   0.752E-02
  26 F= -.98030464E+02 E0= -.98022232E+02  d E =-.126003E-03  mag=    -0.0000
