       N       E                     dE             d eps       ncg     rms          rms(c)
DAV:   1     0.191769006556E+04    0.19177E+04   -0.71836E+04 79088   0.188E+03
DAV:   2     0.149311069189E+03   -0.17684E+04   -0.16591E+04 71680   0.548E+02
DAV:   3    -0.839218451544E+02   -0.23323E+03   -0.19100E+03 73264   0.210E+02
DAV:   4    -0.962107313709E+02   -0.12289E+02   -0.12068E+02 80032   0.572E+01
DAV:   5    -0.964129850231E+02   -0.20225E+00   -0.20216E+00 96552   0.702E+00    0.425E+01
DAV:   6    -0.962778374806E+02    0.13515E+00   -0.38695E+01 96320   0.824E+01    0.599E+01
DAV:   7    -0.851406507810E+02    0.11137E+02   -0.25878E+01 87584   0.621E+01    0.302E+01
DAV:   8    -0.919093814303E+02   -0.67687E+01   -0.18736E+01 86840   0.624E+01    0.437E+01
DAV:   9    -0.864797594634E+02    0.54296E+01   -0.85130E+00 89248   0.429E+01    0.308E+01
DAV:  10    -0.868688812520E+02   -0.38912E+00   -0.39744E+00 84896   0.241E+01    0.260E+01
DAV:  11    -0.876964633784E+02   -0.82758E+00   -0.22396E+00 83232   0.220E+01    0.112E+01
DAV:  12    -0.880240971144E+02   -0.32763E+00   -0.17917E+00 83720   0.171E+01    0.110E+01
DAV:  13    -0.878187367337E+02    0.20536E+00   -0.99448E-01 84720   0.125E+01    0.472E+00
DAV:  14    -0.877499423399E+02    0.68794E-01   -0.22428E-01 91096   0.569E+00    0.234E+00
DAV:  15    -0.877504127576E+02   -0.47042E-03   -0.16846E-01 81896   0.508E+00    0.252E+00
DAV:  16    -0.877414174023E+02    0.89954E-02   -0.19070E-01 81816   0.463E+00    0.199E+00
DAV:  17    -0.877400738091E+02    0.13436E-02   -0.72996E-02 88264   0.311E+00    0.133E+00
DAV:  18    -0.877327844104E+02    0.72894E-02   -0.24477E-02 91512   0.177E+00    0.416E-01
DAV:  19    -0.877332925877E+02   -0.50818E-03   -0.44863E-03 81456   0.807E-01    0.316E-01
DAV:  20    -0.877330083395E+02    0.28425E-03   -0.28440E-03 85272   0.536E-01    0.215E-01
DAV:  21    -0.877330582029E+02   -0.49863E-04   -0.70205E-04 81272   0.298E-01    0.524E-02
DAV:  22    -0.877330524550E+02    0.57480E-05   -0.12124E-04 76968   0.816E-02    0.321E-02
DAV:  23    -0.877330875020E+02   -0.35047E-04   -0.26644E-05 74024   0.639E-02    0.422E-02
DAV:  24    -0.877330645089E+02    0.22993E-04   -0.14568E-05 41208   0.389E-02    0.130E-02
DAV:  25    -0.877330636399E+02    0.86896E-06   -0.24632E-06 39072   0.885E-03
   1 F= -.87733064E+02 E0= -.87733064E+02  d E =0.000000E+00  mag=    13.1101
