 vasp.6.4.2 20Jul23 (build Aug 05 2024 17:09:17) complex                        
  
 executed on             LinuxIFC date 2025.05.27  02:31:05
 running   24 mpi-ranks, with    1 threads/rank, on    1 nodes
 distrk:  each k-point on   24 cores,    1 groups
 distr:  one band on NCORE=   3 cores,    8 groups


--------------------------------------------------------------------------------------------------------


 INCAR:
   SYSTEM = metalsystem
   EDIFF = 5E-6
   SIGMA = 0.2
   ISPIN = 2
   VOSKOWN = 1
   MAGMOM = 12*3
   LWAVE = .FALSE.
   ISIF = 2
   ISMEAR = -5
   NSW = 1
   IBRION = -1
   PREC = High
   NEDOS = 2000
   NPAR = 8
   LCHARG = .TRUE.
   AMIX = 0.2
   BMIX = 0.0001
   AMIX_MAG = 0.2
   BMIX_MAG = 0.0001

 POTCAR:   PAW Co 03Mar1998                       
 POTCAR:   PAW Ni_pv 19Apr2000                    
 POTCAR:   PAW Co 03Mar1998                       
   VRHFIN =Co: d8 s1                                                                                
   LEXCH  = CA                                                                                      
   EATOM  =   816.9490 eV,   60.0441 Ry                                                             
                                                                                                    
   TITEL  = PAW Co 03Mar1998                                                                        
   LULTRA =        F    use ultrasoft PP ?                                                          
   IUNSCR =        1    unscreen: 0-lin 1-nonlin 2-no                                               
   RPACOR =    2.000    partial core radius                                                         
   POMASS =   58.933; ZVAL   =    9.000    mass and valenz                                          
   RCORE  =    2.300    outmost cutoff radius                                                       
   RWIGS  =    2.460; RWIGS  =    1.302    wigner-seitz radius (au A)                               
   ENMAX  =  268.056; ENMIN  =  201.042 eV                                                          
   RCLOC  =    1.697    cutoff for local pot                                                        
   LCOR   =        T    correct aug charges                                                         
   LPAW   =        T    paw PP                                                                      
   EAUG   =  477.818                                                                                
   DEXC   =    -.013                                                                                
   RMAX   =    2.816    core radius for proj-oper                                                   
   RAUG   =    1.300    factor for augmentation sphere                                              
   RDEP   =    2.393    core radius for depl-charge                                                 
   QCUT   =   -4.439; QGAM   =    8.877    optimization parameters                                  
                                                                                                    
   Description                                                                                      
     l     E      TYP  RCUT    TYP  RCUT                                                            
     2   .000     23  2.300                                                                         
     2   .000     23  2.300                                                                         
     0   .000     23  2.300                                                                         
     0   .000     23  2.300                                                                         
     1  -.200     23  2.300                                                                         
     1   .000     23  2.300                                                                         
     3   .000      7   .000                                                                         
  local pseudopotential read in
  partial core-charges read in
  atomic valenz-charges read in
  non local Contribution for L=           2  read in
    real space projection operators read in
  non local Contribution for L=           2  read in
    real space projection operators read in
  non local Contribution for L=           0  read in
    real space projection operators read in
  non local Contribution for L=           0  read in
    real space projection operators read in
  non local Contribution for L=           1  read in
    real space projection operators read in
  non local Contribution for L=           1  read in
    real space projection operators read in
    PAW grid and wavefunctions read in
 
   number of l-projection  operators is LMAX  =           6
   number of lm-projection operators is LMMAX =          18
 
 POTCAR:   PAW Ni_pv 19Apr2000                    
   VRHFIN =Ni:                                                                                      
   LEXCH  = CA                                                                                      
   EATOM  =  3504.8643 eV,  257.6003 Ry                                                             
                                                                                                    
   TITEL  = PAW Ni_pv 19Apr2000                                                                     
   LULTRA =        F    use ultrasoft PP ?                                                          
   IUNSCR =        1    unscreen: 0-lin 1-nonlin 2-no                                               
   RPACOR =    1.500    partial core radius                                                         
   POMASS =   58.690; ZVAL   =   16.000    mass and valenz                                          
   RCORE  =    2.000    outmost cutoff radius                                                       
   RWIGS  =    2.000; RWIGS  =    1.058    wigner-seitz radius (au A)                               
   ENMAX  =  367.726; ENMIN  =  275.795 eV                                                          
   RCLOC  =    1.301    cutoff for local pot                                                        
   LCOR   =        T    correct aug charges                                                         
   LPAW   =        T    paw PP                                                                      
   EAUG   =  703.443                                                                                
   DEXC   =    -.002                                                                                
   RMAX   =    2.404    core radius for proj-oper                                                   
   RAUG   =    1.300    factor for augmentation sphere                                              
   RDEP   =    2.103    core radius for depl-charge                                                 
   QCUT   =   -5.199; QGAM   =   10.398    optimization parameters                                  
                                                                                                    
   Description                                                                                      
     l     E      TYP  RCUT    TYP  RCUT                                                            
     1   .000     23  1.700                                                                         
     1  -.100     23  1.700                                                                         
     2   .000     23  2.000                                                                         
     2   .000     23  2.000                                                                         
     0   .000     23  1.900                                                                         
     0   .000     23  1.900                                                                         
     3   .000      7   .000                                                                         
  local pseudopotential read in
  partial core-charges read in
  atomic valenz-charges read in
  non local Contribution for L=           1  read in
    real space projection operators read in
  non local Contribution for L=           1  read in
    real space projection operators read in
  non local Contribution for L=           2  read in
    real space projection operators read in
  non local Contribution for L=           2  read in
    real space projection operators read in
  non local Contribution for L=           0  read in
    real space projection operators read in
  non local Contribution for L=           0  read in
    real space projection operators read in
    PAW grid and wavefunctions read in
 
   number of l-projection  operators is LMAX  =           6
   number of lm-projection operators is LMMAX =          18
 
 PAW Co 03Mar1998                       :
 energy of atom  1       EATOM= -816.9490
 kinetic energy error for atom=    0.0033 (will be added to EATOM!!)
 PAW Ni_pv 19Apr2000                    :
 energy of atom  2       EATOM=-3504.8643
 kinetic energy error for atom=    0.0893 (will be added to EATOM!!)
 
 
 POSCAR: CoNiV
  positions in direct lattice
  velocities in cartesian coordinates
 exchange correlation table for  LEXCH =        2
   RHO(1)=    0.500       N(1)  =     2000
   RHO(2)=  100.500       N(2)  =     4000

 VTST: version 4.1, (05/19/21)

 CHAIN: initializing optimizer
 
 OPT: Using VASP Dynamics algorithm
 CHAIN: Read ICHAIN            0
 
 POSCAR: CoNiV
  positions in direct lattice
  velocities in cartesian coordinates
 


--------------------------------------------------------------------------------------------------------


 ion  position               nearest neighbor table
   1  0.834  0.250  0.338-   3 2.41   5 2.42   6 2.42   2 2.44   2 2.44  12 2.44  11 2.44  11 2.45
                            12 2.45   7 2.47  10 2.47   9 2.47
   2  0.834  0.750  0.338-   4 2.41   5 2.42   6 2.42   1 2.44   1 2.44  12 2.44  11 2.44  11 2.45
                            12 2.45   8 2.47  10 2.47   9 2.47
   3  0.165  0.250  0.664-   1 2.41  11 2.43  12 2.43   4 2.44   4 2.44   6 2.44   5 2.44  10 2.45
                             9 2.45   6 2.45   5 2.45   7 2.46
   4  0.165  0.750  0.664-   2 2.41  11 2.43  12 2.43   3 2.44   3 2.44   6 2.44   5 2.44  10 2.45
                             9 2.45   6 2.45   5 2.45   8 2.46
   5  0.667  0.000  0.665-   1 2.42   2 2.42  11 2.43   6 2.44   6 2.44   4 2.44   3 2.44   9 2.45
                             8 2.45   7 2.45   3 2.45   4 2.45
   6  0.667  0.500  0.665-   1 2.42   2 2.42  12 2.43   5 2.44   5 2.44   4 2.44   3 2.44  10 2.45
                             8 2.45   7 2.45   3 2.45   4 2.45
   7  0.501  0.250  0.999-   8 2.44   8 2.44  10 2.44   9 2.44   9 2.45  10 2.45   5 2.45   6 2.45
                             3 2.46  12 2.46  11 2.46   1 2.47
   8  0.501  0.750  0.999-   7 2.44   7 2.44  10 2.44   9 2.44   9 2.45  10 2.45   5 2.45   6 2.45
                             4 2.46  12 2.46  11 2.46   2 2.47
   9  1.000  0.000  0.999-  10 2.44  10 2.44   7 2.44   8 2.44   5 2.45   8 2.45   7 2.45   4 2.45
                             3 2.45  11 2.46   1 2.47   2 2.47
  10  1.000  0.500  0.999-   9 2.44   9 2.44   7 2.44   8 2.44   6 2.45   8 2.45   7 2.45   4 2.45
                             3 2.45  12 2.46   1 2.47   2 2.47
  11  0.333  0.000  0.335-   3 2.43   4 2.43   5 2.43  12 2.44  12 2.44   2 2.44   1 2.44   2 2.45
                             1 2.45   9 2.46   8 2.46   7 2.46
  12  0.333  0.500  0.335-   3 2.43   4 2.43   6 2.43  11 2.44  11 2.44   2 2.44   1 2.44   2 2.45
                             1 2.45  10 2.46   8 2.46   7 2.46
 
  LATTYP: Found a simple monoclinic cell.
 ALAT       =     4.2407101964
 B/A-ratio  =     1.1495061817
 C/A-ratio  =     1.4146594829
 COS(beta)  =    -0.0030810541
  
  Lattice vectors:
  
 A1 = (   4.2407051676,   0.0000000000,  -0.0065307849)
 A2 = (   0.0000000000,   4.8747225855,   0.0000000000)
 A3 = (  -0.0092449242,   0.0000000000,   5.9991537703)


Analysis of symmetry for initial positions (statically):
=====================================================================
 Subroutine PRICEL returns following result:
 
  LATTYP: Found a simple monoclinic cell.
 ALAT       =     4.2407101964
 B/A-ratio  =     0.5747530908
 C/A-ratio  =     1.4146594829
 COS(beta)  =    -0.0030810541
  
  Lattice vectors:
  
 A1 = (   4.2407051676,   0.0000000000,  -0.0065307849)
 A2 = (   0.0000000000,   2.4373612928,   0.0000000000)
 A3 = (  -0.0092449242,   0.0000000000,   5.9991537703)
 
   2 primitive cells build up your supercell.
 

 Routine SETGRP: Setting up the symmetry group for a 
 simple monoclinic supercell.


 Subroutine GETGRP returns: Found  2 space group operations
 (whereof  2 operations were pure point group operations)
 out of a pool of  4 trial point group operations.


The static configuration has the point symmetry C_1h.


Analysis of symmetry for dynamics (positions and initial velocities):
=====================================================================
 Subroutine PRICEL returns following result:
 
  LATTYP: Found a simple monoclinic cell.
 ALAT       =     4.2407101964
 B/A-ratio  =     0.5747530908
 C/A-ratio  =     1.4146594829
 COS(beta)  =    -0.0030810541
  
  Lattice vectors:
  
 A1 = (   4.2407051676,   0.0000000000,  -0.0065307849)
 A2 = (   0.0000000000,   2.4373612928,   0.0000000000)
 A3 = (  -0.0092449242,   0.0000000000,   5.9991537703)
 
   2 primitive cells build up your supercell.
 

 Routine SETGRP: Setting up the symmetry group for a 
 simple monoclinic supercell.


 Subroutine GETGRP returns: Found  2 space group operations
 (whereof  2 operations were pure point group operations)
 out of a pool of  4 trial point group operations.


The dynamic configuration has the point symmetry C_1h.


Analysis of structural, dynamic, and magnetic symmetry:
=====================================================================
 Subroutine PRICEL returns following result:
 
  LATTYP: Found a simple monoclinic cell.
 ALAT       =     4.2407101964
 B/A-ratio  =     0.5747530908
 C/A-ratio  =     1.4146594829
 COS(beta)  =    -0.0030810541
  
  Lattice vectors:
  
 A1 = (   4.2407051676,   0.0000000000,  -0.0065307849)
 A2 = (   0.0000000000,   2.4373612928,   0.0000000000)
 A3 = (  -0.0092449242,   0.0000000000,   5.9991537703)
 
   2 primitive cells build up your supercell.
 

 Routine SETGRP: Setting up the symmetry group for a 
 simple monoclinic supercell.


 Subroutine GETGRP returns: Found  2 space group operations
 (whereof  2 operations were pure point group operations)
 out of a pool of  4 trial point group operations.


The overall configuration has the point symmetry C_1h.


 Subroutine INISYM returns: Found  2 space group operations
 (whereof  2 operations are pure point group operations),
 and found     2 'primitive' translations


----------------------------------------------------------------------------------------

                                     Primitive cell                                     

  volume of cell :      62.0079

  direct lattice vectors                    reciprocal lattice vectors
     4.240705168  0.000000000 -0.006530785     0.235810398  0.000000000  0.000363393
     0.000000000  2.437361293  0.000000000     0.000000000  0.410279757  0.000000000
    -0.009244924  0.000000000  5.999153770     0.000256707  0.000000000  0.166690572

  length of vectors
     4.240710196  2.437361293  5.999160894     0.235810678  0.410279757  0.166690770

  position of ions in fractional coordinates (direct lattice)
     0.834155625  0.500000000  0.337610775
     0.165058686  0.500000000  0.664250536
     0.667253325  0.000000000  0.664918481
     0.500645156  0.500000000  0.998950456
     0.999733260  0.000000000  0.998819777
     0.333153947  0.000000000  0.335449975

  ion indices of the primitive-cell ions
   primitive index   ion index
                 1           1
                 2           3
                 3           5
                 4           7
                 5           9
                 6          11

----------------------------------------------------------------------------------------

 
 
 KPOINTS: fcc-kp                                  

Automatic generation of k-mesh.
 Grid dimensions derived from RKLEN:
 generate k-points for:    9    8    7

 Generating k-lattice:

  Cartesian coordinates                     Fractional coordinates (reciprocal lattice)
     0.026201155  0.000000000  0.000040377     0.111111111  0.000000000  0.000000000
     0.000000000  0.025642485  0.000000000     0.000000000  0.125000000  0.000000000
     0.000036672  0.000000000  0.023812939    -0.000000000  0.000000000  0.142857143

  Length of vectors
     0.026201186  0.025642485  0.023812967

  Shift w.r.t. Gamma in fractional coordinates (k-lattice)
     0.000000000  0.000000000  0.000000000

 TETIRR: Found   1500 inequivalent tetrahedra from     3024
 
 Subroutine IBZKPT returns following result:
 ===========================================
 
 Found    160 irreducible k-points:
 
 Following reciprocal coordinates:
            Coordinates               Weight
  0.000000  0.000000  0.000000      1.000000
  0.111111  0.000000  0.000000      2.000000
  0.222222  0.000000  0.000000      2.000000
  0.333333  0.000000  0.000000      2.000000
  0.444444  0.000000  0.000000      2.000000
  0.000000  0.125000  0.000000      2.000000
  0.111111  0.125000  0.000000      4.000000
  0.222222  0.125000  0.000000      4.000000
  0.333333  0.125000  0.000000      4.000000
  0.444444  0.125000  0.000000      4.000000
  0.000000  0.250000  0.000000      2.000000
  0.111111  0.250000  0.000000      4.000000
  0.222222  0.250000  0.000000      4.000000
  0.333333  0.250000  0.000000      4.000000
  0.444444  0.250000  0.000000      4.000000
  0.000000  0.375000  0.000000      2.000000
  0.111111  0.375000  0.000000      4.000000
  0.222222  0.375000  0.000000      4.000000
  0.333333  0.375000  0.000000      4.000000
  0.444444  0.375000  0.000000      4.000000
  0.000000  0.500000  0.000000      1.000000
  0.111111  0.500000  0.000000      2.000000
  0.222222  0.500000  0.000000      2.000000
  0.333333  0.500000  0.000000      2.000000
  0.444444  0.500000  0.000000      2.000000
  0.000000  0.000000  0.142857      2.000000
  0.111111  0.000000  0.142857      2.000000
  0.222222  0.000000  0.142857      2.000000
  0.333333  0.000000  0.142857      2.000000
  0.444444  0.000000  0.142857      2.000000
 -0.444444  0.000000  0.142857      2.000000
 -0.333333  0.000000  0.142857      2.000000
 -0.222222  0.000000  0.142857      2.000000
 -0.111111  0.000000  0.142857      2.000000
  0.000000  0.125000  0.142857      4.000000
  0.111111  0.125000  0.142857      4.000000
  0.222222  0.125000  0.142857      4.000000
  0.333333  0.125000  0.142857      4.000000
  0.444444  0.125000  0.142857      4.000000
 -0.444444  0.125000  0.142857      4.000000
 -0.333333  0.125000  0.142857      4.000000
 -0.222222  0.125000  0.142857      4.000000
 -0.111111  0.125000  0.142857      4.000000
  0.000000  0.250000  0.142857      4.000000
  0.111111  0.250000  0.142857      4.000000
  0.222222  0.250000  0.142857      4.000000
  0.333333  0.250000  0.142857      4.000000
  0.444444  0.250000  0.142857      4.000000
 -0.444444  0.250000  0.142857      4.000000
 -0.333333  0.250000  0.142857      4.000000
 -0.222222  0.250000  0.142857      4.000000
 -0.111111  0.250000  0.142857      4.000000
  0.000000  0.375000  0.142857      4.000000
  0.111111  0.375000  0.142857      4.000000
  0.222222  0.375000  0.142857      4.000000
  0.333333  0.375000  0.142857      4.000000
  0.444444  0.375000  0.142857      4.000000
 -0.444444  0.375000  0.142857      4.000000
 -0.333333  0.375000  0.142857      4.000000
 -0.222222  0.375000  0.142857      4.000000
 -0.111111  0.375000  0.142857      4.000000
  0.000000  0.500000  0.142857      2.000000
  0.111111  0.500000  0.142857      2.000000
  0.222222  0.500000  0.142857      2.000000
  0.333333  0.500000  0.142857      2.000000
  0.444444  0.500000  0.142857      2.000000
 -0.444444  0.500000  0.142857      2.000000
 -0.333333  0.500000  0.142857      2.000000
 -0.222222  0.500000  0.142857      2.000000
 -0.111111  0.500000  0.142857      2.000000
  0.000000  0.000000  0.285714      2.000000
  0.111111  0.000000  0.285714      2.000000
  0.222222  0.000000  0.285714      2.000000
  0.333333  0.000000  0.285714      2.000000
  0.444444  0.000000  0.285714      2.000000
 -0.444444  0.000000  0.285714      2.000000
 -0.333333  0.000000  0.285714      2.000000
 -0.222222  0.000000  0.285714      2.000000
 -0.111111  0.000000  0.285714      2.000000
  0.000000  0.125000  0.285714      4.000000
  0.111111  0.125000  0.285714      4.000000
  0.222222  0.125000  0.285714      4.000000
  0.333333  0.125000  0.285714      4.000000
  0.444444  0.125000  0.285714      4.000000
 -0.444444  0.125000  0.285714      4.000000
 -0.333333  0.125000  0.285714      4.000000
 -0.222222  0.125000  0.285714      4.000000
 -0.111111  0.125000  0.285714      4.000000
  0.000000  0.250000  0.285714      4.000000
  0.111111  0.250000  0.285714      4.000000
  0.222222  0.250000  0.285714      4.000000
  0.333333  0.250000  0.285714      4.000000
  0.444444  0.250000  0.285714      4.000000
 -0.444444  0.250000  0.285714      4.000000
 -0.333333  0.250000  0.285714      4.000000
 -0.222222  0.250000  0.285714      4.000000
 -0.111111  0.250000  0.285714      4.000000
  0.000000  0.375000  0.285714      4.000000
  0.111111  0.375000  0.285714      4.000000
  0.222222  0.375000  0.285714      4.000000
  0.333333  0.375000  0.285714      4.000000
  0.444444  0.375000  0.285714      4.000000
 -0.444444  0.375000  0.285714      4.000000
 -0.333333  0.375000  0.285714      4.000000
 -0.222222  0.375000  0.285714      4.000000
 -0.111111  0.375000  0.285714      4.000000
  0.000000  0.500000  0.285714      2.000000
  0.111111  0.500000  0.285714      2.000000
  0.222222  0.500000  0.285714      2.000000
  0.333333  0.500000  0.285714      2.000000
  0.444444  0.500000  0.285714      2.000000
 -0.444444  0.500000  0.285714      2.000000
 -0.333333  0.500000  0.285714      2.000000
 -0.222222  0.500000  0.285714      2.000000
 -0.111111  0.500000  0.285714      2.000000
  0.000000  0.000000  0.428571      2.000000
  0.111111  0.000000  0.428571      2.000000
  0.222222  0.000000  0.428571      2.000000
  0.333333  0.000000  0.428571      2.000000
  0.444444  0.000000  0.428571      2.000000
 -0.444444  0.000000  0.428571      2.000000
 -0.333333  0.000000  0.428571      2.000000
 -0.222222  0.000000  0.428571      2.000000
 -0.111111  0.000000  0.428571      2.000000
  0.000000  0.125000  0.428571      4.000000
  0.111111  0.125000  0.428571      4.000000
  0.222222  0.125000  0.428571      4.000000
  0.333333  0.125000  0.428571      4.000000
  0.444444  0.125000  0.428571      4.000000
 -0.444444  0.125000  0.428571      4.000000
 -0.333333  0.125000  0.428571      4.000000
 -0.222222  0.125000  0.428571      4.000000
 -0.111111  0.125000  0.428571      4.000000
  0.000000  0.250000  0.428571      4.000000
  0.111111  0.250000  0.428571      4.000000
  0.222222  0.250000  0.428571      4.000000
  0.333333  0.250000  0.428571      4.000000
  0.444444  0.250000  0.428571      4.000000
 -0.444444  0.250000  0.428571      4.000000
 -0.333333  0.250000  0.428571      4.000000
 -0.222222  0.250000  0.428571      4.000000
 -0.111111  0.250000  0.428571      4.000000
  0.000000  0.375000  0.428571      4.000000
  0.111111  0.375000  0.428571      4.000000
  0.222222  0.375000  0.428571      4.000000
  0.333333  0.375000  0.428571      4.000000
  0.444444  0.375000  0.428571      4.000000
 -0.444444  0.375000  0.428571      4.000000
 -0.333333  0.375000  0.428571      4.000000
 -0.222222  0.375000  0.428571      4.000000
 -0.111111  0.375000  0.428571      4.000000
  0.000000  0.500000  0.428571      2.000000
  0.111111  0.500000  0.428571      2.000000
  0.222222  0.500000  0.428571      2.000000
  0.333333  0.500000  0.428571      2.000000
  0.444444  0.500000  0.428571      2.000000
 -0.444444  0.500000  0.428571      2.000000
 -0.333333  0.500000  0.428571      2.000000
 -0.222222  0.500000  0.428571      2.000000
 -0.111111  0.500000  0.428571      2.000000
 
 Following cartesian coordinates:
            Coordinates               Weight
  0.000000  0.000000  0.000000      1.000000
  0.094874  0.000000  0.000146      2.000000
  0.189749  0.000000  0.000292      2.000000
  0.284623  0.000000  0.000439      2.000000
  0.379498  0.000000  0.000585      2.000000
  0.000000  0.092851  0.000000      2.000000
  0.094874  0.092851  0.000146      4.000000
  0.189749  0.092851  0.000292      4.000000
  0.284623  0.092851  0.000439      4.000000
  0.379498  0.092851  0.000585      4.000000
  0.000000  0.185703  0.000000      2.000000
  0.094874  0.185703  0.000146      4.000000
  0.189749  0.185703  0.000292      4.000000
  0.284623  0.185703  0.000439      4.000000
  0.379498  0.185703  0.000585      4.000000
  0.000000  0.278554  0.000000      2.000000
  0.094874  0.278554  0.000146      4.000000
  0.189749  0.278554  0.000292      4.000000
  0.284623  0.278554  0.000439      4.000000
  0.379498  0.278554  0.000585      4.000000
  0.000000  0.371406  0.000000      1.000000
  0.094874  0.371406  0.000146      2.000000
  0.189749  0.371406  0.000292      2.000000
  0.284623  0.371406  0.000439      2.000000
  0.379498  0.371406  0.000585      2.000000
  0.000133  0.000000  0.086227      2.000000
  0.095007  0.000000  0.086373      2.000000
  0.189882  0.000000  0.086519      2.000000
  0.284756  0.000000  0.086665      2.000000
  0.379630  0.000000  0.086811      2.000000
 -0.379365  0.000000  0.085642      2.000000
 -0.284490  0.000000  0.085788      2.000000
 -0.189616  0.000000  0.085934      2.000000
 -0.094742  0.000000  0.086080      2.000000
  0.000133  0.092851  0.086227      4.000000
  0.095007  0.092851  0.086373      4.000000
  0.189882  0.092851  0.086519      4.000000
  0.284756  0.092851  0.086665      4.000000
  0.379630  0.092851  0.086811      4.000000
 -0.379365  0.092851  0.085642      4.000000
 -0.284490  0.092851  0.085788      4.000000
 -0.189616  0.092851  0.085934      4.000000
 -0.094742  0.092851  0.086080      4.000000
  0.000133  0.185703  0.086227      4.000000
  0.095007  0.185703  0.086373      4.000000
  0.189882  0.185703  0.086519      4.000000
  0.284756  0.185703  0.086665      4.000000
  0.379630  0.185703  0.086811      4.000000
 -0.379365  0.185703  0.085642      4.000000
 -0.284490  0.185703  0.085788      4.000000
 -0.189616  0.185703  0.085934      4.000000
 -0.094742  0.185703  0.086080      4.000000
  0.000133  0.278554  0.086227      4.000000
  0.095007  0.278554  0.086373      4.000000
  0.189882  0.278554  0.086519      4.000000
  0.284756  0.278554  0.086665      4.000000
  0.379630  0.278554  0.086811      4.000000
 -0.379365  0.278554  0.085642      4.000000
 -0.284490  0.278554  0.085788      4.000000
 -0.189616  0.278554  0.085934      4.000000
 -0.094742  0.278554  0.086080      4.000000
  0.000133  0.371406  0.086227      2.000000
  0.095007  0.371406  0.086373      2.000000
  0.189882  0.371406  0.086519      2.000000
  0.284756  0.371406  0.086665      2.000000
  0.379630  0.371406  0.086811      2.000000
 -0.379365  0.371406  0.085642      2.000000
 -0.284490  0.371406  0.085788      2.000000
 -0.189616  0.371406  0.085934      2.000000
 -0.094742  0.371406  0.086080      2.000000
  0.000266  0.000000  0.172453      2.000000
  0.095140  0.000000  0.172600      2.000000
  0.190014  0.000000  0.172746      2.000000
  0.284889  0.000000  0.172892      2.000000
  0.379763  0.000000  0.173038      2.000000
 -0.379232  0.000000  0.171868      2.000000
 -0.284358  0.000000  0.172015      2.000000
 -0.189483  0.000000  0.172161      2.000000
 -0.094609  0.000000  0.172307      2.000000
  0.000266  0.092851  0.172453      4.000000
  0.095140  0.092851  0.172600      4.000000
  0.190014  0.092851  0.172746      4.000000
  0.284889  0.092851  0.172892      4.000000
  0.379763  0.092851  0.173038      4.000000
 -0.379232  0.092851  0.171868      4.000000
 -0.284358  0.092851  0.172015      4.000000
 -0.189483  0.092851  0.172161      4.000000
 -0.094609  0.092851  0.172307      4.000000
  0.000266  0.185703  0.172453      4.000000
  0.095140  0.185703  0.172600      4.000000
  0.190014  0.185703  0.172746      4.000000
  0.284889  0.185703  0.172892      4.000000
  0.379763  0.185703  0.173038      4.000000
 -0.379232  0.185703  0.171868      4.000000
 -0.284358  0.185703  0.172015      4.000000
 -0.189483  0.185703  0.172161      4.000000
 -0.094609  0.185703  0.172307      4.000000
  0.000266  0.278554  0.172453      4.000000
  0.095140  0.278554  0.172600      4.000000
  0.190014  0.278554  0.172746      4.000000
  0.284889  0.278554  0.172892      4.000000
  0.379763  0.278554  0.173038      4.000000
 -0.379232  0.278554  0.171868      4.000000
 -0.284358  0.278554  0.172015      4.000000
 -0.189483  0.278554  0.172161      4.000000
 -0.094609  0.278554  0.172307      4.000000
  0.000266  0.371406  0.172453      2.000000
  0.095140  0.371406  0.172600      2.000000
  0.190014  0.371406  0.172746      2.000000
  0.284889  0.371406  0.172892      2.000000
  0.379763  0.371406  0.173038      2.000000
 -0.379232  0.371406  0.171868      2.000000
 -0.284358  0.371406  0.172015      2.000000
 -0.189483  0.371406  0.172161      2.000000
 -0.094609  0.371406  0.172307      2.000000
  0.000398  0.000000  0.258680      2.000000
  0.095273  0.000000  0.258826      2.000000
  0.190147  0.000000  0.258972      2.000000
  0.285022  0.000000  0.259119      2.000000
  0.379896  0.000000  0.259265      2.000000
 -0.379099  0.000000  0.258095      2.000000
 -0.284225  0.000000  0.258241      2.000000
 -0.189350  0.000000  0.258388      2.000000
 -0.094476  0.000000  0.258534      2.000000
  0.000398  0.092851  0.258680      4.000000
  0.095273  0.092851  0.258826      4.000000
  0.190147  0.092851  0.258972      4.000000
  0.285022  0.092851  0.259119      4.000000
  0.379896  0.092851  0.259265      4.000000
 -0.379099  0.092851  0.258095      4.000000
 -0.284225  0.092851  0.258241      4.000000
 -0.189350  0.092851  0.258388      4.000000
 -0.094476  0.092851  0.258534      4.000000
  0.000398  0.185703  0.258680      4.000000
  0.095273  0.185703  0.258826      4.000000
  0.190147  0.185703  0.258972      4.000000
  0.285022  0.185703  0.259119      4.000000
  0.379896  0.185703  0.259265      4.000000
 -0.379099  0.185703  0.258095      4.000000
 -0.284225  0.185703  0.258241      4.000000
 -0.189350  0.185703  0.258388      4.000000
 -0.094476  0.185703  0.258534      4.000000
  0.000398  0.278554  0.258680      4.000000
  0.095273  0.278554  0.258826      4.000000
  0.190147  0.278554  0.258972      4.000000
  0.285022  0.278554  0.259119      4.000000
  0.379896  0.278554  0.259265      4.000000
 -0.379099  0.278554  0.258095      4.000000
 -0.284225  0.278554  0.258241      4.000000
 -0.189350  0.278554  0.258388      4.000000
 -0.094476  0.278554  0.258534      4.000000
  0.000398  0.371406  0.258680      2.000000
  0.095273  0.371406  0.258826      2.000000
  0.190147  0.371406  0.258972      2.000000
  0.285022  0.371406  0.259119      2.000000
  0.379896  0.371406  0.259265      2.000000
 -0.379099  0.371406  0.258095      2.000000
 -0.284225  0.371406  0.258241      2.000000
 -0.189350  0.371406  0.258388      2.000000
 -0.094476  0.371406  0.258534      2.000000
 


--------------------------------------------------------------------------------------------------------




 Dimension of arrays:
   k-points           NKPTS =    160   k-points in BZ     NKDIM =    160   number of bands    NBANDS=    112
   number of dos      NEDOS =   2000   number of ions     NIONS =     12
   non local maximal  LDIM  =      6   non local SUM 2l+1 LMDIM =     18
   total plane-waves  NPLWV =  45360
   max r-space proj   IRMAX =      1   max aug-charges    IRDMAX=   7678
   dimension x,y,z NGX =    30 NGY =   36 NGZ =   42
   dimension x,y,z NGXF=    48 NGYF=   56 NGZF=   70
   support grid    NGXF=    48 NGYF=   56 NGZF=   70
   ions per type =               6   6
   NGX,Y,Z   is equivalent  to a cutoff of  11.76, 12.28, 11.64 a.u.
   NGXF,Y,Z  is equivalent  to a cutoff of  18.82, 19.10, 19.40 a.u.

 SYSTEM =  metalsystem                             
 POSCAR =  CoNiV                                   

 Startparameter for this run:
   NWRITE =      2    write-flag & timer
   PREC   = high      normal or accurate (medium, high low for compatibility)
   ISTART =      0    job   : 0-new  1-cont  2-samecut
   ICHARG =      2    charge: 1-file 2-atom 10-const
   ISPIN  =      2    spin polarized calculation?
   LNONCOLLINEAR =      F non collinear calculations
   LSORBIT =      F    spin-orbit coupling
   INIWAV =      1    electr: 0-lowe 1-rand  2-diag
   LASPH  =      F    aspherical Exc in radial PAW
 Electronic Relaxation 1
   ENCUT  =  459.7 eV  33.78 Ry    5.81 a.u.   7.41  8.52 10.49*2*pi/ulx,y,z
   ENINI  =  459.7     initial cutoff
   ENAUG  =  703.4 eV  augmentation charge cutoff
   NELM   =     60;   NELMIN=  2; NELMDL= -5     # of ELM steps 
   EDIFF  = 0.5E-05   stopping-criterion for ELM
   LREAL  =      F    real-space projection
   NLSPLINE    = F    spline interpolate recip. space projectors
   LCOMPAT=      F    compatible to vasp.4.4
   GGA_COMPAT  = T    GGA compatible to vasp.4.4-vasp.4.6
   LMAXPAW     = -100 max onsite density
   LMAXMIX     =    2 max onsite mixed and CHGCAR
   VOSKOWN=      1    Vosko Wilk Nusair interpolation
   ROPT   =    0.00000   0.00000
 Ionic relaxation
   EDIFFG = 0.5E-04   stopping-criterion for IOM
   NSW    =      1    number of steps for IOM
   NBLOCK =      1;   KBLOCK =      1    inner block; outer block 
   IBRION =     -1    ionic relax: 0-MD 1-quasi-New 2-CG
   NFREE  =      0    steps in history (QN), initial steepest desc. (CG)
   ISIF   =      2    stress and relaxation
   IWAVPR =     10    prediction:  0-non 1-charg 2-wave 3-comb
   ISYM   =      2    0-nonsym 1-usesym 2-fastsym
   LCORR  =      T    Harris-Foulkes like correction to forces

   POTIM  = 0.5000    time-step for ionic-motion
   TEIN   =    0.0    initial temperature
   TEBEG  =    0.0;   TEEND  =   0.0 temperature during run
   SMASS  =  -3.00    Nose mass-parameter (am)
   estimated Nose-frequenzy (Omega)   =  0.10E-29 period in steps = 0.13E+47 mass=  -0.411E-27a.u.
   SCALEE = 1.0000    scale energy and forces
   NPACO  =    256;   APACO  = 10.0  distance and # of slots for P.C.
   PSTRESS=    0.0 pullay stress

  Mass of Ions in am
   POMASS =  58.93 58.69
  Ionic Valenz
   ZVAL   =   9.00 16.00
  Atomic Wigner-Seitz radii
   RWIGS  =  -1.00 -1.00
  virtual crystal weights 
   VCA    =   1.00  1.00
   NELECT =     150.0000    total number of electrons
   NUPDOWN=      -1.0000    fix difference up-down

 DOS related values:
   EMIN   =  10.00;   EMAX   =-10.00  energy-range for DOS
   EFERMI =   0.00;   METHOD = LEGACY      
   ISMEAR =    -5;   SIGMA  =   0.20  broadening in eV -4-tet -1-fermi 0-gaus

 Electronic relaxation 2 (details)
   IALGO  =     38    algorithm
   LDIAG  =      T    sub-space diagonalisation (order eigenvalues)
   LSUBROT=      F    optimize rotation matrix (better conditioning)
   TURBO    =      0    0=normal 1=particle mesh
   IRESTART =      0    0=no restart 2=restart with 2 vectors
   NREBOOT  =      0    no. of reboots
   NMIN     =      0    reboot dimension
   EREF     =   0.00    reference energy to select bands
   IMIX   =      4    mixing-type and parameters
     AMIX     =   0.20;   BMIX     =  0.00
     AMIX_MAG =   0.20;   BMIX_MAG =  0.00
     AMIN     =   0.10
     WC   =   100.;   INIMIX=   1;  MIXPRE=   1;  MAXMIX= -45

 Intra band minimization:
   WEIMIN = 0.0000     energy-eigenvalue tresh-hold
   EBREAK =  0.11E-07  absolut break condition
   DEPER  =   0.30     relativ break condition  

   TIME   =   0.40     timestep for ELM

  volume/ion in A,a.u.               =      10.33        69.74
  Fermi-wavevector in a.u.,A,eV,Ry     =   1.744267  3.296186 41.395276  3.042467
  Thomas-Fermi vector in A             =   2.816180
 
 Write flags
   LWAVE        =      F    write WAVECAR
   LDOWNSAMPLE  =      F    k-point downsampling of WAVECAR
   LCHARG       =      T    write CHGCAR
   LVTOT        =      F    write LOCPOT, total local potential
   LVHAR        =      F    write LOCPOT, Hartree potential only
   LELF         =      F    write electronic localiz. function (ELF)
   LORBIT       =      0    0 simple, 1 ext, 2 COOP (PROOUT), +10 PAW based schemes


 Dipole corrections
   LMONO  =      F    monopole corrections only (constant potential shift)
   LDIPOL =      F    correct potential (dipole corrections)
   IDIPOL =      0    1-x, 2-y, 3-z, 4-all directions 
   EPSILON=  1.0000000 bulk dielectric constant

 Exchange correlation treatment:
   GGA     =    --    GGA type
   LEXCH   =     2    internal setting for exchange type
   LIBXC   =     F    Libxc                    
   VOSKOWN =     1    Vosko Wilk Nusair interpolation
   LHFCALC =     F    Hartree Fock is set to
   LHFONE  =     F    Hartree Fock one center treatment
   AEXX    =    0.0000 exact exchange contribution

 Linear response parameters
   LEPSILON=     F    determine dielectric tensor
   LRPA    =     F    only Hartree local field effects (RPA)
   LNABLA  =     F    use nabla operator in PAW spheres
   LVEL    =     F    velocity operator in full k-point grid
   CSHIFT  =0.1000    complex shift for real part using Kramers Kronig
   OMEGAMAX=  -1.0    maximum frequency
   DEG_THRESHOLD= 0.2000000E-02 threshold for treating states as degnerate
   RTIME   =   -0.100 relaxation time in fs
  (WPLASMAI=    0.000 imaginary part of plasma frequency in eV, 0.658/RTIME)
   DFIELD  = 0.0000000 0.0000000 0.0000000 field for delta impulse in time
 
  Optional k-point grid parameters
   LKPOINTS_OPT  =     F    use optional k-point grid
   KPOINTS_OPT_MODE=     1    mode for optional k-point grid
 
 Orbital magnetization related:
   ORBITALMAG=     F  switch on orbital magnetization
   LCHIMAG   =     F  perturbation theory with respect to B field
   DQ        =  0.001000  dq finite difference perturbation B field
   LLRAUG    =     F  two centre corrections for induced B field
   LBONE     =     F  B-component reconstruction in AE one-centre
   LVGVCALC  =     T  calculate vGv susceptibility
   LVGVAPPL  =     F  apply vGv susceptibility instead of pGv for G=0

 Random number generation:
   RANDOM_GENERATOR = DEFAULT
   PCG_SEED         = not used


--------------------------------------------------------------------------------------------------------


 Static calculation
 charge density and potential will be updated during run
 spin polarized calculation
 Variant of blocked Davidson
 Davidson routine will perform the subspace rotation
 perform sub-space diagonalisation
    after iterative eigenvector-optimisation
 modified Broyden-mixing scheme, WC =      100.0
 initial mixing is a Kerker type mixing with AMIX =  0.2000 and BMIX =      0.0001
 Hartree-type preconditioning will be used
 using additional bands           37
 reciprocal scheme for non local part
 use partial core corrections
 calculate Harris-corrections to forces 
   (improved forces if not selfconsistent)
 use of overlap-Matrix (Vanderbilt PP)
 Fermi weights with tetrahedron method with Bloechl corrections


--------------------------------------------------------------------------------------------------------


  energy-cutoff  :      459.66
  volume of cell :      124.02
      direct lattice vectors                 reciprocal lattice vectors
     4.240705168  0.000000000 -0.006530785     0.235810398  0.000000000  0.000363393
     0.000000000  4.874722586  0.000000000     0.000000000  0.205139879  0.000000000
    -0.009244924  0.000000000  5.999153770     0.000256707  0.000000000  0.166690572

  length of vectors
     4.240710196  4.874722586  5.999160894     0.235810678  0.205139879  0.166690770


 
 k-points in units of 2pi/SCALE and weight: fcc-kp                                  
   0.00000000  0.00000000  0.00000000       0.002
   0.09487438  0.00000000  0.00014621       0.004
   0.18974877  0.00000000  0.00029241       0.004
   0.28462315  0.00000000  0.00043862       0.004
   0.37949753  0.00000000  0.00058482       0.004
   0.00000000  0.09285144  0.00000000       0.004
   0.09487438  0.09285144  0.00014621       0.008
   0.18974877  0.09285144  0.00029241       0.008
   0.28462315  0.09285144  0.00043862       0.008
   0.37949753  0.09285144  0.00058482       0.008
   0.00000000  0.18570288  0.00000000       0.004
   0.09487438  0.18570288  0.00014621       0.008
   0.18974877  0.18570288  0.00029241       0.008
   0.28462315  0.18570288  0.00043862       0.008
   0.37949753  0.18570288  0.00058482       0.008
   0.00000000  0.27855431  0.00000000       0.004
   0.09487438  0.27855431  0.00014621       0.008
   0.18974877  0.27855431  0.00029241       0.008
   0.28462315  0.27855431  0.00043862       0.008
   0.37949753  0.27855431  0.00058482       0.008
   0.00000000  0.37140575  0.00000000       0.002
   0.09487438  0.37140575  0.00014621       0.004
   0.18974877  0.37140575  0.00029241       0.004
   0.28462315  0.37140575  0.00043862       0.004
   0.37949753  0.37140575  0.00058482       0.004
   0.00013279  0.00000000  0.08622665       0.004
   0.09500717  0.00000000  0.08637286       0.004
   0.18988156  0.00000000  0.08651906       0.004
   0.28475594  0.00000000  0.08666527       0.004
   0.37963032  0.00000000  0.08681147       0.004
  -0.37936474  0.00000000  0.08564183       0.004
  -0.28449036  0.00000000  0.08578804       0.004
  -0.18961598  0.00000000  0.08593424       0.004
  -0.09474159  0.00000000  0.08608045       0.004
   0.00013279  0.09285144  0.08622665       0.008
   0.09500717  0.09285144  0.08637286       0.008
   0.18988156  0.09285144  0.08651906       0.008
   0.28475594  0.09285144  0.08666527       0.008
   0.37963032  0.09285144  0.08681147       0.008
  -0.37936474  0.09285144  0.08564183       0.008
  -0.28449036  0.09285144  0.08578804       0.008
  -0.18961598  0.09285144  0.08593424       0.008
  -0.09474159  0.09285144  0.08608045       0.008
   0.00013279  0.18570288  0.08622665       0.008
   0.09500717  0.18570288  0.08637286       0.008
   0.18988156  0.18570288  0.08651906       0.008
   0.28475594  0.18570288  0.08666527       0.008
   0.37963032  0.18570288  0.08681147       0.008
  -0.37936474  0.18570288  0.08564183       0.008
  -0.28449036  0.18570288  0.08578804       0.008
  -0.18961598  0.18570288  0.08593424       0.008
  -0.09474159  0.18570288  0.08608045       0.008
   0.00013279  0.27855431  0.08622665       0.008
   0.09500717  0.27855431  0.08637286       0.008
   0.18988156  0.27855431  0.08651906       0.008
   0.28475594  0.27855431  0.08666527       0.008
   0.37963032  0.27855431  0.08681147       0.008
  -0.37936474  0.27855431  0.08564183       0.008
  -0.28449036  0.27855431  0.08578804       0.008
  -0.18961598  0.27855431  0.08593424       0.008
  -0.09474159  0.27855431  0.08608045       0.008
   0.00013279  0.37140575  0.08622665       0.004
   0.09500717  0.37140575  0.08637286       0.004
   0.18988156  0.37140575  0.08651906       0.004
   0.28475594  0.37140575  0.08666527       0.004
   0.37963032  0.37140575  0.08681147       0.004
  -0.37936474  0.37140575  0.08564183       0.004
  -0.28449036  0.37140575  0.08578804       0.004
  -0.18961598  0.37140575  0.08593424       0.004
  -0.09474159  0.37140575  0.08608045       0.004
   0.00026558  0.00000000  0.17245330       0.004
   0.09513997  0.00000000  0.17259951       0.004
   0.19001435  0.00000000  0.17274571       0.004
   0.28488873  0.00000000  0.17289192       0.004
   0.37976312  0.00000000  0.17303812       0.004
  -0.37923195  0.00000000  0.17186848       0.004
  -0.28435757  0.00000000  0.17201469       0.004
  -0.18948318  0.00000000  0.17216089       0.004
  -0.09460880  0.00000000  0.17230710       0.004
   0.00026558  0.09285144  0.17245330       0.008
   0.09513997  0.09285144  0.17259951       0.008
   0.19001435  0.09285144  0.17274571       0.008
   0.28488873  0.09285144  0.17289192       0.008
   0.37976312  0.09285144  0.17303812       0.008
  -0.37923195  0.09285144  0.17186848       0.008
  -0.28435757  0.09285144  0.17201469       0.008
  -0.18948318  0.09285144  0.17216089       0.008
  -0.09460880  0.09285144  0.17230710       0.008
   0.00026558  0.18570288  0.17245330       0.008
   0.09513997  0.18570288  0.17259951       0.008
   0.19001435  0.18570288  0.17274571       0.008
   0.28488873  0.18570288  0.17289192       0.008
   0.37976312  0.18570288  0.17303812       0.008
  -0.37923195  0.18570288  0.17186848       0.008
  -0.28435757  0.18570288  0.17201469       0.008
  -0.18948318  0.18570288  0.17216089       0.008
  -0.09460880  0.18570288  0.17230710       0.008
   0.00026558  0.27855431  0.17245330       0.008
   0.09513997  0.27855431  0.17259951       0.008
   0.19001435  0.27855431  0.17274571       0.008
   0.28488873  0.27855431  0.17289192       0.008
   0.37976312  0.27855431  0.17303812       0.008
  -0.37923195  0.27855431  0.17186848       0.008
  -0.28435757  0.27855431  0.17201469       0.008
  -0.18948318  0.27855431  0.17216089       0.008
  -0.09460880  0.27855431  0.17230710       0.008
   0.00026558  0.37140575  0.17245330       0.004
   0.09513997  0.37140575  0.17259951       0.004
   0.19001435  0.37140575  0.17274571       0.004
   0.28488873  0.37140575  0.17289192       0.004
   0.37976312  0.37140575  0.17303812       0.004
  -0.37923195  0.37140575  0.17186848       0.004
  -0.28435757  0.37140575  0.17201469       0.004
  -0.18948318  0.37140575  0.17216089       0.004
  -0.09460880  0.37140575  0.17230710       0.004
   0.00039837  0.00000000  0.25867995       0.004
   0.09527276  0.00000000  0.25882616       0.004
   0.19014714  0.00000000  0.25897236       0.004
   0.28502152  0.00000000  0.25911857       0.004
   0.37989591  0.00000000  0.25926477       0.004
  -0.37909916  0.00000000  0.25809513       0.004
  -0.28422478  0.00000000  0.25824134       0.004
  -0.18935039  0.00000000  0.25838754       0.004
  -0.09447601  0.00000000  0.25853375       0.004
   0.00039837  0.09285144  0.25867995       0.008
   0.09527276  0.09285144  0.25882616       0.008
   0.19014714  0.09285144  0.25897236       0.008
   0.28502152  0.09285144  0.25911857       0.008
   0.37989591  0.09285144  0.25926477       0.008
  -0.37909916  0.09285144  0.25809513       0.008
  -0.28422478  0.09285144  0.25824134       0.008
  -0.18935039  0.09285144  0.25838754       0.008
  -0.09447601  0.09285144  0.25853375       0.008
   0.00039837  0.18570288  0.25867995       0.008
   0.09527276  0.18570288  0.25882616       0.008
   0.19014714  0.18570288  0.25897236       0.008
   0.28502152  0.18570288  0.25911857       0.008
   0.37989591  0.18570288  0.25926477       0.008
  -0.37909916  0.18570288  0.25809513       0.008
  -0.28422478  0.18570288  0.25824134       0.008
  -0.18935039  0.18570288  0.25838754       0.008
  -0.09447601  0.18570288  0.25853375       0.008
   0.00039837  0.27855431  0.25867995       0.008
   0.09527276  0.27855431  0.25882616       0.008
   0.19014714  0.27855431  0.25897236       0.008
   0.28502152  0.27855431  0.25911857       0.008
   0.37989591  0.27855431  0.25926477       0.008
  -0.37909916  0.27855431  0.25809513       0.008
  -0.28422478  0.27855431  0.25824134       0.008
  -0.18935039  0.27855431  0.25838754       0.008
  -0.09447601  0.27855431  0.25853375       0.008
   0.00039837  0.37140575  0.25867995       0.004
   0.09527276  0.37140575  0.25882616       0.004
   0.19014714  0.37140575  0.25897236       0.004
   0.28502152  0.37140575  0.25911857       0.004
   0.37989591  0.37140575  0.25926477       0.004
  -0.37909916  0.37140575  0.25809513       0.004
  -0.28422478  0.37140575  0.25824134       0.004
  -0.18935039  0.37140575  0.25838754       0.004
  -0.09447601  0.37140575  0.25853375       0.004
 
 k-points in reciprocal lattice and weights: fcc-kp                                  
   0.00000000  0.00000000  0.00000000       0.002
   0.11111111  0.00000000  0.00000000       0.004
   0.22222222  0.00000000  0.00000000       0.004
   0.33333333  0.00000000  0.00000000       0.004
   0.44444444  0.00000000  0.00000000       0.004
   0.00000000  0.12500000  0.00000000       0.004
   0.11111111  0.12500000  0.00000000       0.008
   0.22222222  0.12500000  0.00000000       0.008
   0.33333333  0.12500000  0.00000000       0.008
   0.44444444  0.12500000  0.00000000       0.008
   0.00000000  0.25000000  0.00000000       0.004
   0.11111111  0.25000000  0.00000000       0.008
   0.22222222  0.25000000  0.00000000       0.008
   0.33333333  0.25000000  0.00000000       0.008
   0.44444444  0.25000000  0.00000000       0.008
   0.00000000  0.37500000  0.00000000       0.004
   0.11111111  0.37500000  0.00000000       0.008
   0.22222222  0.37500000  0.00000000       0.008
   0.33333333  0.37500000  0.00000000       0.008
   0.44444444  0.37500000  0.00000000       0.008
   0.00000000  0.50000000  0.00000000       0.002
   0.11111111  0.50000000  0.00000000       0.004
   0.22222222  0.50000000  0.00000000       0.004
   0.33333333  0.50000000  0.00000000       0.004
   0.44444444  0.50000000  0.00000000       0.004
   0.00000000  0.00000000  0.14285714       0.004
   0.11111111  0.00000000  0.14285714       0.004
   0.22222222  0.00000000  0.14285714       0.004
   0.33333333  0.00000000  0.14285714       0.004
   0.44444444  0.00000000  0.14285714       0.004
  -0.44444444  0.00000000  0.14285714       0.004
  -0.33333333  0.00000000  0.14285714       0.004
  -0.22222222  0.00000000  0.14285714       0.004
  -0.11111111  0.00000000  0.14285714       0.004
   0.00000000  0.12500000  0.14285714       0.008
   0.11111111  0.12500000  0.14285714       0.008
   0.22222222  0.12500000  0.14285714       0.008
   0.33333333  0.12500000  0.14285714       0.008
   0.44444444  0.12500000  0.14285714       0.008
  -0.44444444  0.12500000  0.14285714       0.008
  -0.33333333  0.12500000  0.14285714       0.008
  -0.22222222  0.12500000  0.14285714       0.008
  -0.11111111  0.12500000  0.14285714       0.008
   0.00000000  0.25000000  0.14285714       0.008
   0.11111111  0.25000000  0.14285714       0.008
   0.22222222  0.25000000  0.14285714       0.008
   0.33333333  0.25000000  0.14285714       0.008
   0.44444444  0.25000000  0.14285714       0.008
  -0.44444444  0.25000000  0.14285714       0.008
  -0.33333333  0.25000000  0.14285714       0.008
  -0.22222222  0.25000000  0.14285714       0.008
  -0.11111111  0.25000000  0.14285714       0.008
   0.00000000  0.37500000  0.14285714       0.008
   0.11111111  0.37500000  0.14285714       0.008
   0.22222222  0.37500000  0.14285714       0.008
   0.33333333  0.37500000  0.14285714       0.008
   0.44444444  0.37500000  0.14285714       0.008
  -0.44444444  0.37500000  0.14285714       0.008
  -0.33333333  0.37500000  0.14285714       0.008
  -0.22222222  0.37500000  0.14285714       0.008
  -0.11111111  0.37500000  0.14285714       0.008
   0.00000000  0.50000000  0.14285714       0.004
   0.11111111  0.50000000  0.14285714       0.004
   0.22222222  0.50000000  0.14285714       0.004
   0.33333333  0.50000000  0.14285714       0.004
   0.44444444  0.50000000  0.14285714       0.004
  -0.44444444  0.50000000  0.14285714       0.004
  -0.33333333  0.50000000  0.14285714       0.004
  -0.22222222  0.50000000  0.14285714       0.004
  -0.11111111  0.50000000  0.14285714       0.004
   0.00000000  0.00000000  0.28571429       0.004
   0.11111111  0.00000000  0.28571429       0.004
   0.22222222  0.00000000  0.28571429       0.004
   0.33333333  0.00000000  0.28571429       0.004
   0.44444444  0.00000000  0.28571429       0.004
  -0.44444444  0.00000000  0.28571429       0.004
  -0.33333333  0.00000000  0.28571429       0.004
  -0.22222222  0.00000000  0.28571429       0.004
  -0.11111111  0.00000000  0.28571429       0.004
   0.00000000  0.12500000  0.28571429       0.008
   0.11111111  0.12500000  0.28571429       0.008
   0.22222222  0.12500000  0.28571429       0.008
   0.33333333  0.12500000  0.28571429       0.008
   0.44444444  0.12500000  0.28571429       0.008
  -0.44444444  0.12500000  0.28571429       0.008
  -0.33333333  0.12500000  0.28571429       0.008
  -0.22222222  0.12500000  0.28571429       0.008
  -0.11111111  0.12500000  0.28571429       0.008
   0.00000000  0.25000000  0.28571429       0.008
   0.11111111  0.25000000  0.28571429       0.008
   0.22222222  0.25000000  0.28571429       0.008
   0.33333333  0.25000000  0.28571429       0.008
   0.44444444  0.25000000  0.28571429       0.008
  -0.44444444  0.25000000  0.28571429       0.008
  -0.33333333  0.25000000  0.28571429       0.008
  -0.22222222  0.25000000  0.28571429       0.008
  -0.11111111  0.25000000  0.28571429       0.008
   0.00000000  0.37500000  0.28571429       0.008
   0.11111111  0.37500000  0.28571429       0.008
   0.22222222  0.37500000  0.28571429       0.008
   0.33333333  0.37500000  0.28571429       0.008
   0.44444444  0.37500000  0.28571429       0.008
  -0.44444444  0.37500000  0.28571429       0.008
  -0.33333333  0.37500000  0.28571429       0.008
  -0.22222222  0.37500000  0.28571429       0.008
  -0.11111111  0.37500000  0.28571429       0.008
   0.00000000  0.50000000  0.28571429       0.004
   0.11111111  0.50000000  0.28571429       0.004
   0.22222222  0.50000000  0.28571429       0.004
   0.33333333  0.50000000  0.28571429       0.004
   0.44444444  0.50000000  0.28571429       0.004
  -0.44444444  0.50000000  0.28571429       0.004
  -0.33333333  0.50000000  0.28571429       0.004
  -0.22222222  0.50000000  0.28571429       0.004
  -0.11111111  0.50000000  0.28571429       0.004
   0.00000000  0.00000000  0.42857143       0.004
   0.11111111  0.00000000  0.42857143       0.004
   0.22222222  0.00000000  0.42857143       0.004
   0.33333333  0.00000000  0.42857143       0.004
   0.44444444  0.00000000  0.42857143       0.004
  -0.44444444  0.00000000  0.42857143       0.004
  -0.33333333  0.00000000  0.42857143       0.004
  -0.22222222  0.00000000  0.42857143       0.004
  -0.11111111  0.00000000  0.42857143       0.004
   0.00000000  0.12500000  0.42857143       0.008
   0.11111111  0.12500000  0.42857143       0.008
   0.22222222  0.12500000  0.42857143       0.008
   0.33333333  0.12500000  0.42857143       0.008
   0.44444444  0.12500000  0.42857143       0.008
  -0.44444444  0.12500000  0.42857143       0.008
  -0.33333333  0.12500000  0.42857143       0.008
  -0.22222222  0.12500000  0.42857143       0.008
  -0.11111111  0.12500000  0.42857143       0.008
   0.00000000  0.25000000  0.42857143       0.008
   0.11111111  0.25000000  0.42857143       0.008
   0.22222222  0.25000000  0.42857143       0.008
   0.33333333  0.25000000  0.42857143       0.008
   0.44444444  0.25000000  0.42857143       0.008
  -0.44444444  0.25000000  0.42857143       0.008
  -0.33333333  0.25000000  0.42857143       0.008
  -0.22222222  0.25000000  0.42857143       0.008
  -0.11111111  0.25000000  0.42857143       0.008
   0.00000000  0.37500000  0.42857143       0.008
   0.11111111  0.37500000  0.42857143       0.008
   0.22222222  0.37500000  0.42857143       0.008
   0.33333333  0.37500000  0.42857143       0.008
   0.44444444  0.37500000  0.42857143       0.008
  -0.44444444  0.37500000  0.42857143       0.008
  -0.33333333  0.37500000  0.42857143       0.008
  -0.22222222  0.37500000  0.42857143       0.008
  -0.11111111  0.37500000  0.42857143       0.008
   0.00000000  0.50000000  0.42857143       0.004
   0.11111111  0.50000000  0.42857143       0.004
   0.22222222  0.50000000  0.42857143       0.004
   0.33333333  0.50000000  0.42857143       0.004
   0.44444444  0.50000000  0.42857143       0.004
  -0.44444444  0.50000000  0.42857143       0.004
  -0.33333333  0.50000000  0.42857143       0.004
  -0.22222222  0.50000000  0.42857143       0.004
  -0.11111111  0.50000000  0.42857143       0.004
 
 position of ions in fractional coordinates (direct lattice) 
   0.83415562  0.25000000  0.33761077
   0.83415562  0.75000000  0.33761077
   0.16505869  0.25000000  0.66425054
   0.16505869  0.75000000  0.66425054
   0.66725333  0.00000000  0.66491848
   0.66725333  0.50000000  0.66491848
   0.50064516  0.25000000  0.99895046
   0.50064516  0.75000000  0.99895046
   0.99973326  0.00000000  0.99881978
   0.99973326  0.50000000  0.99881978
   0.33315395  0.00000000  0.33544998
   0.33315395  0.50000000  0.33544998
 
 position of ions in cartesian coordinates  (Angst):
   3.53428688  1.21868065  2.01993126
   3.53428688  3.65604194  2.01993126
   0.69382428  1.21868065  3.98386315
   0.69382428  3.65604194  3.98386315
   2.82347750  0.00000000  3.98459052
   2.82347750  2.43736129  3.98459052
   2.11385328  1.21868065  5.98958779
   2.11385328  3.65604194  5.98958779
   4.23033999  0.00000000  5.98554439
   4.23033999  2.43736129  5.98554439
   1.40970646  0.00000000  2.01024023
   1.40970646  2.43736129  2.01024023
 


--------------------------------------------------------------------------------------------------------


 k-point   1 :   0.0000 0.0000 0.0000  plane waves:    2795
 k-point   2 :   0.1111 0.0000 0.0000  plane waves:    2795
 k-point   3 :   0.2222 0.0000 0.0000  plane waves:    2805
 k-point   4 :   0.3333 0.0000 0.0000  plane waves:    2773
 k-point   5 :   0.4444 0.0000 0.0000  plane waves:    2760
 k-point   6 :   0.0000 0.1250 0.0000  plane waves:    2797
 k-point   7 :   0.1111 0.1250 0.0000  plane waves:    2789
 k-point   8 :   0.2222 0.1250 0.0000  plane waves:    2793
 k-point   9 :   0.3333 0.1250 0.0000  plane waves:    2787
 k-point  10 :   0.4444 0.1250 0.0000  plane waves:    2775
 k-point  11 :   0.0000 0.2500 0.0000  plane waves:    2791
 k-point  12 :   0.1111 0.2500 0.0000  plane waves:    2780
 k-point  13 :   0.2222 0.2500 0.0000  plane waves:    2783
 k-point  14 :   0.3333 0.2500 0.0000  plane waves:    2783
 k-point  15 :   0.4444 0.2500 0.0000  plane waves:    2783
 k-point  16 :   0.0000 0.3750 0.0000  plane waves:    2781
 k-point  17 :   0.1111 0.3750 0.0000  plane waves:    2768
 k-point  18 :   0.2222 0.3750 0.0000  plane waves:    2759
 k-point  19 :   0.3333 0.3750 0.0000  plane waves:    2772
 k-point  20 :   0.4444 0.3750 0.0000  plane waves:    2768
 k-point  21 :   0.0000 0.5000 0.0000  plane waves:    2762
 k-point  22 :   0.1111 0.5000 0.0000  plane waves:    2760
 k-point  23 :   0.2222 0.5000 0.0000  plane waves:    2756
 k-point  24 :   0.3333 0.5000 0.0000  plane waves:    2750
 k-point  25 :   0.4444 0.5000 0.0000  plane waves:    2762
 k-point  26 :   0.0000 0.0000 0.1429  plane waves:    2794
 k-point  27 :   0.1111 0.0000 0.1429  plane waves:    2796
 k-point  28 :   0.2222 0.0000 0.1429  plane waves:    2794
 k-point  29 :   0.3333 0.0000 0.1429  plane waves:    2781
 k-point  30 :   0.4444 0.0000 0.1429  plane waves:    2768
 k-point  31 :  -0.4444 0.0000 0.1429  plane waves:    2778
 k-point  32 :  -0.3333 0.0000 0.1429  plane waves:    2778
 k-point  33 :  -0.2222 0.0000 0.1429  plane waves:    2790
 k-point  34 :  -0.1111 0.0000 0.1429  plane waves:    2798
 k-point  35 :   0.0000 0.1250 0.1429  plane waves:    2783
 k-point  36 :   0.1111 0.1250 0.1429  plane waves:    2783
 k-point  37 :   0.2222 0.1250 0.1429  plane waves:    2793
 k-point  38 :   0.3333 0.1250 0.1429  plane waves:    2784
 k-point  39 :   0.4444 0.1250 0.1429  plane waves:    2770
 k-point  40 :  -0.4444 0.1250 0.1429  plane waves:    2769
 k-point  41 :  -0.3333 0.1250 0.1429  plane waves:    2784
 k-point  42 :  -0.2222 0.1250 0.1429  plane waves:    2791
 k-point  43 :  -0.1111 0.1250 0.1429  plane waves:    2787
 k-point  44 :   0.0000 0.2500 0.1429  plane waves:    2779
 k-point  45 :   0.1111 0.2500 0.1429  plane waves:    2774
 k-point  46 :   0.2222 0.2500 0.1429  plane waves:    2791
 k-point  47 :   0.3333 0.2500 0.1429  plane waves:    2776
 k-point  48 :   0.4444 0.2500 0.1429  plane waves:    2779
 k-point  49 :  -0.4444 0.2500 0.1429  plane waves:    2774
 k-point  50 :  -0.3333 0.2500 0.1429  plane waves:    2782
 k-point  51 :  -0.2222 0.2500 0.1429  plane waves:    2790
 k-point  52 :  -0.1111 0.2500 0.1429  plane waves:    2774
 k-point  53 :   0.0000 0.3750 0.1429  plane waves:    2780
 k-point  54 :   0.1111 0.3750 0.1429  plane waves:    2776
 k-point  55 :   0.2222 0.3750 0.1429  plane waves:    2771
 k-point  56 :   0.3333 0.3750 0.1429  plane waves:    2773
 k-point  57 :   0.4444 0.3750 0.1429  plane waves:    2764
 k-point  58 :  -0.4444 0.3750 0.1429  plane waves:    2768
 k-point  59 :  -0.3333 0.3750 0.1429  plane waves:    2773
 k-point  60 :  -0.2222 0.3750 0.1429  plane waves:    2774
 k-point  61 :  -0.1111 0.3750 0.1429  plane waves:    2772
 k-point  62 :   0.0000 0.5000 0.1429  plane waves:    2762
 k-point  63 :   0.1111 0.5000 0.1429  plane waves:    2770
 k-point  64 :   0.2222 0.5000 0.1429  plane waves:    2764
 k-point  65 :   0.3333 0.5000 0.1429  plane waves:    2766
 k-point  66 :   0.4444 0.5000 0.1429  plane waves:    2770
 k-point  67 :  -0.4444 0.5000 0.1429  plane waves:    2762
 k-point  68 :  -0.3333 0.5000 0.1429  plane waves:    2768
 k-point  69 :  -0.2222 0.5000 0.1429  plane waves:    2764
 k-point  70 :  -0.1111 0.5000 0.1429  plane waves:    2768
 k-point  71 :   0.0000 0.0000 0.2857  plane waves:    2795
 k-point  72 :   0.1111 0.0000 0.2857  plane waves:    2797
 k-point  73 :   0.2222 0.0000 0.2857  plane waves:    2781
 k-point  74 :   0.3333 0.0000 0.2857  plane waves:    2766
 k-point  75 :   0.4444 0.0000 0.2857  plane waves:    2756
 k-point  76 :  -0.4444 0.0000 0.2857  plane waves:    2761
 k-point  77 :  -0.3333 0.0000 0.2857  plane waves:    2779
 k-point  78 :  -0.2222 0.0000 0.2857  plane waves:    2777
 k-point  79 :  -0.1111 0.0000 0.2857  plane waves:    2794
 k-point  80 :   0.0000 0.1250 0.2857  plane waves:    2792
 k-point  81 :   0.1111 0.1250 0.2857  plane waves:    2790
 k-point  82 :   0.2222 0.1250 0.2857  plane waves:    2779
 k-point  83 :   0.3333 0.1250 0.2857  plane waves:    2773
 k-point  84 :   0.4444 0.1250 0.2857  plane waves:    2769
 k-point  85 :  -0.4444 0.1250 0.2857  plane waves:    2775
 k-point  86 :  -0.3333 0.1250 0.2857  plane waves:    2776
 k-point  87 :  -0.2222 0.1250 0.2857  plane waves:    2778
 k-point  88 :  -0.1111 0.1250 0.2857  plane waves:    2783
 k-point  89 :   0.0000 0.2500 0.2857  plane waves:    2775
 k-point  90 :   0.1111 0.2500 0.2857  plane waves:    2774
 k-point  91 :   0.2222 0.2500 0.2857  plane waves:    2778
 k-point  92 :   0.3333 0.2500 0.2857  plane waves:    2778
 k-point  93 :   0.4444 0.2500 0.2857  plane waves:    2767
 k-point  94 :  -0.4444 0.2500 0.2857  plane waves:    2765
 k-point  95 :  -0.3333 0.2500 0.2857  plane waves:    2774
 k-point  96 :  -0.2222 0.2500 0.2857  plane waves:    2782
 k-point  97 :  -0.1111 0.2500 0.2857  plane waves:    2776
 k-point  98 :   0.0000 0.3750 0.2857  plane waves:    2783
 k-point  99 :   0.1111 0.3750 0.2857  plane waves:    2781
 k-point 100 :   0.2222 0.3750 0.2857  plane waves:    2779
 k-point 101 :   0.3333 0.3750 0.2857  plane waves:    2766
 k-point 102 :   0.4444 0.3750 0.2857  plane waves:    2762
 k-point 103 :  -0.4444 0.3750 0.2857  plane waves:    2764
 k-point 104 :  -0.3333 0.3750 0.2857  plane waves:    2770
 k-point 105 :  -0.2222 0.3750 0.2857  plane waves:    2778
 k-point 106 :  -0.1111 0.3750 0.2857  plane waves:    2784
 k-point 107 :   0.0000 0.5000 0.2857  plane waves:    2788
 k-point 108 :   0.1111 0.5000 0.2857  plane waves:    2776
 k-point 109 :   0.2222 0.5000 0.2857  plane waves:    2772
 k-point 110 :   0.3333 0.5000 0.2857  plane waves:    2766
 k-point 111 :   0.4444 0.5000 0.2857  plane waves:    2764
 k-point 112 :  -0.4444 0.5000 0.2857  plane waves:    2764
 k-point 113 :  -0.3333 0.5000 0.2857  plane waves:    2764
 k-point 114 :  -0.2222 0.5000 0.2857  plane waves:    2772
 k-point 115 :  -0.1111 0.5000 0.2857  plane waves:    2776
 k-point 116 :   0.0000 0.0000 0.4286  plane waves:    2764
 k-point 117 :   0.1111 0.0000 0.4286  plane waves:    2778
 k-point 118 :   0.2222 0.0000 0.4286  plane waves:    2772
 k-point 119 :   0.3333 0.0000 0.4286  plane waves:    2779
 k-point 120 :   0.4444 0.0000 0.4286  plane waves:    2774
 k-point 121 :  -0.4444 0.0000 0.4286  plane waves:    2770
 k-point 122 :  -0.3333 0.0000 0.4286  plane waves:    2777
 k-point 123 :  -0.2222 0.0000 0.4286  plane waves:    2767
 k-point 124 :  -0.1111 0.0000 0.4286  plane waves:    2784
 k-point 125 :   0.0000 0.1250 0.4286  plane waves:    2783
 k-point 126 :   0.1111 0.1250 0.4286  plane waves:    2780
 k-point 127 :   0.2222 0.1250 0.4286  plane waves:    2775
 k-point 128 :   0.3333 0.1250 0.4286  plane waves:    2769
 k-point 129 :   0.4444 0.1250 0.4286  plane waves:    2766
 k-point 130 :  -0.4444 0.1250 0.4286  plane waves:    2765
 k-point 131 :  -0.3333 0.1250 0.4286  plane waves:    2770
 k-point 132 :  -0.2222 0.1250 0.4286  plane waves:    2774
 k-point 133 :  -0.1111 0.1250 0.4286  plane waves:    2784
 k-point 134 :   0.0000 0.2500 0.4286  plane waves:    2779
 k-point 135 :   0.1111 0.2500 0.4286  plane waves:    2775
 k-point 136 :   0.2222 0.2500 0.4286  plane waves:    2770
 k-point 137 :   0.3333 0.2500 0.4286  plane waves:    2768
 k-point 138 :   0.4444 0.2500 0.4286  plane waves:    2760
 k-point 139 :  -0.4444 0.2500 0.4286  plane waves:    2757
 k-point 140 :  -0.3333 0.2500 0.4286  plane waves:    2765
 k-point 141 :  -0.2222 0.2500 0.4286  plane waves:    2772
 k-point 142 :  -0.1111 0.2500 0.4286  plane waves:    2777
 k-point 143 :   0.0000 0.3750 0.4286  plane waves:    2779
 k-point 144 :   0.1111 0.3750 0.4286  plane waves:    2784
 k-point 145 :   0.2222 0.3750 0.4286  plane waves:    2776
 k-point 146 :   0.3333 0.3750 0.4286  plane waves:    2758
 k-point 147 :   0.4444 0.3750 0.4286  plane waves:    2764
 k-point 148 :  -0.4444 0.3750 0.4286  plane waves:    2765
 k-point 149 :  -0.3333 0.3750 0.4286  plane waves:    2764
 k-point 150 :  -0.2222 0.3750 0.4286  plane waves:    2777
 k-point 151 :  -0.1111 0.3750 0.4286  plane waves:    2779
 k-point 152 :   0.0000 0.5000 0.4286  plane waves:    2792
 k-point 153 :   0.1111 0.5000 0.4286  plane waves:    2774
 k-point 154 :   0.2222 0.5000 0.4286  plane waves:    2760
 k-point 155 :   0.3333 0.5000 0.4286  plane waves:    2758
 k-point 156 :   0.4444 0.5000 0.4286  plane waves:    2754
 k-point 157 :  -0.4444 0.5000 0.4286  plane waves:    2754
 k-point 158 :  -0.3333 0.5000 0.4286  plane waves:    2766
 k-point 159 :  -0.2222 0.5000 0.4286  plane waves:    2768
 k-point 160 :  -0.1111 0.5000 0.4286  plane waves:    2776

 maximum and minimum number of plane-waves per node :       948      906

 maximum number of plane-waves:      2805
 maximum index in each direction: 
   IXMAX=    7   IYMAX=    8   IZMAX=   10
   IXMIN=   -7   IYMIN=   -9   IZMIN=  -10


 parallel 3D FFT for wavefunctions:
    minimum data exchange during FFTs selected (reduces bandwidth)
 parallel 3D FFT for charge:
    minimum data exchange during FFTs selected (reduces bandwidth)


 total amount of memory used by VASP MPI-rank0   147346. kBytes
=======================================================================

   base      :      30000. kBytes
   nonl-proj :      42940. kBytes
   fftplans  :        740. kBytes
   grid      :       1862. kBytes
   one-center:        124. kBytes
   wavefun   :      71680. kBytes
 
     INWAV:  cpu time      0.0000: real time      0.0002
 Broyden mixing: mesh for mixing (old mesh)
   NGX = 15   NGY = 17   NGZ = 21
  (NGX  = 48   NGY  = 56   NGZ  = 70)
  gives a total of   5355 points

 initial charge density was supplied:
 charge density of overlapping atoms calculated
 number of electron     150.0000000 magnetization      36.0000000
 keeping initial charge density in first step


--------------------------------------------------------------------------------------------------------


 Maximum index for augmentation-charges          310 (set IRDMAX)


--------------------------------------------------------------------------------------------------------


 First call to EWALD:  gamma=   0.355
 Maximum number of real-space cells 3x 3x 2
 Maximum number of reciprocal cells 2x 3x 3

    FEWALD:  cpu time      0.0005: real time      0.0005


--------------------------------------- Ionic step        1  -------------------------------------------




--------------------------------------- Iteration      1(   1)  ---------------------------------------


    POTLOK:  cpu time      0.0031: real time      0.0041
    SETDIJ:  cpu time      0.0038: real time      0.0038
     EDDAV:  cpu time      8.1291: real time      8.1559
 BZINTS: Fermi energy:   27.060725;  150.000000 electrons
         Band energy: 0.778774E+03;  BLOECHL correction:   -0.109187
       DOS:  cpu time      0.4544: real time      0.4553
    --------------------------------------------
      LOOP:  cpu time      8.5905: real time      8.6191

 eigenvalue-minimisations  : 79088
 total energy-change (2. order) : 0.1917690E+04  (-0.7183612E+04)
 number of electron     150.0000000 magnetization      36.0000000
 augmentation part      150.0000000 magnetization      36.0000000

 Free energy of the ion-electron system (eV)
  ---------------------------------------------------
  alpha Z        PSCENC =      1463.99255368
  Ewald energy   TEWEN  =    -18224.67969647
  -Hartree energ DENC   =     -7494.13518454
  -exchange      EXHF   =         0.00000000
  -V(xc)+E(xc)   XCENC  =       664.67803900
  PAW double counting   =     19934.15191062   -21135.41606588
  entropy T*S    EENTRO =         0.00000000
  eigenvalues    EBANDS =       778.77429030
  atomic energy  EATOM  =     25930.32421885
  Solvation  Ediel_sol  =         0.00000000
  ---------------------------------------------------
  free energy    TOTEN  =      1917.69006556 eV

  energy without entropy =     1917.69006556  energy(sigma->0) =     1917.69006556


--------------------------------------------------------------------------------------------------------




--------------------------------------- Iteration      1(   2)  ---------------------------------------


     EDDAV:  cpu time      7.5829: real time      7.6090
 BZINTS: Fermi energy:   12.271679;  150.000000 electrons
         Band energy:-0.989605E+03;  BLOECHL correction:   -0.056804
       DOS:  cpu time      0.4391: real time      0.4399
    --------------------------------------------
      LOOP:  cpu time      8.0219: real time      8.0489

 eigenvalue-minimisations  : 71680
 total energy-change (2. order) :-0.1768379E+04  (-0.1659119E+04)
 number of electron     150.0000000 magnetization      36.0000000
 augmentation part      150.0000000 magnetization      36.0000000

 Free energy of the ion-electron system (eV)
  ---------------------------------------------------
  alpha Z        PSCENC =      1463.99255368
  Ewald energy   TEWEN  =    -18224.67969647
  -Hartree energ DENC   =     -7494.13518454
  -exchange      EXHF   =         0.00000000
  -V(xc)+E(xc)   XCENC  =       664.67803900
  PAW double counting   =     19934.15191062   -21135.41606588
  entropy T*S    EENTRO =         0.00000000
  eigenvalues    EBANDS =      -989.60470607
  atomic energy  EATOM  =     25930.32421885
  Solvation  Ediel_sol  =         0.00000000
  ---------------------------------------------------
  free energy    TOTEN  =       149.31106919 eV

  energy without entropy =      149.31106919  energy(sigma->0) =      149.31106919


--------------------------------------------------------------------------------------------------------




--------------------------------------- Iteration      1(   3)  ---------------------------------------


     EDDAV:  cpu time      7.7563: real time      7.7867
 BZINTS: Fermi energy:    9.704210;  150.000000 electrons
         Band energy:-0.122284E+04;  BLOECHL correction:   -0.093048
       DOS:  cpu time      0.4535: real time      0.4546
    --------------------------------------------
      LOOP:  cpu time      8.2097: real time      8.2413

 eigenvalue-minimisations  : 73264
 total energy-change (2. order) :-0.2332329E+03  (-0.1909984E+03)
 number of electron     150.0000000 magnetization      36.0000000
 augmentation part      150.0000000 magnetization      36.0000000

 Free energy of the ion-electron system (eV)
  ---------------------------------------------------
  alpha Z        PSCENC =      1463.99255368
  Ewald energy   TEWEN  =    -18224.67969647
  -Hartree energ DENC   =     -7494.13518454
  -exchange      EXHF   =         0.00000000
  -V(xc)+E(xc)   XCENC  =       664.67803900
  PAW double counting   =     19934.15191062   -21135.41606588
  entropy T*S    EENTRO =         0.00000000
  eigenvalues    EBANDS =     -1222.83762041
  atomic energy  EATOM  =     25930.32421885
  Solvation  Ediel_sol  =         0.00000000
  ---------------------------------------------------
  free energy    TOTEN  =       -83.92184515 eV

  energy without entropy =      -83.92184515  energy(sigma->0) =      -83.92184515


--------------------------------------------------------------------------------------------------------




--------------------------------------- Iteration      1(   4)  ---------------------------------------


     EDDAV:  cpu time      8.2345: real time      8.2660
 BZINTS: Fermi energy:    9.616408;  150.000000 electrons
         Band energy:-0.123513E+04;  BLOECHL correction:   -0.096974
       DOS:  cpu time      0.4459: real time      0.4467
    --------------------------------------------
      LOOP:  cpu time      8.6804: real time      8.7127

 eigenvalue-minimisations  : 80032
 total energy-change (2. order) :-0.1228889E+02  (-0.1206790E+02)
 number of electron     150.0000000 magnetization      36.0000000
 augmentation part      150.0000000 magnetization      36.0000000

 Free energy of the ion-electron system (eV)
  ---------------------------------------------------
  alpha Z        PSCENC =      1463.99255368
  Ewald energy   TEWEN  =    -18224.67969647
  -Hartree energ DENC   =     -7494.13518454
  -exchange      EXHF   =         0.00000000
  -V(xc)+E(xc)   XCENC  =       664.67803900
  PAW double counting   =     19934.15191062   -21135.41606588
  entropy T*S    EENTRO =         0.00000000
  eigenvalues    EBANDS =     -1235.12650663
  atomic energy  EATOM  =     25930.32421885
  Solvation  Ediel_sol  =         0.00000000
  ---------------------------------------------------
  free energy    TOTEN  =       -96.21073137 eV

  energy without entropy =      -96.21073137  energy(sigma->0) =      -96.21073137


--------------------------------------------------------------------------------------------------------




--------------------------------------- Iteration      1(   5)  ---------------------------------------


     EDDAV:  cpu time      9.4598: real time      9.4966
 BZINTS: Fermi energy:    9.615233;  150.000000 electrons
         Band energy:-0.123533E+04;  BLOECHL correction:   -0.096958
       DOS:  cpu time      0.4417: real time      0.4425
    CHARGE:  cpu time      0.2999: real time      0.3007
    MIXING:  cpu time      0.0007: real time      0.0008
    --------------------------------------------
      LOOP:  cpu time     10.2021: real time     10.2405

 eigenvalue-minimisations  : 96552
 total energy-change (2. order) :-0.2022537E+00  (-0.2021572E+00)
 number of electron     149.9999084 magnetization      32.5842524
 augmentation part       80.6949130 magnetization      28.8702019

 Broyden mixing:
  rms(total) = 0.42494E+01    rms(broyden)= 0.42489E+01
  rms(prec ) = 0.61091E+01
  weight for this iteration     100.00

 Free energy of the ion-electron system (eV)
  ---------------------------------------------------
  alpha Z        PSCENC =      1463.99255368
  Ewald energy   TEWEN  =    -18224.67969647
  -Hartree energ DENC   =     -7494.13518454
  -exchange      EXHF   =         0.00000000
  -V(xc)+E(xc)   XCENC  =       664.67803900
  PAW double counting   =     19934.15191062   -21135.41606588
  entropy T*S    EENTRO =         0.00000000
  eigenvalues    EBANDS =     -1235.32876028
  atomic energy  EATOM  =     25930.32421885
  Solvation  Ediel_sol  =         0.00000000
  ---------------------------------------------------
  free energy    TOTEN  =       -96.41298502 eV

  energy without entropy =      -96.41298502  energy(sigma->0) =      -96.41298502


--------------------------------------------------------------------------------------------------------




--------------------------------------- Iteration      1(   6)  ---------------------------------------


    POTLOK:  cpu time      0.0043: real time      0.0052
    SETDIJ:  cpu time      0.0031: real time      0.0031
     EDDAV:  cpu time      9.3484: real time      9.3805
 BZINTS: Fermi energy:    8.285872;  150.000000 electrons
         Band energy:-0.156279E+04;  BLOECHL correction:   -0.035986
       DOS:  cpu time      0.4544: real time      0.4556
    CHARGE:  cpu time      0.3018: real time      0.3023
    MIXING:  cpu time      0.0009: real time      0.0009
    --------------------------------------------
      LOOP:  cpu time     10.1129: real time     10.1477

 eigenvalue-minimisations  : 96320
 total energy-change (2. order) : 0.1351475E+00  (-0.3869538E+01)
 number of electron     149.9998975 magnetization      31.4937167
 augmentation part       84.9933614 magnetization      28.5770981

 Broyden mixing:
  rms(total) = 0.59881E+01    rms(broyden)= 0.59880E+01
  rms(prec ) = 0.94638E+01
  weight for this iteration     100.00

 eigenvalues of (default mixing * dielectric matrix)
  average eigenvalue GAMMA=   0.2620
  0.2620

 Free energy of the ion-electron system (eV)
  ---------------------------------------------------
  alpha Z        PSCENC =      1463.99255368
  Ewald energy   TEWEN  =    -18224.67969647
  -Hartree energ DENC   =     -7183.32947171
  -exchange      EXHF   =         0.00000000
  -V(xc)+E(xc)   XCENC  =       651.23924924
  PAW double counting   =     19654.37186194   -20825.40245410
  entropy T*S    EENTRO =         0.00000000
  eigenvalues    EBANDS =     -1562.79409891
  atomic energy  EATOM  =     25930.32421885
  Solvation  Ediel_sol  =         0.00000000
  ---------------------------------------------------
  free energy    TOTEN  =       -96.27783748 eV

  energy without entropy =      -96.27783748  energy(sigma->0) =      -96.27783748


--------------------------------------------------------------------------------------------------------




--------------------------------------- Iteration      1(   7)  ---------------------------------------


    POTLOK:  cpu time      0.0039: real time      0.0054
    SETDIJ:  cpu time      0.0031: real time      0.0032
     EDDAV:  cpu time      8.7048: real time      8.7353
 BZINTS: Fermi energy:    7.684763;  150.000000 electrons
         Band energy:-0.148759E+04;  BLOECHL correction:   -0.091369
       DOS:  cpu time      0.4292: real time      0.4316
    CHARGE:  cpu time      0.2945: real time      0.2950
    MIXING:  cpu time      0.0003: real time      0.0003
    --------------------------------------------
      LOOP:  cpu time      9.4360: real time      9.4707

 eigenvalue-minimisations  : 87584
 total energy-change (2. order) : 0.1113719E+02  (-0.2587769E+01)
 number of electron     149.9999023 magnetization      28.6735052
[...]
     22       0.6536      1.00000
     23       3.2563      1.00000
     24       3.2563      1.00000
     25       3.3437      1.00000
     26       3.3437      1.00000
     27       3.3669      1.00000
     28       3.3669      1.00000
     29       3.5309      1.00000
     30       3.5309      1.00000
     31       3.8954      1.00000
     32       3.8954      1.00000
     33       4.1592      1.00000
     34       4.1592      1.00000
     35       4.2618      1.00000
     36       4.2618      1.00000
     37       4.2961      1.00000
     38       4.2961      1.00000
     39       4.3244      1.00000
     40       4.3244      1.00000
     41       4.4499      1.00000
     42       4.4499      1.00000
     43       4.6475      1.00000
     44       4.6475      1.00000
     45       4.8835      1.00000
     46       4.8835      1.00000
     47       5.0385      1.00000
     48       5.0385      1.00000
     49       5.1629      1.00000
     50       5.1629      1.00000
     51       5.5220      1.00000
     52       5.5220      1.00000
     53       5.6328      1.00000
     54       5.6328      1.00000
     55       5.7676      1.00000
     56       5.7676      1.00000
     57       5.8592      1.00000
     58       5.8592      1.00000
     59       6.0432      1.00000
     60       6.0432      1.00000
     61       6.2911      1.00000
     62       6.2911      1.00000
     63       6.4039      1.00000
     64       6.4039      1.00000
     65       6.4242      1.00000
     66       6.4242      1.00000
     67       6.6665      1.00000
     68       6.6665      1.00000
     69       6.8027      1.00000
     70       6.8027      1.01866
     71       7.1140      0.00000
     72       7.1140      0.00000
     73       7.1841      0.00000
     74       7.1841      0.00000
     75       7.4203      0.00000
     76       7.4203      0.00000
     77       7.5610      0.00000
     78       7.5610      0.00000
     79       7.6660      0.00000
     80       7.6660      0.00000
     81       7.8359      0.00000
     82       7.8359      0.00000
     83      10.3751      0.00000
     84      10.3751      0.00000
     85      11.0502      0.00000
     86      11.0502      0.00000
     87      11.1636      0.00000
     88      11.1636      0.00000
     89      13.7372      0.00000
     90      13.7372      0.00000
     91      14.4375      0.00000
     92      14.4375      0.00000
     93      15.2977      0.00000
     94      15.2977      0.00000
     95      16.0824      0.00000
     96      16.0824      0.00000
     97      16.5022      0.00000
     98      16.5022      0.00000
     99      18.7803      0.00000
    100      18.7803      0.00000
    101      20.2185      0.00000
    102      20.2185      0.00000
    103      21.7030      0.00000
    104      21.7030      0.00000
    105      22.5957      0.00000
    106      22.5957      0.00000
    107      23.1176      0.00000
    108      23.1176      0.00000
    109      23.2581      0.00000
    110      23.2581      0.00000
    111      23.5460      0.00000
    112      23.5460      0.00000


--------------------------------------------------------------------------------------------------------


 soft charge-density along one line, spin component           1
         0         1         2         3         4         5         6         7         8         9
 total charge-density along one line
 
 soft charge-density along one line, spin component           2
         0         1         2         3         4         5         6         7         8         9
 total charge-density along one line
 
 pseudopotential strength for first ion, spin component:           1
 -4.603  -0.018   0.000  -0.000   0.000  -0.992   0.007  -0.000
 -0.018  -4.561  -0.000  -0.000   0.000   0.007  -1.007   0.000
  0.000  -0.000  -4.572  -0.010   0.016  -0.000   0.000  -1.004
 -0.000  -0.000  -0.010  -4.543  -0.005   0.000   0.000   0.003
  0.000   0.000   0.016  -0.005  -4.550  -0.000  -0.000  -0.006
 -0.992   0.007  -0.000   0.000  -0.000   1.368  -0.002   0.000
  0.007  -1.007   0.000   0.000  -0.000  -0.002   1.373  -0.000
 -0.000   0.000  -1.004   0.003  -0.006   0.000  -0.000   1.372
  0.000   0.000   0.003  -1.014   0.002  -0.000  -0.000  -0.001
 -0.000  -0.000  -0.006   0.002  -1.011   0.000   0.000   0.002
  0.000   0.000  -0.002   0.004   0.001   0.000   0.000   0.001
 -0.000  -0.000   0.000  -0.000  -0.000   0.000   0.000  -0.000
 -0.000   0.007  -0.000   0.000  -0.000   0.000  -0.002   0.000
  0.000   0.000   0.010   0.000   0.000   0.000  -0.000  -0.004
  0.000   0.000  -0.000   0.007   0.001  -0.000   0.000   0.000
  0.000  -0.002   0.000  -0.000   0.000  -0.000   0.001  -0.000
 -0.000  -0.000  -0.003  -0.000  -0.000   0.000   0.000   0.001
 -0.000  -0.000   0.000  -0.002  -0.000   0.000   0.000  -0.000
 pseudopotential strength for first ion, spin component:           2
 -3.375   0.010   0.000  -0.000   0.000  -1.451  -0.003  -0.000
  0.010  -3.367  -0.000  -0.000   0.000  -0.003  -1.454   0.000
  0.000  -0.000  -3.382  -0.002  -0.003  -0.000   0.000  -1.449
 -0.000  -0.000  -0.002  -3.380  -0.022   0.000   0.000   0.001
  0.000   0.000  -0.003  -0.022  -3.396  -0.000  -0.000   0.001
 -1.451  -0.003  -0.000   0.000  -0.000   1.535   0.001   0.000
 -0.003  -1.454   0.000   0.000  -0.000   0.001   1.536  -0.000
 -0.000   0.000  -1.449   0.001   0.001   0.000  -0.000   1.535
  0.000   0.000   0.001  -1.448   0.007  -0.000  -0.000  -0.000
 -0.000  -0.000   0.001   0.007  -1.443   0.000   0.000  -0.000
  0.000   0.000  -0.001   0.001   0.001   0.000   0.000   0.000
 -0.000  -0.000   0.000  -0.000  -0.000   0.000   0.000  -0.000
  0.000   0.004  -0.000   0.000  -0.000  -0.000  -0.001   0.000
  0.000   0.000   0.004   0.000  -0.000   0.000  -0.000  -0.001
  0.000   0.000  -0.000   0.004   0.000  -0.000   0.000   0.000
  0.000  -0.002   0.000  -0.000   0.000   0.000   0.001  -0.000
 -0.000  -0.000  -0.003  -0.000  -0.000   0.000   0.000   0.001
 -0.000  -0.000   0.000  -0.002  -0.000   0.000   0.000  -0.000
 total augmentation occupancy for first ion, spin component:           1
  1.558  -0.024   0.000   0.000   0.000   0.116  -0.036   0.000   0.000   0.000   0.000   0.000  -0.003   0.000  -0.000   0.000
 -0.024   1.592   0.000   0.000   0.000  -0.036   0.093   0.000   0.000   0.000   0.000   0.000   0.009   0.000   0.000  -0.000
  0.000   0.000   1.594  -0.005   0.019   0.000   0.000   0.144   0.000   0.003   0.002  -0.002   0.000   0.022  -0.001   0.000
  0.000   0.000  -0.005   1.617   0.015   0.000   0.000   0.000   0.087   0.036   0.003   0.002   0.000   0.001   0.012  -0.000
  0.000   0.000   0.019   0.015   1.624   0.000   0.000   0.003   0.036   0.114  -0.014   0.002  -0.000   0.001   0.004  -0.000
  0.116  -0.036   0.000   0.000   0.000   0.161  -0.002   0.000  -0.000   0.000   0.000   0.000   0.000   0.000  -0.000  -0.000
 -0.036   0.093   0.000   0.000   0.000  -0.002   0.157  -0.000  -0.000   0.000  -0.000   0.000   0.008  -0.000   0.000  -0.000
  0.000   0.000   0.144   0.000   0.003   0.000  -0.000   0.161   0.000  -0.002   0.001   0.001   0.000   0.007  -0.000   0.000
  0.000   0.000   0.000   0.087   0.036  -0.000  -0.000   0.000   0.153   0.003   0.002  -0.000  -0.000   0.001   0.007   0.000
  0.000   0.000   0.003   0.036   0.114   0.000   0.000  -0.002   0.003   0.155  -0.004  -0.001   0.000  -0.000   0.002   0.000
  0.000   0.000   0.002   0.003  -0.014   0.000  -0.000   0.001   0.002  -0.004   1.396  -0.385   0.000   0.026   0.002  -0.000
  0.000   0.000  -0.002   0.002   0.002   0.000   0.000   0.001  -0.000  -0.001  -0.385   0.138  -0.000  -0.004  -0.001  -0.000
 -0.003   0.009   0.000   0.000  -0.000   0.000   0.008   0.000  -0.000   0.000   0.000  -0.000   0.243  -0.000   0.000  -0.017
  0.000   0.000   0.022   0.001   0.001   0.000  -0.000   0.007   0.001  -0.000   0.026  -0.004  -0.000   0.242   0.000   0.000
 -0.000   0.000  -0.001   0.012   0.004  -0.000   0.000  -0.000   0.007   0.002   0.002  -0.001   0.000   0.000   0.239   0.000
  0.000  -0.000   0.000  -0.000  -0.000  -0.000  -0.000   0.000   0.000   0.000  -0.000  -0.000  -0.017   0.000   0.000   0.001
  0.000   0.000  -0.001   0.000   0.000   0.000   0.000  -0.000  -0.000   0.000  -0.001  -0.000   0.000  -0.017   0.000  -0.000
  0.000   0.000  -0.000  -0.000   0.000   0.000   0.000   0.000  -0.000   0.000  -0.000   0.000   0.000   0.000  -0.017  -0.000
 total augmentation occupancy for first ion, spin component:           2
  0.314   0.030   0.000  -0.000   0.000  -0.184  -0.001   0.000  -0.000   0.000   0.000  -0.000   0.002   0.000  -0.000   0.000
  0.030   0.282   0.000  -0.000   0.000  -0.001  -0.178  -0.000   0.000   0.000   0.000  -0.000  -0.007   0.000   0.000  -0.000
  0.000   0.000   0.275   0.007  -0.020   0.000   0.000  -0.182  -0.002   0.002  -0.003  -0.001   0.000  -0.020   0.000   0.000
 -0.000  -0.000   0.007   0.257  -0.020   0.000  -0.000  -0.002  -0.168  -0.002  -0.001   0.000   0.000   0.000  -0.010   0.000
  0.000   0.000  -0.020  -0.020   0.247   0.000   0.000   0.002  -0.002  -0.169   0.013   0.002  -0.000  -0.001  -0.002   0.000
 -0.184  -0.001   0.000   0.000   0.000   0.020   0.002   0.000  -0.000  -0.000   0.000   0.000  -0.001   0.000   0.000   0.000
 -0.001  -0.178   0.000  -0.000   0.000   0.002   0.023  -0.000  -0.000  -0.000   0.000   0.000  -0.000   0.000   0.000  -0.000
  0.000  -0.000  -0.182  -0.002   0.002   0.000  -0.000   0.021   0.000   0.002  -0.001  -0.000   0.000   0.002  -0.000   0.000
 -0.000   0.000  -0.002  -0.168  -0.002  -0.000  -0.000   0.000   0.023  -0.001   0.001  -0.000   0.000  -0.000   0.001   0.000
  0.000   0.000   0.002  -0.002  -0.169  -0.000  -0.000   0.002  -0.001   0.022  -0.000   0.001   0.000   0.000   0.001   0.000
  0.000   0.000  -0.003  -0.001   0.013   0.000   0.000  -0.001   0.001  -0.000   0.003   0.060   0.000  -0.007  -0.000  -0.000
 -0.000  -0.000  -0.001   0.000   0.002   0.000   0.000  -0.000  -0.000   0.001   0.060  -0.033   0.000   0.000   0.000   0.000
  0.002  -0.007   0.000   0.000  -0.000  -0.001  -0.000   0.000   0.000   0.000   0.000   0.000  -0.010   0.000   0.000   0.002
  0.000   0.000  -0.020   0.000  -0.001   0.000   0.000   0.002  -0.000   0.000  -0.007   0.000   0.000  -0.009   0.000   0.000
 -0.000   0.000   0.000  -0.010  -0.002   0.000   0.000  -0.000   0.001   0.001  -0.000   0.000   0.000   0.000  -0.008   0.000
  0.000  -0.000   0.000   0.000   0.000   0.000  -0.000   0.000   0.000   0.000  -0.000   0.000   0.002   0.000   0.000  -0.000
  0.000   0.000  -0.000   0.000  -0.000  -0.000   0.000  -0.000  -0.000  -0.000  -0.000   0.000   0.000   0.002   0.000   0.000
  0.000   0.000  -0.000  -0.000  -0.000  -0.000   0.000   0.000  -0.000  -0.000   0.000  -0.000   0.000   0.000   0.002   0.000


------------------------ aborting loop because EDIFF is reached ----------------------------------------


    CHARGE:  cpu time      0.2228: real time      0.2232
    FORLOC:  cpu time      0.0003: real time      0.0003
    FORNL :  cpu time      0.7730: real time      0.7759
    STRESS:  cpu time      2.4900: real time      2.4977
    FORCOR:  cpu time      0.0013: real time      0.0013
    FORHAR:  cpu time      0.0006: real time      0.0006
    MIXING:  cpu time      0.0005: real time      0.0005
    OFIELD:  cpu time      0.0001: real time      0.0001

  FORCE on cell =-STRESS in cart. coord.  units (eV):
  Direction    XX          YY          ZZ          XY          YZ          ZX
  --------------------------------------------------------------------------------------
  Alpha Z  1463.99255  1463.99255  1463.99255
  Ewald   -5763.14220 -5404.38602 -7057.17008    -0.00000    -0.00000    -8.00188
  Hartree  2688.70682  3015.51846  1457.34385    -0.00000    -0.00000    -5.98356
  E(xc)    -969.64901  -969.73165  -969.54640     0.00000     0.00000     0.00489
  Local     116.08917  -569.66086  2642.70689    -0.00000     0.00000    13.81275
  n-local  -709.24334  -709.37350  -708.61044     0.26517    -0.80457     0.06119
  augment  1348.26996  1348.57837  1347.09644     0.00000     0.00000     0.09287
  Kinetic  1819.17051  1819.14326  1818.18249    -0.87031    -0.02564     0.01742
  Fock        0.00000     0.00000     0.00000     0.00000     0.00000     0.00000
  -------------------------------------------------------------------------------------
  Total      -5.80553    -5.91938    -6.00471     0.00000     0.00000     0.00368
  in kB     -75.00245   -76.47336   -77.57573     0.00000     0.00000     0.04755
  external pressure =      -76.35 kB  Pullay stress =        0.00 kB


 VOLUME and BASIS-vectors are now :
 -----------------------------------------------------------------------------
  energy-cutoff  :      459.66
  volume of cell :      124.02
      direct lattice vectors                 reciprocal lattice vectors
     4.240705168  0.000000000 -0.006530785     0.235810398  0.000000000  0.000363393
     0.000000000  4.874722586  0.000000000     0.000000000  0.205139879  0.000000000
    -0.009244924  0.000000000  5.999153770     0.000256707  0.000000000  0.166690572

  length of vectors
     4.240710196  4.874722586  5.999160894     0.235810678  0.205139879  0.166690770


 FORCES acting on ions
    electron-ion (+dipol)            ewald-force                    non-local-force                 convergence-correction
 -----------------------------------------------------------------------------------------------
   0.349E+01 0.393E-12 -.323E+03   -.357E+01 0.000E+00 0.323E+03   0.694E-01 0.367E-18 -.485E-01   0.113E-02 0.614E-15 -.204E-01
   0.349E+01 0.798E-14 -.323E+03   -.357E+01 0.284E-13 0.323E+03   0.694E-01 0.240E-18 -.485E-01   0.113E-02 0.481E-13 -.204E-01
   0.474E+02 0.194E-12 0.134E+03   -.473E+02 -.142E-13 -.134E+03   -.376E-01 -.442E-18 -.862E-01   0.604E-03 -.466E-13 0.314E-01
   0.474E+02 0.531E-12 0.134E+03   -.473E+02 -.142E-13 -.134E+03   -.376E-01 0.510E-18 -.862E-01   0.604E-03 -.608E-13 0.314E-01
   -.465E+02 -.269E-12 0.180E+03   0.465E+02 0.260E-14 -.180E+03   0.249E-01 0.468E-18 -.112E-01   -.385E-03 0.142E-12 0.343E-01
   -.465E+02 0.103E-12 0.180E+03   0.465E+02 0.741E-14 -.180E+03   0.249E-01 0.809E-18 -.112E-01   -.385E-03 0.188E-13 0.343E-01
   -.842E+02 -.999E-13 0.334E+03   0.842E+02 -.114E-12 -.334E+03   -.878E-01 0.266E-18 0.159E+00   -.184E-02 -.529E-13 -.201E-01
   -.842E+02 -.167E-11 0.334E+03   0.842E+02 -.114E-12 -.334E+03   -.878E-01 -.242E-18 0.159E+00   -.184E-02 0.408E-12 -.201E-01
   0.848E+02 -.107E-12 0.260E+03   -.849E+02 0.112E-12 -.260E+03   0.917E-01 -.356E-18 0.272E-01   0.178E-02 0.239E-12 -.266E-01
   0.848E+02 -.448E-11 0.260E+03   -.849E+02 0.115E-12 -.260E+03   0.917E-01 -.239E-18 0.272E-01   0.178E-02 -.122E-12 -.266E-01
   -.499E+01 0.722E-13 -.586E+03   0.504E+01 -.224E-14 0.586E+03   -.421E-01 0.725E-18 -.935E-02   -.226E-02 0.318E-12 -.303E-01
   -.499E+01 0.258E-11 -.586E+03   0.504E+01 -.463E-14 0.586E+03   -.421E-01 -.585E-18 -.935E-02   -.226E-02 -.141E-12 -.303E-01
 -----------------------------------------------------------------------------------------------
   -.328E-01 -.274E-11 0.115E-01   0.542E-13 0.272E-14 0.000E+00   0.367E-01 0.152E-17 0.608E-01   -.197E-02 0.751E-12 -.634E-01
 
 
 POSITION                                       TOTAL-FORCE (eV/Angst)
 -----------------------------------------------------------------------------------
      3.53429      1.21868      2.01993        -0.002833     -0.000000     -0.001161
      3.53429      3.65604      2.01993        -0.002833     -0.000000     -0.001161
      0.69382      1.21868      3.98386         0.009351      0.000000      0.015629
      0.69382      3.65604      3.98386         0.009351      0.000000      0.015629
      2.82348      0.00000      3.98459        -0.010251     -0.000000     -0.009871
      2.82348      2.43736      3.98459        -0.010251     -0.000000     -0.009871
      2.11385      1.21868      5.98959        -0.012323      0.000000      0.001326
      2.11385      3.65604      5.98959        -0.012323     -0.000000      0.001326
      4.23034      0.00000      5.98554         0.009090      0.000000     -0.002414
      4.23034      2.43736      5.98554         0.009090     -0.000000     -0.002414
      1.40971      0.00000      2.01024         0.006966      0.000000     -0.003508
      1.40971      2.43736      2.01024         0.006966      0.000000     -0.003508
 -----------------------------------------------------------------------------------
    total drift:                                0.001983     -0.000000      0.008950


--------------------------------------------------------------------------------------------------------



  FREE ENERGIE OF THE ION-ELECTRON SYSTEM (eV)
  ---------------------------------------------------
  free  energy   TOTEN  =       -87.73306364 eV

  energy  without entropy=      -87.73306364  energy(sigma->0) =      -87.73306364
 


--------------------------------------------------------------------------------------------------------


    POTLOK:  cpu time      0.0042: real time      0.0042


--------------------------------------------------------------------------------------------------------


 stress matrix after NEB project (eV)
     -5.80553      0.00000      0.00368
      0.00000     -5.91938      0.00000
      0.00368      0.00000     -6.00471
  FORCES: max atom, RMS     0.018212    0.011878
  FORCE total and by dimension    0.041146    0.015629
  Stress total and by dimension   10.237182    6.004713
     LOOP+:  cpu time    226.6286: real time    227.4824
 -----------------------------------------------------------------------------
|                                                                             |
|           W    W    AA    RRRRR   N    N  II  N    N   GGGG   !!!           |
|           W    W   A  A   R    R  NN   N  II  NN   N  G    G  !!!           |
|           W    W  A    A  R    R  N N  N  II  N N  N  G       !!!           |
|           W WW W  AAAAAA  RRRRR   N  N N  II  N  N N  G  GGG   !            |
|           WW  WW  A    A  R   R   N   NN  II  N   NN  G    G                |
|           W    W  A    A  R    R  N    N  II  N    N   GGGG   !!!           |
|                                                                             |
|     Tetrahedron method does not include variations of the Fermi             |
|     occupations, so forces and stress will be inaccurate. We suggest        |
|     using a different smearing scheme ISMEAR = 1 or 2 for metals in         |
|     relaxations.                                                            |
|                                                                             |
 -----------------------------------------------------------------------------

    4ORBIT:  cpu time      0.0000: real time      0.0000
 BZINTS: Fermi energy:    6.976344;  150.000000 electrons
         Band energy:-0.152095E+04;  BLOECHL correction:   -0.064012

 total amount of memory used by VASP MPI-rank0   147346. kBytes
=======================================================================

   base      :      30000. kBytes
   nonl-proj :      42940. kBytes
   fftplans  :        740. kBytes
   grid      :       1862. kBytes
   one-center:        124. kBytes
   wavefun   :      71680. kBytes
 
  
  
 General timing and accounting informations for this job:
 ========================================================
  
                  Total CPU time used (sec):      230.457
                            User time (sec):      223.976
                          System time (sec):        6.482
                         Elapsed time (sec):      231.391
  
                   Maximum memory used (kb):      241980.
                   Average memory used (kb):          N/A
  
                          Minor page faults:        18187
                          Major page faults:          474
                 Voluntary context switches:          562
