       N       E                     dE             d eps       ncg     rms          rms(c)
DAV:   1     0.204967230287E+04    0.20497E+04   -0.88912E+04 33660   0.201E+03
DAV:   2     0.120352055402E+03   -0.19293E+04   -0.18727E+04 32000   0.592E+02
DAV:   3    -0.837848030481E+02   -0.20414E+03   -0.18056E+03 44800   0.193E+02
DAV:   4    -0.976542129182E+02   -0.13869E+02   -0.13476E+02 46440   0.513E+01
DAV:   5    -0.979903609679E+02   -0.33615E+00   -0.33529E+00 45380   0.831E+00    0.266E+01
RMM:   6    -0.111412271187E+03   -0.13422E+02   -0.15318E+02 34654   0.811E+01    0.471E+01
RMM:   7    -0.903520909077E+02    0.21060E+02   -0.38992E+01 32068   0.479E+01    0.914E+00
RMM:   8    -0.908621402308E+02   -0.51005E+00   -0.33952E+00 46135   0.519E+00    0.408E+00
RMM:   9    -0.909108877740E+02   -0.48748E-01   -0.78917E-01 52424   0.266E+00    0.217E+00
RMM:  10    -0.909167432211E+02   -0.58554E-02   -0.20294E-01 51391   0.135E+00    0.960E-01
RMM:  11    -0.909219575583E+02   -0.52143E-02   -0.38790E-02 50410   0.729E-01    0.359E-01
RMM:  12    -0.909261821756E+02   -0.42246E-02   -0.86606E-03 47890   0.301E-01    0.158E-01
RMM:  13    -0.909261951459E+02   -0.12970E-04   -0.19656E-03 34975   0.150E-01
   1 F= -.98321754E+02 E0= -.98321754E+02  d E =0.000000E+00  mag=    -0.0000
