 vasp.6.4.1 05Apr23 (build Jun 01 2023 13:46:15) complex                        
  
 executed on             LinuxIFC date 2023.12.17  00:51:23
 running   20 mpi-ranks, on    5 nodes
 distrk:  each k-point on   20 cores,    1 groups
 distr:  one band on NCORE=   1 cores,   20 groups


--------------------------------------------------------------------------------------------------------


 INCAR:
   ALGO = Fast
   EDIFF = 0.0002
   ENCUT = 550
   IBRION = 2
   ISIF = 4
   ISMEAR = 0
   ISPIN = 2
   IVDW = 13
   LASPH = True
   LMAXMIX = 4
   LORBIT = 11
   LREAL = Auto
   LWAVE = False
   MAGMOM = 1*2.424 2*-2.424 2*2.424 2*-2.424 1*2.424 8*0.0
   NELM = 100
   NSW = 99
   PREC = Accurate
   SIGMA = 0.05

 POTCAR:   PAW_PBE Fe_pv 06Sep2000                
 POTCAR:   PAW_PBE Se 06Sep2000                   
 -----------------------------------------------------------------------------
|                                                                             |
|           W    W    AA    RRRRR   N    N  II  N    N   GGGG   !!!           |
|           W    W   A  A   R    R  NN   N  II  NN   N  G    G  !!!           |
|           W    W  A    A  R    R  N N  N  II  N N  N  G       !!!           |
|           W WW W  AAAAAA  RRRRR   N  N N  II  N  N N  G  GGG   !            |
|           WW  WW  A    A  R   R   N   NN  II  N   NN  G    G                |
|           W    W  A    A  R    R  N    N  II  N    N   GGGG   !!!           |
|                                                                             |
|     For optimal performance we recommend to set                             |
|       NCORE = 2 up to number-of-cores-per-socket                            |
|     NCORE specifies how many cores store one orbital (NPAR=cpu/NCORE).      |
|     This setting can greatly improve the performance of VASP for DFT.       |
|     The default, NCORE=1 might be grossly inefficient on modern             |
|     multi-core architectures or massively parallel machines. Do your        |
|     own testing! More info at https://www.vasp.at/wiki/index.php/NCORE      |
|     Unfortunately you need to use the default for GW and RPA                |
|     calculations (for HF NCORE is supported but not extensively tested      |
|     yet).                                                                   |
|                                                                             |
 -----------------------------------------------------------------------------

 POTCAR:   PAW_PBE Fe_pv 06Sep2000                
   VRHFIN =Fe:  3pd7s1                                                                              
   LEXCH  = PE                                                                                      
   EATOM  =  2456.8974 eV,  180.5769 Ry                                                             
                                                                                                    
   TITEL  = PAW_PBE Fe_pv 06Sep2000                                                                 
   LULTRA =        F    use ultrasoft PP ?                                                          
   IUNSCR =        1    unscreen: 0-lin 1-nonlin 2-no                                               
   RPACOR =    1.750    partial core radius                                                         
   POMASS =   55.847; ZVAL   =   14.000    mass and valenz                                          
   RCORE  =    2.200    outmost cutoff radius                                                       
   RWIGS  =    2.200; RWIGS  =    1.164    wigner-seitz radius (au A)                               
   ENMAX  =  293.238; ENMIN  =  219.929 eV                                                          
   RCLOC  =    1.701    cutoff for local pot                                                        
   LCOR   =        T    correct aug charges                                                         
   LPAW   =        T    paw PP                                                                      
   EAUG   =  578.342                                                                                
   DEXC   =    -.002                                                                                
   RMAX   =    2.693    core radius for proj-oper                                                   
   RAUG   =    1.300    factor for augmentation sphere                                              
   RDEP   =    2.296    radius for radial grids                                                     
   QCUT   =   -4.642; QGAM   =    9.285    optimization parameters                                  
                                                                                                    
   Description                                                                                      
     l     E      TYP  RCUT    TYP  RCUT                                                            
     1   .000     23  2.000                                                                         
     1  -.400     23  2.000                                                                         
     2   .000     23  2.200                                                                         
     2   .000     23  2.200                                                                         
     0   .000     23  2.000                                                                         
     0  2.000     23  2.000                                                                         
     3   .000      7   .000                                                                         
  local pseudopotential read in
  partial core-charges read in
  atomic valenz-charges read in
  non local Contribution for L=           1  read in
    real space projection operators read in
  non local Contribution for L=           1  read in
    real space projection operators read in
  non local Contribution for L=           2  read in
    real space projection operators read in
  non local Contribution for L=           2  read in
    real space projection operators read in
  non local Contribution for L=           0  read in
    real space projection operators read in
  non local Contribution for L=           0  read in
    real space projection operators read in
    PAW grid and wavefunctions read in
 
   number of l-projection  operators is LMAX  =           6
   number of lm-projection operators is LMMAX =          18
 
 POTCAR:   PAW_PBE Se 06Sep2000                   
   VRHFIN =Se: s2p4                                                                                 
   LEXCH  = PE                                                                                      
   EATOM  =   256.9644 eV,   18.8864 Ry                                                             
                                                                                                    
   TITEL  = PAW_PBE Se 06Sep2000                                                                    
   LULTRA =        F    use ultrasoft PP ?                                                          
   IUNSCR =        1    unscreen: 0-lin 1-nonlin 2-no                                               
   RPACOR =    1.900    partial core radius                                                         
   POMASS =   78.960; ZVAL   =    6.000    mass and valenz                                          
   RCORE  =    2.100    outmost cutoff radius                                                       
   RWIGS  =    2.200; RWIGS  =    1.164    wigner-seitz radius (au A)                               
   ENMAX  =  211.534; ENMIN  =  158.651 eV                                                          
   ICORE  =        3    local potential                                                             
   LCOR   =        T    correct aug charges                                                         
   LPAW   =        T    paw PP                                                                      
   EAUG   =  446.842                                                                                
   DEXC   =    -.031                                                                                
   RMAX   =    3.170    core radius for proj-oper                                                   
   RAUG   =    1.300    factor for augmentation sphere                                              
   RDEP   =    2.177    radius for radial grids                                                     
   QCUT   =   -3.943; QGAM   =    7.886    optimization parameters                                  
                                                                                                    
   Description                                                                                      
     l     E      TYP  RCUT    TYP  RCUT                                                            
     0   .000     23  2.100                                                                         
     0   .000     23  2.100                                                                         
     1   .000     23  2.100                                                                         
     1   .000     23  2.100                                                                         
     2   .000     23  2.100                                                                         
     3  -.100      7  2.100                                                                         
  local pseudopotential read in
  partial core-charges read in
  atomic valenz-charges read in
  non local Contribution for L=           0  read in
    real space projection operators read in
  non local Contribution for L=           0  read in
    real space projection operators read in
  non local Contribution for L=           1  read in
    real space projection operators read in
  non local Contribution for L=           1  read in
    real space projection operators read in
  non local Contribution for L=           2  read in
    real space projection operators read in
    PAW grid and wavefunctions read in
 
   number of l-projection  operators is LMAX  =           5
   number of lm-projection operators is LMMAX =          13
 
 Optimization of the real space projectors (new method)

 maximal supplied QI-value         = 17.01
 optimisation between [QCUT,QGAM] = [ 11.91, 23.98] = [ 39.69,161.04] Ry 
 Optimized for a Real-space Cutoff    1.45 Angstroem

   l    n(q)    QCUT    max X(q) W(low)/X(q) W(high)/X(q)  e(spline) 
   1     10    11.905     4.550    0.27E-05    0.11E-05    0.28E-07
   1     10    11.905     5.234    0.10E-04    0.61E-04    0.17E-06
   2      9    11.905     3.960    0.19E-04    0.73E-05    0.50E-07
   2      9    11.905    29.565    0.24E-03    0.51E-04    0.27E-06
   0     10    11.905    23.582    0.17E-04    0.10E-05    0.14E-07
   0     10    11.905    39.747    0.23E-04    0.68E-05    0.74E-07
 Optimization of the real space projectors (new method)

 maximal supplied QI-value         = 17.95
 optimisation between [QCUT,QGAM] = [ 11.85, 23.88] = [ 39.31,159.64] Ry 
 Optimized for a Real-space Cutoff    1.18 Angstroem

   l    n(q)    QCUT    max X(q) W(low)/X(q) W(high)/X(q)  e(spline) 
   0      8    11.849     6.499    0.17E-04    0.94E-05    0.89E-08
   0      8    11.849    52.623    0.21E-03    0.78E-04    0.81E-07
   1      8    11.849     4.229    0.79E-04    0.83E-04    0.23E-07
   1      8    11.849    29.991    0.12E-03    0.43E-03    0.14E-06
   2      7    11.849     3.719    0.22E-03    0.64E-04    0.38E-07
 PAW_PBE Fe_pv 06Sep2000                :
 energy of atom  1       EATOM=-2456.8974
 kinetic energy error for atom=    0.0060 (will be added to EATOM!!)
 PAW_PBE Se 06Sep2000                   :
 energy of atom  2       EATOM= -256.9644
 kinetic energy error for atom=    0.0007 (will be added to EATOM!!)
 
 
 POSCAR: Fe8 Se8
  positions in direct lattice
  velocities in cartesian coordinates
 exchange correlation table for  LEXCH =        8
   RHO(1)=    0.500       N(1)  =     2000
   RHO(2)=  100.500       N(2)  =     4000
 


--------------------------------------------------------------------------------------------------------


 ion  position               nearest neighbor table
   1  0.000  0.000  0.000-  11 2.29  14 2.29   5 2.37   8 2.37   7 2.75   6 2.75
   2  0.000  0.500  0.000-  12 2.29  13 2.29   6 2.37   7 2.37   5 2.75   8 2.75
   3  0.500  0.000  0.000-   9 2.29  16 2.29   6 2.37   7 2.37   5 2.75   8 2.75
   4  0.500  0.500  0.000-  10 2.29  15 2.29   5 2.37   8 2.37   7 2.75   6 2.75
   5  0.250  0.250  0.000-   9 2.29  13 2.29   1 2.37   4 2.37   3 2.75   2 2.75
   6  0.250  0.750  0.000-  10 2.29  14 2.29   2 2.37   3 2.37   1 2.75   4 2.75
   7  0.750  0.250  0.000-  11 2.29  15 2.29   2 2.37   3 2.37   1 2.75   4 2.75
   8  0.750  0.750  0.000-  12 2.29  16 2.29   1 2.37   4 2.37   3 2.75   2 2.75
   9  0.375  0.125  0.664-   3 2.29   5 2.29
  10  0.375  0.625  0.664-   4 2.29   6 2.29
  11  0.875  0.125  0.664-   1 2.29   7 2.29
  12  0.875  0.625  0.664-   2 2.29   8 2.29
  13  0.125  0.375  0.336-   2 2.29   5 2.29
  14  0.125  0.875  0.336-   1 2.29   6 2.29
  15  0.625  0.375  0.336-   4 2.29   7 2.29
  16  0.625  0.875  0.336-   3 2.29   8 2.29
 
  LATTYP: Found a base centered orthorhombic cell.
 ALAT       =     9.4935804211
 B/A-ratio  =     1.1565929860
 C/A-ratio  =     0.5739547843
  
  Lattice vectors:
  
 A1 = (   4.7467902105,  -5.4901042635,   0.0000000000)
 A2 = (   4.7467902105,   5.4901042635,   0.0000000000)
 A3 = (   0.0000000000,   0.0000000000,   5.4488859027)


Analysis of symmetry for initial positions (statically):
=====================================================================
 Subroutine PRICEL returns following result:
 
  LATTYP: Found a base centered orthorhombic cell.
 ALAT       =     4.7467902105
 B/A-ratio  =     1.1565929860
 C/A-ratio  =     1.1479095686
  
  Lattice vectors:
  
 A1 = (   2.3733951053,  -2.7450521318,   0.0000000000)
 A2 = (   2.3733951053,   2.7450521318,   0.0000000000)
 A3 = (   0.0000000000,   0.0000000000,   5.4488859027)
 
   4 primitive cells build up your supercell.
 

 Routine SETGRP: Setting up the symmetry group for a 
 base centered orthorhombic supercell.


 Subroutine GETGRP returns: Found  8 space group operations
 (whereof  4 operations were pure point group operations)
 out of a pool of  8 trial point group operations.


The static configuration has the point symmetry C_2h.
 The point group associated with its full space group is D_2h.


Analysis of symmetry for dynamics (positions and initial velocities):
=====================================================================
 Subroutine PRICEL returns following result:
 
  LATTYP: Found a base centered orthorhombic cell.
 ALAT       =     4.7467902105
 B/A-ratio  =     1.1565929860
 C/A-ratio  =     1.1479095686
  
  Lattice vectors:
  
 A1 = (   2.3733951053,  -2.7450521318,   0.0000000000)
 A2 = (   2.3733951053,   2.7450521318,   0.0000000000)
 A3 = (   0.0000000000,   0.0000000000,   5.4488859027)
 
   4 primitive cells build up your supercell.
 

 Routine SETGRP: Setting up the symmetry group for a 
 base centered orthorhombic supercell.


 Subroutine GETGRP returns: Found  8 space group operations
 (whereof  4 operations were pure point group operations)
 out of a pool of  8 trial point group operations.


The dynamic configuration has the point symmetry C_2h.
 The point group associated with its full space group is D_2h.


Analysis of structural, dynamic, and magnetic symmetry:
=====================================================================
 Subroutine PRICEL returns following result:
 
  LATTYP: Found a base centered orthorhombic cell.
 ALAT       =     4.7467902105
 B/A-ratio  =     1.1565929860
 C/A-ratio  =     1.1479095686
  
  Lattice vectors:
  
 A1 = (   2.3733951053,  -2.7450521318,   0.0000000000)
 A2 = (   2.3733951053,   2.7450521318,   0.0000000000)
 A3 = (   0.0000000000,   0.0000000000,   5.4488859027)
 
   4 primitive cells build up your supercell.
 

 Routine SETGRP: Setting up the symmetry group for a 
 base centered orthorhombic supercell.


 Subroutine GETGRP returns: Found  8 space group operations
 (whereof  4 operations were pure point group operations)
 out of a pool of  8 trial point group operations.


The overall configuration has the point symmetry C_2h.
 The point group associated with its full space group is D_2h.


 Subroutine INISYM returns: Found  8 space group operations
 (whereof  4 operations are pure point group operations),
 and found     4 'primitive' translations


----------------------------------------------------------------------------------------

                                     Primitive cell                                     

  volume of cell :      71.0000

  direct lattice vectors                    reciprocal lattice vectors
     2.373395105 -2.745052132  0.000000000     0.210668674 -0.182145903  0.000000000
     2.373395105  2.745052132  0.000000000     0.210668674  0.182145903  0.000000000
     0.000000000  0.000000000  5.448885903     0.000000000  0.000000000  0.183523755

  length of vectors
     3.628817374  3.628817374  5.448885903     0.278493124  0.278493124  0.183523755

  position of ions in fractional coordinates (direct lattice)
     0.000000000  0.000000000  0.000000000
     0.500000000  0.500000000  0.000000000
     0.750000000  0.250000000  0.664183627
     0.250000000  0.750000000  0.335816373

  ion indices of the primitive-cell ions
   primitive index   ion index
                 1           1
                 2           5
                 3          11
                 4          14

----------------------------------------------------------------------------------------

 
 
 KPOINTS: KPOINTS                                 

Automatic generation of k-mesh.
 Grid dimensions read from file:
 generate k-points for:    7    7    9

 Generating k-lattice:

  Cartesian coordinates                     Fractional coordinates (reciprocal lattice)
     0.015047762 -0.013010422  0.000000000     0.142857143  0.000000000  0.000000000
     0.015047762  0.013010422  0.000000000     0.000000000  0.142857143  0.000000000
     0.000000000  0.000000000  0.020391528     0.000000000  0.000000000  0.111111111

  Length of vectors
     0.019892366  0.019892366  0.020391528

  Shift w.r.t. Gamma in fractional coordinates (k-lattice)
     0.000000000  0.000000000  0.000000000

 
 Subroutine IBZKPT returns following result:
 ===========================================
 
 Found     80 irreducible k-points:
 
 Following reciprocal coordinates:
            Coordinates               Weight
  0.000000  0.000000  0.000000      1.000000
  0.142857  0.000000  0.000000      4.000000
  0.285714  0.000000  0.000000      4.000000
  0.428571  0.000000  0.000000      4.000000
  0.142857  0.142857  0.000000      2.000000
  0.285714  0.142857  0.000000      4.000000
  0.428571  0.142857  0.000000      4.000000
 -0.428571  0.142857  0.000000      4.000000
 -0.285714  0.142857  0.000000      4.000000
 -0.142857  0.142857  0.000000      2.000000
  0.285714  0.285714  0.000000      2.000000
  0.428571  0.285714  0.000000      4.000000
 -0.428571  0.285714  0.000000      4.000000
 -0.285714  0.285714  0.000000      2.000000
  0.428571  0.428571  0.000000      2.000000
 -0.428571  0.428571  0.000000      2.000000
  0.000000  0.000000  0.111111      2.000000
  0.142857  0.000000  0.111111      8.000000
  0.285714  0.000000  0.111111      8.000000
  0.428571  0.000000  0.111111      8.000000
  0.142857  0.142857  0.111111      4.000000
  0.285714  0.142857  0.111111      8.000000
  0.428571  0.142857  0.111111      8.000000
 -0.428571  0.142857  0.111111      8.000000
 -0.285714  0.142857  0.111111      8.000000
 -0.142857  0.142857  0.111111      4.000000
  0.285714  0.285714  0.111111      4.000000
  0.428571  0.285714  0.111111      8.000000
 -0.428571  0.285714  0.111111      8.000000
 -0.285714  0.285714  0.111111      4.000000
  0.428571  0.428571  0.111111      4.000000
 -0.428571  0.428571  0.111111      4.000000
  0.000000  0.000000  0.222222      2.000000
  0.142857  0.000000  0.222222      8.000000
  0.285714  0.000000  0.222222      8.000000
  0.428571  0.000000  0.222222      8.000000
  0.142857  0.142857  0.222222      4.000000
  0.285714  0.142857  0.222222      8.000000
  0.428571  0.142857  0.222222      8.000000
 -0.428571  0.142857  0.222222      8.000000
 -0.285714  0.142857  0.222222      8.000000
 -0.142857  0.142857  0.222222      4.000000
  0.285714  0.285714  0.222222      4.000000
  0.428571  0.285714  0.222222      8.000000
 -0.428571  0.285714  0.222222      8.000000
 -0.285714  0.285714  0.222222      4.000000
  0.428571  0.428571  0.222222      4.000000
 -0.428571  0.428571  0.222222      4.000000
  0.000000  0.000000  0.333333      2.000000
  0.142857  0.000000  0.333333      8.000000
  0.285714  0.000000  0.333333      8.000000
  0.428571  0.000000  0.333333      8.000000
  0.142857  0.142857  0.333333      4.000000
  0.285714  0.142857  0.333333      8.000000
  0.428571  0.142857  0.333333      8.000000
 -0.428571  0.142857  0.333333      8.000000
 -0.285714  0.142857  0.333333      8.000000
 -0.142857  0.142857  0.333333      4.000000
  0.285714  0.285714  0.333333      4.000000
  0.428571  0.285714  0.333333      8.000000
 -0.428571  0.285714  0.333333      8.000000
 -0.285714  0.285714  0.333333      4.000000
  0.428571  0.428571  0.333333      4.000000
 -0.428571  0.428571  0.333333      4.000000
  0.000000  0.000000  0.444444      2.000000
  0.142857  0.000000  0.444444      8.000000
  0.285714  0.000000  0.444444      8.000000
  0.428571  0.000000  0.444444      8.000000
  0.142857  0.142857  0.444444      4.000000
  0.285714  0.142857  0.444444      8.000000
  0.428571  0.142857  0.444444      8.000000
 -0.428571  0.142857  0.444444      8.000000
 -0.285714  0.142857  0.444444      8.000000
 -0.142857  0.142857  0.444444      4.000000
  0.285714  0.285714  0.444444      4.000000
  0.428571  0.285714  0.444444      8.000000
 -0.428571  0.285714  0.444444      8.000000
 -0.285714  0.285714  0.444444      4.000000
  0.428571  0.428571  0.444444      4.000000
 -0.428571  0.428571  0.444444      4.000000
 
 Following cartesian coordinates:
            Coordinates               Weight
  0.000000  0.000000  0.000000      1.000000
  0.015048 -0.013010  0.000000      4.000000
  0.030096 -0.026021  0.000000      4.000000
  0.045143 -0.039031  0.000000      4.000000
  0.030096  0.000000  0.000000      2.000000
  0.045143 -0.013010  0.000000      4.000000
  0.060191 -0.026021  0.000000      4.000000
 -0.030096  0.052042  0.000000      4.000000
 -0.015048  0.039031  0.000000      4.000000
  0.000000  0.026021  0.000000      2.000000
  0.060191  0.000000  0.000000      2.000000
  0.075239 -0.013010  0.000000      4.000000
 -0.015048  0.065052  0.000000      4.000000
 -0.000000  0.052042  0.000000      2.000000
  0.090287  0.000000  0.000000      2.000000
  0.000000  0.078063  0.000000      2.000000
  0.000000  0.000000  0.020392      2.000000
  0.015048 -0.013010  0.020392      8.000000
  0.030096 -0.026021  0.020392      8.000000
  0.045143 -0.039031  0.020392      8.000000
  0.030096  0.000000  0.020392      4.000000
  0.045143 -0.013010  0.020392      8.000000
  0.060191 -0.026021  0.020392      8.000000
 -0.030096  0.052042  0.020392      8.000000
 -0.015048  0.039031  0.020392      8.000000
  0.000000  0.026021  0.020392      4.000000
  0.060191  0.000000  0.020392      4.000000
  0.075239 -0.013010  0.020392      8.000000
 -0.015048  0.065052  0.020392      8.000000
 -0.000000  0.052042  0.020392      4.000000
  0.090287  0.000000  0.020392      4.000000
  0.000000  0.078063  0.020392      4.000000
  0.000000  0.000000  0.040783      2.000000
  0.015048 -0.013010  0.040783      8.000000
  0.030096 -0.026021  0.040783      8.000000
  0.045143 -0.039031  0.040783      8.000000
  0.030096  0.000000  0.040783      4.000000
  0.045143 -0.013010  0.040783      8.000000
  0.060191 -0.026021  0.040783      8.000000
 -0.030096  0.052042  0.040783      8.000000
 -0.015048  0.039031  0.040783      8.000000
  0.000000  0.026021  0.040783      4.000000
  0.060191  0.000000  0.040783      4.000000
  0.075239 -0.013010  0.040783      8.000000
 -0.015048  0.065052  0.040783      8.000000
 -0.000000  0.052042  0.040783      4.000000
  0.090287  0.000000  0.040783      4.000000
  0.000000  0.078063  0.040783      4.000000
  0.000000  0.000000  0.061175      2.000000
  0.015048 -0.013010  0.061175      8.000000
  0.030096 -0.026021  0.061175      8.000000
  0.045143 -0.039031  0.061175      8.000000
  0.030096  0.000000  0.061175      4.000000
  0.045143 -0.013010  0.061175      8.000000
  0.060191 -0.026021  0.061175      8.000000
 -0.030096  0.052042  0.061175      8.000000
 -0.015048  0.039031  0.061175      8.000000
  0.000000  0.026021  0.061175      4.000000
  0.060191  0.000000  0.061175      4.000000
  0.075239 -0.013010  0.061175      8.000000
 -0.015048  0.065052  0.061175      8.000000
 -0.000000  0.052042  0.061175      4.000000
  0.090287  0.000000  0.061175      4.000000
  0.000000  0.078063  0.061175      4.000000
  0.000000  0.000000  0.081566      2.000000
  0.015048 -0.013010  0.081566      8.000000
  0.030096 -0.026021  0.081566      8.000000
  0.045143 -0.039031  0.081566      8.000000
  0.030096  0.000000  0.081566      4.000000
  0.045143 -0.013010  0.081566      8.000000
  0.060191 -0.026021  0.081566      8.000000
 -0.030096  0.052042  0.081566      8.000000
 -0.015048  0.039031  0.081566      8.000000
  0.000000  0.026021  0.081566      4.000000
  0.060191  0.000000  0.081566      4.000000
  0.075239 -0.013010  0.081566      8.000000
 -0.015048  0.065052  0.081566      8.000000
 -0.000000  0.052042  0.081566      4.000000
  0.090287  0.000000  0.081566      4.000000
  0.000000  0.078063  0.081566      4.000000
 


--------------------------------------------------------------------------------------------------------




 Dimension of arrays:
   k-points           NKPTS =     80   k-points in BZ     NKDIM =     80   number of bands    NBANDS=    100
   number of dos      NEDOS =    301   number of ions     NIONS =     16
   non local maximal  LDIM  =      6   non local SUM 2l+1 LMDIM =     18
   total plane-waves  NPLWV = 131712
   max r-space proj   IRMAX =   5947   max aug-charges    IRDMAX=  20422
   dimension x,y,z NGX =    56 NGY =   56 NGZ =   42
   dimension x,y,z NGXF=   112 NGYF=  112 NGZF=   84
   support grid    NGXF=   112 NGYF=  112 NGZF=   84
   ions per type =               8   8
   NGX,Y,Z   is equivalent  to a cutoff of  12.83, 12.83, 12.81 a.u.
   NGXF,Y,Z  is equivalent  to a cutoff of  25.66, 25.66, 25.63 a.u.

 SYSTEM =  unknown system                          
 POSCAR =  Fe8 Se8                                 

 Startparameter for this run:
   NWRITE =      2    write-flag & timer
   PREC   = accura    normal or accurate (medium, high low for compatibility)
   ISTART =      0    job   : 0-new  1-cont  2-samecut
   ICHARG =      2    charge: 1-file 2-atom 10-const
   ISPIN  =      2    spin polarized calculation?
   LNONCOLLINEAR =      F non collinear calculations
   LSORBIT =      F    spin-orbit coupling
   INIWAV =      1    electr: 0-lowe 1-rand  2-diag
   LASPH  =      T    aspherical Exc in radial PAW
 Electronic Relaxation 1
   ENCUT  =  550.0 eV  40.42 Ry    6.36 a.u.  13.88 13.88 10.42*2*pi/ulx,y,z
   ENINI  =  550.0     initial cutoff
   ENAUG  =  578.3 eV  augmentation charge cutoff
   NELM   =    100;   NELMIN=  2; NELMDL=  0     # of ELM steps 
   EDIFF  = 0.2E-03   stopping-criterion for ELM
   LREAL  =      T    real-space projection
   NLSPLINE    = F    spline interpolate recip. space projectors
   LCOMPAT=      F    compatible to vasp.4.4
   GGA_COMPAT  = T    GGA compatible to vasp.4.4-vasp.4.6
   LMAXPAW     = -100 max onsite density
   LMAXMIX     =    4 max onsite mixed and CHGCAR
   VOSKOWN=      0    Vosko Wilk Nusair interpolation
   ROPT   =   -0.00025  -0.00025
 Ionic relaxation
   EDIFFG = 0.2E-02   stopping-criterion for IOM
   NSW    =     99    number of steps for IOM
   NBLOCK =      1;   KBLOCK =     99    inner block; outer block 
   IBRION =      2    ionic relax: 0-MD 1-quasi-New 2-CG
   NFREE  =      1    steps in history (QN), initial steepest desc. (CG)
   ISIF   =      4    stress and relaxation
   IWAVPR =     11    prediction:  0-non 1-charg 2-wave 3-comb
   ISYM   =      2    0-nonsym 1-usesym 2-fastsym
   LCORR  =      T    Harris-Foulkes like correction to forces

   POTIM  = 0.5000    time-step for ionic-motion
   TEIN   =    0.0    initial temperature
   TEBEG  =    0.0;   TEEND  =   0.0 temperature during run
   SMASS  =  -3.00    Nose mass-parameter (am)
   estimated Nose-frequenzy (Omega)   =  0.10E-29 period in steps = 0.13E+47 mass=  -0.120E-26a.u.
   SCALEE = 1.0000    scale energy and forces
   NPACO  =    256;   APACO  = 10.0  distance and # of slots for P.C.
   PSTRESS=    0.0 pullay stress

  Mass of Ions in am
   POMASS =  55.85 78.96
  Ionic Valenz
   ZVAL   =  14.00  6.00
  Atomic Wigner-Seitz radii
   RWIGS  =  -1.00 -1.00
  virtual crystal weights 
   VCA    =   1.00  1.00
   NELECT =     160.0000    total number of electrons
   NUPDOWN=      -1.0000    fix difference up-down

 DOS related values:
   EMIN   =  10.00;   EMAX   =-10.00  energy-range for DOS
   EFERMI =   0.00;   METHOD = LEGACY      
   ISMEAR =     0;   SIGMA  =   0.05  broadening in eV -4-tet -1-fermi 0-gaus

 Electronic relaxation 2 (details)
   IALGO  =     68    algorithm
   LDIAG  =      T    sub-space diagonalisation (order eigenvalues)
   LSUBROT=      F    optimize rotation matrix (better conditioning)
   TURBO    =      0    0=normal 1=particle mesh
   IRESTART =      0    0=no restart 2=restart with 2 vectors
   NREBOOT  =      0    no. of reboots
   NMIN     =      0    reboot dimension
   EREF     =   0.00    reference energy to select bands
   IMIX   =      4    mixing-type and parameters
     AMIX     =   0.40;   BMIX     =  1.00
     AMIX_MAG =   1.60;   BMIX_MAG =  1.00
     AMIN     =   0.10
     WC   =   100.;   INIMIX=   1;  MIXPRE=   1;  MAXMIX= -45

 Intra band minimization:
   WEIMIN = 0.0010     energy-eigenvalue tresh-hold
   EBREAK =  0.50E-06  absolut break condition
   DEPER  =   0.30     relativ break condition  

   TIME   =   0.40     timestep for ELM

  volume/ion in A,a.u.               =      17.75       119.78
  Fermi-wavevector in a.u.,A,eV,Ry     =   1.352100  2.555098 24.873811  1.828174
  Thomas-Fermi vector in A             =   2.479467
 
 Write flags
   LWAVE        =      F    write WAVECAR
   LDOWNSAMPLE  =      F    k-point downsampling of WAVECAR
   LCHARG       =      T    write CHGCAR
   LVTOT        =      F    write LOCPOT, total local potential
   LVHAR        =      F    write LOCPOT, Hartree potential only
   LELF         =      F    write electronic localiz. function (ELF)
   LORBIT       =     11    0 simple, 1 ext, 2 COOP (PROOUT), +10 PAW based schemes


 Dipole corrections
   LMONO  =      F    monopole corrections only (constant potential shift)
   LDIPOL =      F    correct potential (dipole corrections)
   IDIPOL =      0    1-x, 2-y, 3-z, 4-all directions 
   EPSILON=  1.0000000 bulk dielectric constant

 Exchange correlation treatment:
   GGA     =    --    GGA type
   LEXCH   =     8    internal setting for exchange type
   LIBXC   =     F    Libxc                    
   VOSKOWN =     0    Vosko Wilk Nusair interpolation
   LHFCALC =     F    Hartree Fock is set to
   LHFONE  =     F    Hartree Fock one center treatment
   AEXX    =    0.0000 exact exchange contribution

 Linear response parameters
   LEPSILON=     F    determine dielectric tensor
   LRPA    =     F    only Hartree local field effects (RPA)
   LNABLA  =     F    use nabla operator in PAW spheres
   LVEL    =     F    velocity operator in full k-point grid
   CSHIFT  =0.1000    complex shift for real part using Kramers Kronig
   OMEGAMAX=  -1.0    maximum frequency
   DEG_THRESHOLD= 0.2000000E-02 threshold for treating states as degnerate
   RTIME   =   -0.100 relaxation time in fs
  (WPLASMAI=    0.000 imaginary part of plasma frequency in eV, 0.658/RTIME)
   DFIELD  = 0.0000000 0.0000000 0.0000000 field for delta impulse in time
 
  Optional k-point grid parameters
   LKPOINTS_OPT  =     F    use optional k-point grid
   KPOINTS_OPT_MODE=     1    mode for optional k-point grid
 
 Orbital magnetization related:
   ORBITALMAG=     F  switch on orbital magnetization
   LCHIMAG   =     F  perturbation theory with respect to B field
   DQ        =  0.001000  dq finite difference perturbation B field
   LLRAUG    =     F  two centre corrections for induced B field
   LBONE     =     F  B-component reconstruction in AE one-centre
   LVGVCALC  =     T  calculate vGv susceptibility
   LVGVAPPL  =     F  apply vGv susceptibility instead of pGv for G=0

 Random number generation:
   RANDOM_GENERATOR = DEFAULT
   PCG_SEED         = not used


--------------------------------------------------------------------------------------------------------


 conjugate gradient relaxation of ions
 charge density and potential will be updated during run
 spin polarized calculation
 RMM-DIIS sequential band-by-band and
  variant of blocked Davidson during initial phase
 perform sub-space diagonalisation
    before iterative eigenvector-optimisation
 modified Broyden-mixing scheme, WC =      100.0
 initial mixing is a Kerker type mixing with AMIX =  0.4000 and BMIX =      1.0000
 Hartree-type preconditioning will be used
 using additional bands           20
 real space projection scheme for non local part
 use partial core corrections
 calculate Harris-corrections to forces 
   (improved forces if not selfconsistent)
 use gradient corrections 
 use of overlap-Matrix (Vanderbilt PP)
 Gauss-broadening in eV      SIGMA  =   0.05


--------------------------------------------------------------------------------------------------------


  energy-cutoff  :      550.00
  volume of cell :      284.00
      direct lattice vectors                 reciprocal lattice vectors
     4.746790211 -5.490104264  0.000000000     0.105334337 -0.091072952  0.000000000
     4.746790211  5.490104264  0.000000000     0.105334337  0.091072952  0.000000000
     0.000000000  0.000000000  5.448885903     0.000000000  0.000000000  0.183523755

  length of vectors
     7.257634747  7.257634747  5.448885903     0.139246562  0.139246562  0.183523755


 
 k-points in units of 2pi/SCALE and weight: KPOINTS                                 
   0.00000000  0.00000000  0.00000000       0.002
   0.01504776 -0.01301042  0.00000000       0.009
   0.03009552 -0.02602084  0.00000000       0.009
   0.04514329 -0.03903126  0.00000000       0.009
   0.03009552 -0.00000000  0.00000000       0.005
   0.04514329 -0.01301042  0.00000000       0.009
   0.06019105 -0.02602084  0.00000000       0.009
  -0.03009552  0.05204169  0.00000000       0.009
  -0.01504776  0.03903126  0.00000000       0.009
   0.00000000  0.02602084  0.00000000       0.005
   0.06019105 -0.00000000  0.00000000       0.005
   0.07523881 -0.01301042  0.00000000       0.009
  -0.01504776  0.06505211  0.00000000       0.009
   0.00000000  0.05204169  0.00000000       0.005
   0.09028657 -0.00000000  0.00000000       0.005
  -0.00000000  0.07806253  0.00000000       0.005
   0.00000000  0.00000000  0.02039153       0.005
   0.01504776 -0.01301042  0.02039153       0.018
   0.03009552 -0.02602084  0.02039153       0.018
   0.04514329 -0.03903126  0.02039153       0.018
   0.03009552 -0.00000000  0.02039153       0.009
   0.04514329 -0.01301042  0.02039153       0.018
   0.06019105 -0.02602084  0.02039153       0.018
  -0.03009552  0.05204169  0.02039153       0.018
  -0.01504776  0.03903126  0.02039153       0.018
   0.00000000  0.02602084  0.02039153       0.009
   0.06019105 -0.00000000  0.02039153       0.009
   0.07523881 -0.01301042  0.02039153       0.018
  -0.01504776  0.06505211  0.02039153       0.018
   0.00000000  0.05204169  0.02039153       0.009
   0.09028657 -0.00000000  0.02039153       0.009
  -0.00000000  0.07806253  0.02039153       0.009
   0.00000000  0.00000000  0.04078306       0.005
   0.01504776 -0.01301042  0.04078306       0.018
   0.03009552 -0.02602084  0.04078306       0.018
   0.04514329 -0.03903126  0.04078306       0.018
   0.03009552 -0.00000000  0.04078306       0.009
   0.04514329 -0.01301042  0.04078306       0.018
   0.06019105 -0.02602084  0.04078306       0.018
  -0.03009552  0.05204169  0.04078306       0.018
  -0.01504776  0.03903126  0.04078306       0.018
   0.00000000  0.02602084  0.04078306       0.009
   0.06019105 -0.00000000  0.04078306       0.009
   0.07523881 -0.01301042  0.04078306       0.018
  -0.01504776  0.06505211  0.04078306       0.018
   0.00000000  0.05204169  0.04078306       0.009
   0.09028657 -0.00000000  0.04078306       0.009
  -0.00000000  0.07806253  0.04078306       0.009
   0.00000000  0.00000000  0.06117458       0.005
   0.01504776 -0.01301042  0.06117458       0.018
   0.03009552 -0.02602084  0.06117458       0.018
   0.04514329 -0.03903126  0.06117458       0.018
   0.03009552 -0.00000000  0.06117458       0.009
   0.04514329 -0.01301042  0.06117458       0.018
   0.06019105 -0.02602084  0.06117458       0.018
  -0.03009552  0.05204169  0.06117458       0.018
  -0.01504776  0.03903126  0.06117458       0.018
   0.00000000  0.02602084  0.06117458       0.009
   0.06019105 -0.00000000  0.06117458       0.009
   0.07523881 -0.01301042  0.06117458       0.018
  -0.01504776  0.06505211  0.06117458       0.018
   0.00000000  0.05204169  0.06117458       0.009
   0.09028657 -0.00000000  0.06117458       0.009
  -0.00000000  0.07806253  0.06117458       0.009
   0.00000000  0.00000000  0.08156611       0.005
   0.01504776 -0.01301042  0.08156611       0.018
   0.03009552 -0.02602084  0.08156611       0.018
   0.04514329 -0.03903126  0.08156611       0.018
   0.03009552 -0.00000000  0.08156611       0.009
   0.04514329 -0.01301042  0.08156611       0.018
   0.06019105 -0.02602084  0.08156611       0.018
  -0.03009552  0.05204169  0.08156611       0.018
  -0.01504776  0.03903126  0.08156611       0.018
   0.00000000  0.02602084  0.08156611       0.009
   0.06019105 -0.00000000  0.08156611       0.009
   0.07523881 -0.01301042  0.08156611       0.018
  -0.01504776  0.06505211  0.08156611       0.018
   0.00000000  0.05204169  0.08156611       0.009
   0.09028657 -0.00000000  0.08156611       0.009
  -0.00000000  0.07806253  0.08156611       0.009
 
 k-points in reciprocal lattice and weights: KPOINTS                                 
   0.00000000  0.00000000  0.00000000       0.002
   0.14285714  0.00000000  0.00000000       0.009
   0.28571429  0.00000000  0.00000000       0.009
   0.42857143  0.00000000  0.00000000       0.009
   0.14285714  0.14285714  0.00000000       0.005
   0.28571429  0.14285714  0.00000000       0.009
   0.42857143  0.14285714  0.00000000       0.009
  -0.42857143  0.14285714  0.00000000       0.009
  -0.28571429  0.14285714  0.00000000       0.009
  -0.14285714  0.14285714  0.00000000       0.005
   0.28571429  0.28571429  0.00000000       0.005
   0.42857143  0.28571429  0.00000000       0.009
  -0.42857143  0.28571429  0.00000000       0.009
  -0.28571429  0.28571429  0.00000000       0.005
   0.42857143  0.42857143  0.00000000       0.005
  -0.42857143  0.42857143  0.00000000       0.005
   0.00000000  0.00000000  0.11111111       0.005
   0.14285714  0.00000000  0.11111111       0.018
   0.28571429  0.00000000  0.11111111       0.018
   0.42857143  0.00000000  0.11111111       0.018
   0.14285714  0.14285714  0.11111111       0.009
   0.28571429  0.14285714  0.11111111       0.018
   0.42857143  0.14285714  0.11111111       0.018
  -0.42857143  0.14285714  0.11111111       0.018
  -0.28571429  0.14285714  0.11111111       0.018
  -0.14285714  0.14285714  0.11111111       0.009
   0.28571429  0.28571429  0.11111111       0.009
   0.42857143  0.28571429  0.11111111       0.018
  -0.42857143  0.28571429  0.11111111       0.018
  -0.28571429  0.28571429  0.11111111       0.009
   0.42857143  0.42857143  0.11111111       0.009
  -0.42857143  0.42857143  0.11111111       0.009
   0.00000000  0.00000000  0.22222222       0.005
   0.14285714  0.00000000  0.22222222       0.018
   0.28571429  0.00000000  0.22222222       0.018
   0.42857143  0.00000000  0.22222222       0.018
   0.14285714  0.14285714  0.22222222       0.009
   0.28571429  0.14285714  0.22222222       0.018
   0.42857143  0.14285714  0.22222222       0.018
  -0.42857143  0.14285714  0.22222222       0.018
  -0.28571429  0.14285714  0.22222222       0.018
  -0.14285714  0.14285714  0.22222222       0.009
   0.28571429  0.28571429  0.22222222       0.009
   0.42857143  0.28571429  0.22222222       0.018
  -0.42857143  0.28571429  0.22222222       0.018
  -0.28571429  0.28571429  0.22222222       0.009
   0.42857143  0.42857143  0.22222222       0.009
  -0.42857143  0.42857143  0.22222222       0.009
   0.00000000  0.00000000  0.33333333       0.005
   0.14285714  0.00000000  0.33333333       0.018
   0.28571429  0.00000000  0.33333333       0.018
   0.42857143  0.00000000  0.33333333       0.018
   0.14285714  0.14285714  0.33333333       0.009
   0.28571429  0.14285714  0.33333333       0.018
   0.42857143  0.14285714  0.33333333       0.018
  -0.42857143  0.14285714  0.33333333       0.018
  -0.28571429  0.14285714  0.33333333       0.018
  -0.14285714  0.14285714  0.33333333       0.009
   0.28571429  0.28571429  0.33333333       0.009
   0.42857143  0.28571429  0.33333333       0.018
  -0.42857143  0.28571429  0.33333333       0.018
  -0.28571429  0.28571429  0.33333333       0.009
   0.42857143  0.42857143  0.33333333       0.009
  -0.42857143  0.42857143  0.33333333       0.009
   0.00000000  0.00000000  0.44444444       0.005
   0.14285714  0.00000000  0.44444444       0.018
   0.28571429  0.00000000  0.44444444       0.018
   0.42857143  0.00000000  0.44444444       0.018
   0.14285714  0.14285714  0.44444444       0.009
   0.28571429  0.14285714  0.44444444       0.018
   0.42857143  0.14285714  0.44444444       0.018
  -0.42857143  0.14285714  0.44444444       0.018
  -0.28571429  0.14285714  0.44444444       0.018
  -0.14285714  0.14285714  0.44444444       0.009
   0.28571429  0.28571429  0.44444444       0.009
   0.42857143  0.28571429  0.44444444       0.018
  -0.42857143  0.28571429  0.44444444       0.018
  -0.28571429  0.28571429  0.44444444       0.009
   0.42857143  0.42857143  0.44444444       0.009
  -0.42857143  0.42857143  0.44444444       0.009
 
 position of ions in fractional coordinates (direct lattice) 
   0.00000000  0.00000000  0.00000000
   0.00000000  0.50000000  0.00000000
   0.50000000  0.00000000  0.00000000
   0.50000000  0.50000000  0.00000000
   0.25000000  0.25000000  0.00000000
   0.25000000  0.75000000  0.00000000
   0.75000000  0.25000000  0.00000000
   0.75000000  0.75000000  0.00000000
   0.37500000  0.12500000  0.66418363
   0.37500000  0.62500000  0.66418363
   0.87500000  0.12500000  0.66418363
   0.87500000  0.62500000  0.66418363
   0.12500000  0.37500000  0.33581637
   0.12500000  0.87500000  0.33581637
   0.62500000  0.37500000  0.33581637
   0.62500000  0.87500000  0.33581637
 
 position of ions in cartesian coordinates  (Angst):
   0.00000000  0.00000000  0.00000000
   2.37339511  2.74505213  0.00000000
   2.37339511 -2.74505213  0.00000000
   4.74679021  0.00000000  0.00000000
   2.37339511  0.00000000  0.00000000
   4.74679021  2.74505213  0.00000000
   4.74679021 -2.74505213  0.00000000
   7.12018532 -0.00000000  0.00000000
   2.37339511 -1.37252607  3.61906080
   4.74679021  1.37252607  3.61906080
   4.74679021 -4.11757820  3.61906080
   7.12018532 -1.37252607  3.61906080
   2.37339511  1.37252607  1.82982510
   4.74679021  4.11757820  1.82982510
   4.74679021 -1.37252607  1.82982510
   7.12018532  1.37252607  1.82982510
 


--------------------------------------------------------------------------------------------------------


 k-point   1 :   0.0000 0.0000 0.0000  plane waves:    8283
 k-point   2 :   0.1429 0.0000 0.0000  plane waves:    8312
 k-point   3 :   0.2857 0.0000 0.0000  plane waves:    8324
 k-point   4 :   0.4286 0.0000 0.0000  plane waves:    8337
 k-point   5 :   0.1429 0.1429 0.0000  plane waves:    8350
 k-point   6 :   0.2857 0.1429 0.0000  plane waves:    8334
 k-point   7 :   0.4286 0.1429 0.0000  plane waves:    8331
 k-point   8 :  -0.4286 0.1429 0.0000  plane waves:    8325
 k-point   9 :  -0.2857 0.1429 0.0000  plane waves:    8312
 k-point  10 :  -0.1429 0.1429 0.0000  plane waves:    8303
 k-point  11 :   0.2857 0.2857 0.0000  plane waves:    8324
 k-point  12 :   0.4286 0.2857 0.0000  plane waves:    8344
 k-point  13 :  -0.4286 0.2857 0.0000  plane waves:    8336
 k-point  14 :  -0.2857 0.2857 0.0000  plane waves:    8319
 k-point  15 :   0.4286 0.4286 0.0000  plane waves:    8334
 k-point  16 :  -0.4286 0.4286 0.0000  plane waves:    8343
 k-point  17 :   0.0000 0.0000 0.1111  plane waves:    8331
 k-point  18 :   0.1429 0.0000 0.1111  plane waves:    8325
 k-point  19 :   0.2857 0.0000 0.1111  plane waves:    8330
 k-point  20 :   0.4286 0.0000 0.1111  plane waves:    8336
 k-point  21 :   0.1429 0.1429 0.1111  plane waves:    8334
 k-point  22 :   0.2857 0.1429 0.1111  plane waves:    8326
 k-point  23 :   0.4286 0.1429 0.1111  plane waves:    8332
 k-point  24 :  -0.4286 0.1429 0.1111  plane waves:    8326
 k-point  25 :  -0.2857 0.1429 0.1111  plane waves:    8319
 k-point  26 :  -0.1429 0.1429 0.1111  plane waves:    8312
 k-point  27 :   0.2857 0.2857 0.1111  plane waves:    8324
 k-point  28 :   0.4286 0.2857 0.1111  plane waves:    8325
 k-point  29 :  -0.4286 0.2857 0.1111  plane waves:    8325
 k-point  30 :  -0.2857 0.2857 0.1111  plane waves:    8320
 k-point  31 :   0.4286 0.4286 0.1111  plane waves:    8321
 k-point  32 :  -0.4286 0.4286 0.1111  plane waves:    8326
 k-point  33 :   0.0000 0.0000 0.2222  plane waves:    8321
 k-point  34 :   0.1429 0.0000 0.2222  plane waves:    8307
 k-point  35 :   0.2857 0.0000 0.2222  plane waves:    8315
 k-point  36 :   0.4286 0.0000 0.2222  plane waves:    8329
 k-point  37 :   0.1429 0.1429 0.2222  plane waves:    8313
 k-point  38 :   0.2857 0.1429 0.2222  plane waves:    8327
 k-point  39 :   0.4286 0.1429 0.2222  plane waves:    8319
 k-point  40 :  -0.4286 0.1429 0.2222  plane waves:    8315
 k-point  41 :  -0.2857 0.1429 0.2222  plane waves:    8317
 k-point  42 :  -0.1429 0.1429 0.2222  plane waves:    8328
 k-point  43 :   0.2857 0.2857 0.2222  plane waves:    8318
 k-point  44 :   0.4286 0.2857 0.2222  plane waves:    8328
 k-point  45 :  -0.4286 0.2857 0.2222  plane waves:    8327
 k-point  46 :  -0.2857 0.2857 0.2222  plane waves:    8325
 k-point  47 :   0.4286 0.4286 0.2222  plane waves:    8301
 k-point  48 :  -0.4286 0.4286 0.2222  plane waves:    8320
 k-point  49 :   0.0000 0.0000 0.3333  plane waves:    8309
 k-point  50 :   0.1429 0.0000 0.3333  plane waves:    8297
 k-point  51 :   0.2857 0.0000 0.3333  plane waves:    8305
 k-point  52 :   0.4286 0.0000 0.3333  plane waves:    8316
 k-point  53 :   0.1429 0.1429 0.3333  plane waves:    8303
 k-point  54 :   0.2857 0.1429 0.3333  plane waves:    8312
 k-point  55 :   0.4286 0.1429 0.3333  plane waves:    8323
 k-point  56 :  -0.4286 0.1429 0.3333  plane waves:    8318
 k-point  57 :  -0.2857 0.1429 0.3333  plane waves:    8322
 k-point  58 :  -0.1429 0.1429 0.3333  plane waves:    8296
 k-point  59 :   0.2857 0.2857 0.3333  plane waves:    8312
 k-point  60 :   0.4286 0.2857 0.3333  plane waves:    8313
 k-point  61 :  -0.4286 0.2857 0.3333  plane waves:    8320
 k-point  62 :  -0.2857 0.2857 0.3333  plane waves:    8335
 k-point  63 :   0.4286 0.4286 0.3333  plane waves:    8325
 k-point  64 :  -0.4286 0.4286 0.3333  plane waves:    8314
 k-point  65 :   0.0000 0.0000 0.4444  plane waves:    8278
 k-point  66 :   0.1429 0.0000 0.4444  plane waves:    8287
 k-point  67 :   0.2857 0.0000 0.4444  plane waves:    8309
 k-point  68 :   0.4286 0.0000 0.4444  plane waves:    8304
 k-point  69 :   0.1429 0.1429 0.4444  plane waves:    8266
 k-point  70 :   0.2857 0.1429 0.4444  plane waves:    8292
 k-point  71 :   0.4286 0.1429 0.4444  plane waves:    8304
 k-point  72 :  -0.4286 0.1429 0.4444  plane waves:    8301
 k-point  73 :  -0.2857 0.1429 0.4444  plane waves:    8312
 k-point  74 :  -0.1429 0.1429 0.4444  plane waves:    8307
 k-point  75 :   0.2857 0.2857 0.4444  plane waves:    8314
 k-point  76 :   0.4286 0.2857 0.4444  plane waves:    8326
 k-point  77 :  -0.4286 0.2857 0.4444  plane waves:    8317
 k-point  78 :  -0.2857 0.2857 0.4444  plane waves:    8322
 k-point  79 :   0.4286 0.4286 0.4444  plane waves:    8324
 k-point  80 :  -0.4286 0.4286 0.4444  plane waves:    8323

 maximum and minimum number of plane-waves per node :      8350     8266

 maximum number of plane-waves:      8350
 maximum index in each direction: 
   IXMAX=   14   IYMAX=   13   IZMAX=   10
   IXMIN=  -14   IYMIN=  -14   IZMIN=  -10


 serial   3D FFT for wavefunctions
 parallel 3D FFT for charge:
    minimum data exchange during FFTs selected (reduces bandwidth)


 total amount of memory used by VASP MPI-rank0   170197. kBytes
=======================================================================

   base      :      30000. kBytes
   nonlr-proj:      11667. kBytes
   fftplans  :       2458. kBytes
   grid      :      15239. kBytes
   one-center:        497. kBytes
   wavefun   :     110336. kBytes
 
     INWAV:  cpu time      0.0000: real time      0.0001
 Broyden mixing: mesh for mixing (old mesh)
   NGX = 27   NGY = 27   NGZ = 21
  (NGX  =112   NGY  =112   NGZ  = 84)
  gives a total of  15309 points

 initial charge density was supplied:
 charge density of overlapping atoms calculated
 number of electron     160.0000000 magnetization       0.0000000
 keeping initial charge density in first step


--------------------------------------------------------------------------------------------------------


 Maximum index for non-local projection operator         5729
 Maximum index for augmentation-charges         1134 (set IRDMAX)


--------------------------------------------------------------------------------------------------------


 First call to EWALD:  gamma=   0.270
 Maximum number of real-space cells 3x 3x 3
 Maximum number of reciprocal cells 3x 3x 2

    FEWALD:  cpu time      0.0014: real time      0.0014


--------------------------------------- Ionic step        1  -------------------------------------------




--------------------------------------- Iteration      1(   1)  ---------------------------------------


    POTLOK:  cpu time      0.0490: real time      0.0635
    SETDIJ:  cpu time      0.2735: real time      0.2744
     EDDAV:  cpu time     23.7213: real time     23.8105
       DOS:  cpu time      0.0021: real time      0.0022
    --------------------------------------------
      LOOP:  cpu time     24.0460: real time     24.1507

 eigenvalue-minimisations  : 33660
 total energy-change (2. order) : 0.2049660E+04  (-0.8891202E+04)
 number of electron     160.0000000 magnetization       0.0000000
 augmentation part      160.0000000 magnetization       0.0000000

 Free energy of the ion-electron system (eV)
  ---------------------------------------------------
  alpha Z        PSCENC =       894.19572282
  Ewald energy   TEWEN  =    -11965.56027039
  -Hartree energ DENC   =     -8587.07357108
  -exchange      EXHF   =         0.00000000
  -V(xc)+E(xc)   XCENC  =       567.47838320
  PAW double counting   =     15528.72920713   -16124.56849619
  entropy T*S    EENTRO =        -0.00745878
  eigenvalues    EBANDS =        25.62538107
  atomic energy  EATOM  =     21710.84102437
  Solvation  Ediel_sol  =         0.00000000
  ---------------------------------------------------
  free energy    TOTEN  =      2049.65992214 eV

  energy without entropy =     2049.66738092  energy(sigma->0) =     2049.66365153


--------------------------------------------------------------------------------------------------------




--------------------------------------- Iteration      1(   2)  ---------------------------------------


     EDDAV:  cpu time     23.1892: real time     23.2755
       DOS:  cpu time      0.0020: real time      0.0020
    --------------------------------------------
      LOOP:  cpu time     23.1911: real time     23.2775

 eigenvalue-minimisations  : 32000
 total energy-change (2. order) :-0.1929319E+04  (-0.1873494E+04)
 number of electron     160.0000000 magnetization       0.0000000
 augmentation part      160.0000000 magnetization       0.0000000

 Free energy of the ion-electron system (eV)
  ---------------------------------------------------
  alpha Z        PSCENC =       894.19572282
  Ewald energy   TEWEN  =    -11965.56027039
  -Hartree energ DENC   =     -8587.07357108
  -exchange      EXHF   =         0.00000000
  -V(xc)+E(xc)   XCENC  =       567.47838320
  PAW double counting   =     15528.72920713   -16124.56849619
  entropy T*S    EENTRO =        -0.01417881
  eigenvalues    EBANDS =     -1903.68657262
  atomic energy  EATOM  =     21710.84102437
  Solvation  Ediel_sol  =         0.00000000
  ---------------------------------------------------
  free energy    TOTEN  =       120.34124842 eV

  energy without entropy =      120.35542723  energy(sigma->0) =      120.34833783


--------------------------------------------------------------------------------------------------------




--------------------------------------- Iteration      1(   3)  ---------------------------------------


     EDDAV:  cpu time     29.1960: real time     29.3480
       DOS:  cpu time      0.0027: real time      0.0027
    --------------------------------------------
      LOOP:  cpu time     29.1987: real time     29.3507

 eigenvalue-minimisations  : 44800
 total energy-change (2. order) :-0.2041379E+03  (-0.1810010E+03)
 number of electron     160.0000000 magnetization       0.0000000
 augmentation part      160.0000000 magnetization       0.0000000

 Free energy of the ion-electron system (eV)
  ---------------------------------------------------
  alpha Z        PSCENC =       894.19572282
  Ewald energy   TEWEN  =    -11965.56027039
  -Hartree energ DENC   =     -8587.07357108
  -exchange      EXHF   =         0.00000000
  -V(xc)+E(xc)   XCENC  =       567.47838320
  PAW double counting   =     15528.72920713   -16124.56849619
  entropy T*S    EENTRO =        -0.02402340
  eigenvalues    EBANDS =     -2107.81462054
  atomic energy  EATOM  =     21710.84102437
  Solvation  Ediel_sol  =         0.00000000
  ---------------------------------------------------
  free energy    TOTEN  =       -83.79664409 eV

  energy without entropy =      -83.77262069  energy(sigma->0) =      -83.78463239


--------------------------------------------------------------------------------------------------------




--------------------------------------- Iteration      1(   4)  ---------------------------------------


     EDDAV:  cpu time     30.9134: real time     31.0289
       DOS:  cpu time      0.0024: real time      0.0024
    --------------------------------------------
      LOOP:  cpu time     30.9158: real time     31.0313

 eigenvalue-minimisations  : 46440
 total energy-change (2. order) :-0.1386885E+02  (-0.1348911E+02)
 number of electron     160.0000000 magnetization       0.0000000
 augmentation part      160.0000000 magnetization       0.0000000

 Free energy of the ion-electron system (eV)
  ---------------------------------------------------
  alpha Z        PSCENC =       894.19572282
  Ewald energy   TEWEN  =    -11965.56027039
  -Hartree energ DENC   =     -8587.07357108
  -exchange      EXHF   =         0.00000000
  -V(xc)+E(xc)   XCENC  =       567.47838320
  PAW double counting   =     15528.72920713   -16124.56849619
  entropy T*S    EENTRO =        -0.02510802
  eigenvalues    EBANDS =     -2121.68238527
  atomic energy  EATOM  =     21710.84102437
  Solvation  Ediel_sol  =         0.00000000
  ---------------------------------------------------
  free energy    TOTEN  =       -97.66549344 eV

  energy without entropy =      -97.64038542  energy(sigma->0) =      -97.65293943


--------------------------------------------------------------------------------------------------------




--------------------------------------- Iteration      1(   5)  ---------------------------------------


     EDDAV:  cpu time     29.5961: real time     29.7466
       DOS:  cpu time      0.0025: real time      0.0025
    CHARGE:  cpu time      0.6092: real time      0.6121
    MIXING:  cpu time      0.0013: real time      0.0013
    --------------------------------------------
      LOOP:  cpu time     30.2090: real time     30.3625

 eigenvalue-minimisations  : 45380
 total energy-change (2. order) :-0.3361584E+00  (-0.3352692E+00)
 number of electron     159.9999796 magnetization       0.0000000
 augmentation part       53.3333009 magnetization       0.0000000

 Broyden mixing:
  rms(total) = 0.26558E+01    rms(broyden)= 0.26556E+01
  rms(prec ) = 0.41822E+01
  weight for this iteration     100.00

 Free energy of the ion-electron system (eV)
  ---------------------------------------------------
  alpha Z        PSCENC =       894.19572282
  Ewald energy   TEWEN  =    -11965.56027039
  -Hartree energ DENC   =     -8587.07357108
  -exchange      EXHF   =         0.00000000
  -V(xc)+E(xc)   XCENC  =       567.47838320
  PAW double counting   =     15528.72920713   -16124.56849619
  entropy T*S    EENTRO =        -0.02505498
  eigenvalues    EBANDS =     -2122.01859667
  atomic energy  EATOM  =     21710.84102437
  Solvation  Ediel_sol  =         0.00000000
  ---------------------------------------------------
  free energy    TOTEN  =       -98.00165179 eV

  energy without entropy =      -97.97659682  energy(sigma->0) =      -97.98912431


--------------------------------------------------------------------------------------------------------




--------------------------------------- Iteration      1(   6)  ---------------------------------------


    POTLOK:  cpu time      0.0770: real time      0.0774
    SETDIJ:  cpu time      0.2721: real time      0.2729
    EDDIAG:  cpu time      3.5471: real time      3.5618
  RMM-DIIS:  cpu time     12.5977: real time     12.6386
    ORTHCH:  cpu time      0.5607: real time      0.5626
       DOS:  cpu time      0.0020: real time      0.0020
    CHARGE:  cpu time      0.6447: real time      0.6481
    MIXING:  cpu time      0.0014: real time      0.0014
    --------------------------------------------
      LOOP:  cpu time     17.7030: real time     17.7651

 eigenvalue-minimisations  : 32023
 total energy-change (2. order) :-0.1340644E+02  (-0.1530204E+02)
 number of electron     159.9999747 magnetization       0.0000000
 augmentation part       69.3565080 magnetization       0.0000000

 Broyden mixing:
  rms(total) = 0.47171E+01    rms(broyden)= 0.47169E+01
  rms(prec ) = 0.78466E+01
  weight for this iteration     100.00

 eigenvalues of (default mixing * dielectric matrix)
  average eigenvalue GAMMA=   0.3188
  0.3188

 Free energy of the ion-electron system (eV)
  ---------------------------------------------------
  alpha Z        PSCENC =       894.19572282
  Ewald energy   TEWEN  =    -11965.56027039
  -Hartree energ DENC   =     -8152.30048881
  -exchange      EXHF   =         0.00000000
  -V(xc)+E(xc)   XCENC  =       555.31884712
  PAW double counting   =     15052.80159480   -15617.81733317
  entropy T*S    EENTRO =        -0.02168300
  eigenvalues    EBANDS =     -2588.86550236
  atomic energy  EATOM  =     21710.84102437
  Solvation  Ediel_sol  =         0.00000000
  ---------------------------------------------------
  free energy    TOTEN  =      -111.40808863 eV

  energy without entropy =     -111.38640563  energy(sigma->0) =     -111.39724713


--------------------------------------------------------------------------------------------------------




--------------------------------------- Iteration      1(   7)  ---------------------------------------


    POTLOK:  cpu time      0.0413: real time      0.0415
    SETDIJ:  cpu time      0.2722: real time      0.2731
    EDDIAG:  cpu time      3.6894: real time      3.7032
  RMM-DIIS:  cpu time     12.7596: real time     12.8012
    ORTHCH:  cpu time      0.5640: real time      0.5658
       DOS:  cpu time      0.0020: real time      0.0020
    CHARGE:  cpu time      0.6022: real time      0.6044
    MIXING:  cpu time      0.0015: real time      0.0015
    --------------------------------------------
      LOOP:  cpu time     17.9321: real time     17.9926

 eigenvalue-minimisations  : 32006
 total energy-change (2. order) : 0.2099314E+02  (-0.3857680E+01)
 number of electron     159.9999786 magnetization      -0.0000000
 augmentation part       58.1272351 magnetization      -0.0000000

 Broyden mixing:
  rms(total) = 0.91355E+00    rms(broyden)= 0.91296E+00
  rms(prec ) = 0.10911E+01
  weight for this iteration     100.00

 eigenvalues of (default mixing * dielectric matrix)
  average eigenvalue GAMMA=   0.4498
  0.6264  0.2732

 Free energy of the ion-electron system (eV)
  ---------------------------------------------------
  alpha Z        PSCENC =       894.19572282
  Ewald energy   TEWEN  =    -11965.56027039
  -Hartree energ DENC   =     -8418.36252286
  -exchange      EXHF   =         0.00000000
  -V(xc)+E(xc)   XCENC  =       560.56354508
  PAW double counting   =     15526.58304277   -16123.12518835
  entropy T*S    EENTRO =        -0.02653329
  eigenvalues    EBANDS =     -2275.52376568
  atomic energy  EATOM  =     21710.84102437
  Solvation  Ediel_sol  =         0.00000000
  ---------------------------------------------------
  free energy    TOTEN  =       -90.41494554 eV

  energy without entropy =      -90.38841225  energy(sigma->0) =      -90.40167890


--------------------------------------------------------------------------------------------------------




--------------------------------------- Iteration      1(   8)  ---------------------------------------


    POTLOK:  cpu time      0.0474: real time      0.0891
    SETDIJ:  cpu time      0.2736: real time      0.2747
    EDDIAG:  cpu time      3.6888: real time      3.7016
  RMM-DIIS:  cpu time     15.5982: real time     15.6493
    ORTHCH:  cpu time      0.5545: real time      0.5564
       DOS:  cpu time      0.0020: real time      0.0020
    CHARGE:  cpu time      0.5866: real time      0.5895
    MIXING:  cpu time      0.0012: real time      0.0012
    --------------------------------------------
      LOOP:  cpu time     20.7523: real time     20.8638

 eigenvalue-minimisations  : 41241
 total energy-change (2. order) :-0.4599728E+00  (-0.2898669E+00)
 number of electron     159.9999787 magnetization       0.0000000
 augmentation part       58.5074064 magnetization       0.0000000

 Broyden mixing:
  rms(total) = 0.39978E+00    rms(broyden)= 0.39952E+00
  rms(prec ) = 0.53763E+00
  weight for this iteration     100.00

 eigenvalues of (default mixing * dielectric matrix)
  average eigenvalue GAMMA=   0.7147
  0.3187  0.9127  0.9127

 Free energy of the ion-electron system (eV)
  ---------------------------------------------------
  alpha Z        PSCENC =       894.19572282
  Ewald energy   TEWEN  =    -11965.56027039
  -Hartree energ DENC   =     -8407.49950734
  -exchange      EXHF   =         0.00000000
  -V(xc)+E(xc)   XCENC  =       560.90860188
  PAW double counting   =     15603.29602466   -16207.02667277
  entropy T*S    EENTRO =        -0.02554955
  eigenvalues    EBANDS =     -2280.00429202
  atomic energy  EATOM  =     21710.84102437
  Solvation  Ediel_sol  =         0.00000000
  ---------------------------------------------------
  free energy    TOTEN  =       -90.87491835 eV

  energy without entropy =      -90.84936880  energy(sigma->0) =      -90.86214358


--------------------------------------------------------------------------------------------------------




--------------------------------------- Iteration      1(   9)  ---------------------------------------


    POTLOK:  cpu time      0.0392: real time      0.0395
    SETDIJ:  cpu time      0.2726: real time      0.2733
    EDDIAG:  cpu time      3.4816: real time      3.4941
  RMM-DIIS:  cpu time     17.2236: real time     17.2801
    ORTHCH:  cpu time      0.5682: real time      0.5700
       DOS:  cpu time      0.0020: real time      0.0020
    CHARGE:  cpu time      0.5935: real time      0.5958
    MIXING:  cpu time      0.0013: real time      0.0013
    --------------------------------------------
      LOOP:  cpu time     22.1819: real time     22.2561

 eigenvalue-minimisations  : 46338
 total energy-change (2. order) :-0.4546104E-01  (-0.7312754E-01)
 number of electron     159.9999788 magnetization      -0.0000000
 augmentation part       58.7838746 magnetization      -0.0000000

 Broyden mixing:
  rms(total) = 0.21054E+00    rms(broyden)= 0.21029E+00
  rms(prec ) = 0.26581E+00
  weight for this iteration     100.00

 eigenvalues of (default mixing * dielectric matrix)
  average eigenvalue GAMMA=   0.9340
  0.3159  1.5262  1.1479  0.7460

 Free energy of the ion-electron system (eV)
  ---------------------------------------------------
  alpha Z        PSCENC =       894.19572282
  Ewald energy   TEWEN  =    -11965.56027039
  -Hartree energ DENC   =     -8394.11038578
  -exchange      EXHF   =         0.00000000
  -V(xc)+E(xc)   XCENC  =       561.04475107
  PAW double counting   =     15700.61542238   -16310.60599183
  entropy T*S    EENTRO =        -0.02512199
  eigenvalues    EBANDS =     -2287.31553004
  atomic energy  EATOM  =     21710.84102437
  Solvation  Ediel_sol  =         0.00000000
  ---------------------------------------------------
  free energy    TOTEN  =       -90.92037939 eV

  energy without entropy =      -90.89525740  energy(sigma->0) =      -90.90781839


--------------------------------------------------------------------------------------------------------




--------------------------------------- Iteration      1(  10)  ---------------------------------------


    POTLOK:  cpu time      0.0405: real time      0.0408
    SETDIJ:  cpu time      0.2774: real time      0.2788
    EDDIAG:  cpu time      3.6835: real time      3.6965
  RMM-DIIS:  cpu time     18.1971: real time     18.2548
    ORTHCH:  cpu time      0.5645: real time      0.5663
       DOS:  cpu time      0.0020: real time      0.0020
    CHARGE:  cpu time      0.6198: real time      0.6222
    MIXING:  cpu time      0.0018: real time      0.0018
    --------------------------------------------
      LOOP:  cpu time     23.3866: real time     23.4633

 eigenvalue-minimisations  : 45535
 total energy-change (2. order) :-0.6292491E-02  (-0.1930779E-01)
 number of electron     159.9999788 magnetization      -0.0000000
 augmentation part       58.9757929 magnetization      -0.0000000

 Broyden mixing:
  rms(total) = 0.88482E-01    rms(broyden)= 0.88291E-01
  rms(prec ) = 0.99574E-01
  weight for this iteration     100.00

 eigenvalues of (default mixing * dielectric matrix)
  average eigenvalue GAMMA=   1.0897
  2.4764  0.3157  0.9875  0.9875  0.6816

 Free energy of the ion-electron system (eV)
  ---------------------------------------------------
  alpha Z        PSCENC =       894.19572282
  Ewald energy   TEWEN  =    -11965.56027039
  -Hartree energ DENC   =     -8386.68709324
  -exchange      EXHF   =         0.00000000
  -V(xc)+E(xc)   XCENC  =       561.14975744
  PAW double counting   =     15783.57275778   -16398.03554325
  entropy T*S    EENTRO =        -0.02349407
  eigenvalues    EBANDS =     -2290.37953332
  atomic energy  EATOM  =     21710.84102437
  Solvation  Ediel_sol  =         0.00000000
  ---------------------------------------------------
  free energy    TOTEN  =       -90.92667188 eV

  energy without entropy =      -90.90317781  energy(sigma->0) =      -90.91492484


--------------------------------------------------------------------------------------------------------




--------------------------------------- Iteration      1(  11)  ---------------------------------------


    POTLOK:  cpu time      0.0409: real time      0.0827
    SETDIJ:  cpu time      0.2704: real time      0.2711
    EDDIAG:  cpu time      3.6984: real time      3.7111
  RMM-DIIS:  cpu time     15.9819: real time     16.0352
    ORTHCH:  cpu time      0.5590: real time      0.5608
       DOS:  cpu time      0.0020: real time      0.0020
    CHARGE:  cpu time      0.5890: real time      0.5916
    MIXING:  cpu time      0.0013: real time      0.0013
    --------------------------------------------
      LOOP:  cpu time     21.1429: real time     21.2559

 eigenvalue-minimisations  : 44087
 total energy-change (2. order) :-0.6251939E-02  (-0.3777365E-02)
 number of electron     159.9999788 magnetization      -0.0000000
 augmentation part       58.9829114 magnetization      -0.0000000

 Broyden mixing:
  rms(total) = 0.33661E-01    rms(broyden)= 0.33618E-01
  rms(prec ) = 0.39491E-01
  weight for this iteration     100.00

 eigenvalues of (default mixing * dielectric matrix)
  average eigenvalue GAMMA=   1.1253
  2.3607  1.6101  0.3157  0.9844  0.8349  0.6460

 Free energy of the ion-electron system (eV)
  ---------------------------------------------------
  alpha Z        PSCENC =       894.19572282
  Ewald energy   TEWEN  =    -11965.56027039
  -Hartree energ DENC   =     -8385.08211056
  -exchange      EXHF   =         0.00000000
  -V(xc)+E(xc)   XCENC  =       561.19514903
  PAW double counting   =     15825.22233216   -16441.42459558
  entropy T*S    EENTRO =        -0.02375103
  eigenvalues    EBANDS =     -2290.29642463
  atomic energy  EATOM  =     21710.84102437
  Solvation  Ediel_sol  =         0.00000000
  ---------------------------------------------------
  free energy    TOTEN  =       -90.93292382 eV

  energy without entropy =      -90.90917279  energy(sigma->0) =      -90.92104830


--------------------------------------------------------------------------------------------------------




--------------------------------------- Iteration      1(  12)  ---------------------------------------


    POTLOK:  cpu time      0.0901: real time      0.0905
    SETDIJ:  cpu time      0.2715: real time      0.2722
    EDDIAG:  cpu time      3.5434: real time      3.5560
  RMM-DIIS:  cpu time     16.3009: real time     16.3541
    ORTHCH:  cpu time      0.5653: real time      0.5670
       DOS:  cpu time      0.0020: real time      0.0020
    CHARGE:  cpu time      0.6125: real time      0.6152
    MIXING:  cpu time      0.0015: real time      0.0016
    --------------------------------------------
      LOOP:  cpu time     21.3873: real time     21.4584

 eigenvalue-minimisations  : 41798
 total energy-change (2. order) :-0.3022649E-02  (-0.8474372E-03)
 number of electron     159.9999788 magnetization      -0.0000000
 augmentation part       58.9693157 magnetization      -0.0000000

 Broyden mixing:
  rms(total) = 0.14084E-01    rms(broyden)= 0.14067E-01
  rms(prec ) = 0.17793E-01
  weight for this iteration     100.00

 eigenvalues of (default mixing * dielectric matrix)
  average eigenvalue GAMMA=   1.1127
  2.4372  1.6438  0.3158  1.0088  1.0088  0.7397  0.6346

 Free energy of the ion-electron system (eV)
  ---------------------------------------------------
  alpha Z        PSCENC =       894.19572282
  Ewald energy   TEWEN  =    -11965.56027039
  -Hartree energ DENC   =     -8385.89814563
  -exchange      EXHF   =         0.00000000
  -V(xc)+E(xc)   XCENC  =       561.19314382
  PAW double counting   =     15827.08392379   -16443.09844209
  entropy T*S    EENTRO =        -0.02423444
  eigenvalues    EBANDS =     -2289.66866871
  atomic energy  EATOM  =     21710.84102437
  Solvation  Ediel_sol  =         0.00000000
  ---------------------------------------------------
  free energy    TOTEN  =       -90.93594646 eV

  energy without entropy =      -90.91171203  energy(sigma->0) =      -90.92382925


--------------------------------------------------------------------------------------------------------




--------------------------------------- Iteration      1(  13)  ---------------------------------------


    POTLOK:  cpu time      0.0479: real time      0.0482
    SETDIJ:  cpu time      0.2729: real time      0.2737
    EDDIAG:  cpu time      3.6928: real time      3.7072
  RMM-DIIS:  cpu time     11.6473: real time     11.6842
    ORTHCH:  cpu time      0.5562: real time      0.5580
       DOS:  cpu time      0.0020: real time      0.0020
    --------------------------------------------
      LOOP:  cpu time     16.2191: real time     16.2732

 eigenvalue-minimisations  : 27860
 total energy-change (2. order) : 0.3789731E-04  (-0.1761479E-03)
 number of electron     159.9999788 magnetization      -0.0000000
 augmentation part       58.9693157 magnetization      -0.0000000

 Free energy of the ion-electron system (eV)
  ---------------------------------------------------
  alpha Z        PSCENC =       894.19572282
  Ewald energy   TEWEN  =    -11965.56027039
  -Hartree energ DENC   =     -8386.44392891
  -exchange      EXHF   =         0.00000000
  -V(xc)+E(xc)   XCENC  =       561.20869708
  PAW double counting   =     15825.88610712   -16441.67666070
  entropy T*S    EENTRO =        -0.02424569
  eigenvalues    EBANDS =     -2289.36235426
  atomic energy  EATOM  =     21710.84102437
  Solvation  Ediel_sol  =         0.00000000
  ---------------------------------------------------
  free energy    TOTEN  =       -90.93590857 eV

  energy without entropy =      -90.91166287  energy(sigma->0) =      -90.92378572


--------------------------------------------------------------------------------------------------------




 average (electrostatic) potential at core
  the test charge radii are     0.9500  1.0808
  (the norm of the test charge is              1.0000)
       1 -46.4101       2 -46.4101       3 -46.4101       4 -46.4101       5 -46.4101
       6 -46.4101       7 -46.4101       8 -46.4101       9 -54.2616      10 -54.2616
      11 -54.2616      12 -54.2616      13 -54.2616      14 -54.2616      15 -54.2616
      16 -54.2616
 
 
 
 E-fermi :   4.7032     XC(G=0): -10.9543     alpha+bet :-10.2455

 Fermi energy:         4.7031799533

 spin component 1

 k-point     1 :       0.0000    0.0000    0.0000
  band No.  band energies     occupation 
      1     -49.9386      1.00000
      2     -49.9232      1.00000
      3     -49.9232      1.00000
      4     -49.9112      1.00000
      5     -49.8810      1.00000
      6     -49.7852      1.00000
      7     -49.7723      1.00000
      8     -49.7723      1.00000
      9     -49.7575      1.00000
     10     -49.6883      1.00000
     11     -49.6883      1.00000
     12     -49.4920      1.00000
     13     -47.3125      1.00000
     14     -47.3089      1.00000
     15     -47.3089      1.00000
     16     -47.3070      1.00000
     17     -47.2961      1.00000
     18     -47.0845      1.00000
     19     -47.0845      1.00000
     20     -46.9558      1.00000
     21     -46.9552      1.00000
     22     -46.9552      1.00000
     23     -46.9507      1.00000
     24     -46.8685      1.00000
     25     -10.2450      1.00000
     26      -8.7482      1.00000
     27      -8.7482      1.00000
     28      -8.7340      1.00000
     29      -8.7340      1.00000
     30      -8.4413      1.00000
     31      -8.0827      1.00000
     32      -7.8230      1.00000
     33      -1.8144      1.00000
     34      -1.5928      1.00000
     35      -0.7289      1.00000
     36      -0.7289      1.00000
     37      -0.6454      1.00000
     38      -0.6454      1.00000
     39      -0.4283      1.00000
     40       0.0729      1.00000
     41       0.3767      1.00000
     42       0.4044      1.00000
     43       0.6345      1.00000
     44       0.6793      1.00000
     45       0.6793      1.00000
     46       0.6858      1.00000
     47       0.6858      1.00000
     48       0.9029      1.00000
     49       1.1006      1.00000
     50       1.2850      1.00000
     51       1.2850      1.00000
     52       1.7191      1.00000
     53       1.7191      1.00000
     54       1.7958      1.00000
     55       2.0257      1.00000
     56       2.1137      1.00000
     57       2.3140      1.00000
     58       2.3326      1.00000
     59       2.3326      1.00000
     60       2.3787      1.00000
     61       2.3787      1.00000
     62       2.4829      1.00000
     63       2.5205      1.00000
     64       2.6439      1.00000
     65       2.8803      1.00000
     66       2.8803      1.00000
     67       2.9977      1.00000
     68       3.1088      1.00000
     69       3.1894      1.00000
     70       3.2354      1.00000
     71       3.3665      1.00000
     72       3.3665      1.00000
     73       3.9297      1.00000
     74       3.9297      1.00000
     75       4.0555      1.00000
     76       4.0555      1.00000
     77       4.2271      1.00000
     78       4.2803      1.00000
     79       4.4395      1.00000
     80       4.4540      1.00000
     81       4.9962      0.00000
     82       5.1422      0.00000
     83       5.1422      0.00000
     84       5.1502      0.00000
     85       5.1503      0.00000
     86       5.2186      0.00000
     87       5.4751      0.00000
     88       5.4754      0.00000
     89       5.4923      0.00000
     90       5.5453      0.00000
     91       5.5454      0.00000
     92       5.8495      0.00000
     93       6.0923      0.00000
     94       6.1537      0.00000
     95       6.1685      0.00000
     96       6.2390      0.00000
     97       6.8747      0.00000
     98       6.9220      0.00000
     99       7.5577      0.00000
    100       8.1781      0.00000

 k-point     2 :       0.1429    0.0000    0.0000
  band No.  band energies     occupation 
      1     -49.9382      1.00000
      2     -49.9264      1.00000
      3     -49.9202      1.00000
      4     -49.9114      1.00000
      5     -49.8762      1.00000
      6     -49.7849      1.00000
      7     -49.7754      1.00000
      8     -49.7691      1.00000
      9     -49.7579      1.00000
     10     -49.7314      1.00000
     11     -49.6449      1.00000
     12     -49.4970      1.00000
     13     -47.3124      1.00000
     14     -47.3095      1.00000
     15     -47.3083      1.00000
     16     -47.3070      1.00000
     17     -47.2909      1.00000
     18     -47.1319      1.00000
     19     -47.0368      1.00000
     20     -46.9558      1.00000
     21     -46.9557      1.00000
     22     -46.9545      1.00000
     23     -46.9508      1.00000
     24     -46.8739      1.00000
     25     -10.2066      1.00000
     26      -9.0591      1.00000
     27      -8.7606      1.00000
     28      -8.6793      1.00000
     29      -8.4639      1.00000
     30      -8.4495      1.00000
     31      -8.1135      1.00000
     32      -7.8311      1.00000
     33      -1.7637      1.00000
     34      -1.5080      1.00000
     35      -0.7463      1.00000
     36      -0.7012      1.00000
     37      -0.6766      1.00000
     38      -0.6050      1.00000
     39      -0.4727      1.00000
     40       0.0771      1.00000
     41       0.3616      1.00000
     42       0.4935      1.00000
     43       0.5005      1.00000
     44       0.6065      1.00000
     45       0.6538      1.00000
     46       0.7403      1.00000
[...]


--------------------------------------------------------------------------------------------------------


 soft charge-density along one line, spin component           1
         0         1         2         3         4         5         6         7         8         9
 total charge-density along one line
 
 soft charge-density along one line, spin component           2
         0         1         2         3         4         5         6         7         8         9
 total charge-density along one line
 
 pseudopotential strength for first ion, spin component:           1
-54.407   0.025  -0.000  27.767  -0.021   0.000  -0.000  -0.000
  0.025 -54.483   0.000  -0.021  27.824  -0.000   0.000  -0.000
 -0.000   0.000 -54.333   0.000  -0.000  27.708   0.000   0.000
 27.767  -0.021   0.000  -9.721   0.016  -0.000   0.000   0.000
 -0.021  27.824  -0.000   0.016  -9.760   0.000  -0.000   0.000
  0.000  -0.000  27.708  -0.000   0.000  -9.682  -0.000  -0.000
 -0.000   0.000   0.000   0.000  -0.000  -0.000  -8.272   0.000
 -0.000  -0.000   0.000   0.000   0.000  -0.000   0.000  -8.092
  0.000  -0.000   0.000  -0.000   0.000  -0.000   0.000  -0.050
  0.000  -0.000  -0.000  -0.000   0.000   0.000  -0.042  -0.000
  0.000  -0.000  -0.000  -0.000   0.000   0.000  -0.000  -0.100
  0.000  -0.000  -0.000  -0.000   0.000   0.000  -0.212  -0.000
  0.000   0.000  -0.000  -0.000  -0.000   0.000  -0.000  -0.256
 -0.000   0.000  -0.000   0.000  -0.000   0.000  -0.000   0.012
 -0.000   0.000   0.000   0.000  -0.000  -0.000   0.010   0.000
 -0.000   0.000   0.000   0.000  -0.000  -0.000   0.000   0.024
  0.000   0.000   0.000  -0.000  -0.000  -0.000   0.000  -0.007
 -0.000  -0.000  -0.000   0.000   0.000   0.000  -0.000   0.001
 pseudopotential strength for first ion, spin component:           2
-52.377   0.104  -0.000  26.214  -0.076   0.000  -0.000  -0.000
  0.104 -52.406   0.000  -0.076  26.235  -0.000   0.000  -0.000
 -0.000   0.000 -52.351   0.000  -0.000  26.187   0.000   0.000
 26.214  -0.076   0.000  -8.624   0.055  -0.000   0.000   0.000
 -0.076  26.235  -0.000   0.055  -8.639   0.000  -0.000   0.000
  0.000  -0.000  26.187  -0.000   0.000  -8.607  -0.000  -0.000
 -0.000   0.000   0.000   0.000  -0.000  -0.000  -6.236   0.000
 -0.000  -0.000   0.000   0.000   0.000  -0.000   0.000  -6.584
  0.000  -0.000   0.000  -0.000   0.000  -0.000   0.000   0.119
  0.000  -0.000  -0.000  -0.000   0.000   0.000   0.114  -0.000
  0.000  -0.000  -0.000  -0.000   0.000   0.000  -0.000   0.027
  0.000  -0.000  -0.000  -0.000   0.000  -0.000  -0.688  -0.000
  0.000   0.000  -0.000  -0.000  -0.000   0.000  -0.000  -0.607
 -0.000   0.000  -0.000   0.000  -0.000   0.000  -0.000  -0.026
 -0.000   0.000   0.000   0.000  -0.000  -0.000  -0.025   0.000
 -0.000   0.000   0.000   0.000  -0.000  -0.000   0.000  -0.008
  0.000   0.000   0.000  -0.000  -0.000  -0.000   0.000  -0.013
 -0.000  -0.000  -0.000   0.000   0.000   0.000  -0.000   0.004
 total augmentation occupancy for first ion, spin component:           1
  2.011  -0.018  -0.000   0.060  -0.043   0.000   0.000   0.000   0.000  -0.000   0.000  -0.000   0.000  -0.000  -0.000   0.000
 -0.018   2.015   0.000  -0.043   0.069  -0.000  -0.000   0.000   0.000   0.000  -0.000   0.000   0.000  -0.000  -0.000  -0.000
  0.000  -0.000   2.011   0.000   0.000   0.056   0.000  -0.000   0.000  -0.000   0.000   0.000  -0.000  -0.000  -0.000   0.000
  0.060  -0.043  -0.000   0.201  -0.104  -0.000   0.000   0.000   0.000   0.000   0.000   0.000  -0.000   0.000   0.000   0.000
 -0.043   0.069   0.000  -0.104   0.223   0.000   0.000   0.000   0.000   0.000  -0.000   0.000   0.000  -0.000   0.000   0.000
  0.000   0.000   0.056   0.000   0.000   0.185  -0.000  -0.000  -0.000  -0.000  -0.000   0.000  -0.000  -0.000   0.000  -0.000
  0.000   0.000  -0.000   0.000  -0.000  -0.000   1.266   0.000   0.000  -0.103   0.000  -0.052  -0.000  -0.000  -0.058   0.000
  0.000  -0.000  -0.000   0.000   0.000  -0.000   0.000   1.460  -0.028  -0.000  -0.095   0.000   0.101  -0.153   0.000   0.089
 -0.000   0.000   0.000  -0.000   0.000  -0.000   0.000  -0.028   1.306  -0.000  -0.129   0.000  -0.154   0.101   0.000  -0.077
 -0.000   0.000   0.000   0.000   0.000   0.000  -0.103  -0.000  -0.000   1.278  -0.000  -0.059   0.000   0.000  -0.023   0.000
  0.000   0.000   0.000  -0.000   0.000  -0.000   0.000  -0.095  -0.129   0.000   1.512   0.000   0.093  -0.075   0.000   0.183
 -0.000   0.000   0.000   0.000   0.000   0.000  -0.052   0.000  -0.000  -0.059  -0.000   0.175   0.000   0.000  -0.026   0.000
 -0.000   0.000   0.000   0.000  -0.000  -0.000   0.000   0.101  -0.154  -0.000   0.093  -0.000   0.252  -0.074  -0.000   0.090
  0.000   0.000   0.000   0.000   0.000  -0.000  -0.000  -0.153   0.101   0.000  -0.075   0.000  -0.074   0.177  -0.000  -0.018
 -0.000  -0.000   0.000   0.000   0.000   0.000  -0.058  -0.000   0.000  -0.023   0.000  -0.026   0.000  -0.000   0.166   0.000
  0.000   0.000   0.000   0.000  -0.000   0.000  -0.000   0.089  -0.077   0.000   0.183   0.000   0.090  -0.018   0.000   0.144
 -0.000  -0.000   0.000   0.000  -0.000   0.000  -0.000  -0.003  -0.050  -0.000   0.087   0.000  -0.312   0.027   0.000  -0.004
  0.000  -0.000   0.000   0.000   0.000   0.000   0.000   0.003   0.024  -0.000  -0.013  -0.000   0.022  -0.006   0.000   0.003
 total augmentation occupancy for first ion, spin component:           2
 -0.005   0.000  -0.000  -0.002  -0.000   0.000  -0.000   0.000  -0.000  -0.000   0.000  -0.000  -0.000   0.000  -0.000  -0.000
  0.000  -0.007  -0.000  -0.000  -0.007   0.000   0.000   0.000  -0.000  -0.000  -0.000   0.000   0.000   0.000   0.000  -0.000
  0.000  -0.000  -0.007   0.000   0.000  -0.004  -0.000   0.000   0.000  -0.000   0.000  -0.000  -0.000  -0.000   0.000  -0.000
 -0.002  -0.000   0.000   0.014  -0.002   0.000  -0.000   0.000   0.000   0.000   0.000   0.000  -0.000  -0.000   0.000  -0.000
 -0.000  -0.007  -0.000  -0.002   0.003   0.000   0.000   0.000   0.000   0.000   0.000   0.000   0.000   0.000   0.000  -0.000
  0.000  -0.000  -0.004   0.000  -0.000   0.013  -0.000   0.000   0.000   0.000   0.000   0.000   0.000  -0.000   0.000   0.000
 -0.000   0.000   0.000  -0.000   0.000  -0.000   0.681  -0.000  -0.000   0.123  -0.000  -0.269   0.000   0.000   0.003   0.000
  0.000   0.000   0.000   0.000   0.000   0.000   0.000   0.376   0.131   0.000   0.050  -0.000  -0.188  -0.013   0.000  -0.030
  0.000   0.000   0.000   0.000  -0.000   0.000  -0.000   0.131   0.512  -0.000   0.163   0.000  -0.011  -0.203  -0.000  -0.021
 -0.000  -0.000   0.000   0.000   0.000   0.000   0.123  -0.000  -0.000   0.644  -0.000   0.005   0.000   0.000  -0.262   0.000
  0.000  -0.000   0.000  -0.000  -0.000   0.000  -0.000   0.050   0.163  -0.000   0.231  -0.000  -0.016  -0.015   0.000  -0.144
  0.000   0.000   0.000   0.000   0.000  -0.000  -0.269  -0.000   0.000   0.005   0.000   0.053   0.000   0.000   0.006   0.000
 -0.000  -0.000   0.000   0.000  -0.000   0.000   0.000  -0.188  -0.011   0.000  -0.016   0.000   0.007   0.026   0.000  -0.001
  0.000   0.000  -0.000   0.000  -0.000  -0.000  -0.000  -0.013  -0.203  -0.000  -0.015  -0.000   0.026   0.002   0.000   0.005
 -0.000   0.000  -0.000   0.000   0.000   0.000   0.003   0.000   0.000  -0.262   0.000   0.006  -0.000   0.000   0.036   0.000
  0.000   0.000   0.000  -0.000   0.000   0.000   0.000  -0.030  -0.021   0.000  -0.144   0.000  -0.001   0.005   0.000  -0.019
 -0.000  -0.000   0.000  -0.000   0.000   0.000   0.000   0.113   0.033   0.000  -0.045  -0.000  -0.029   0.003   0.000  -0.022
 -0.000   0.000   0.000   0.000   0.000   0.000   0.000   0.018   0.017  -0.000  -0.015   0.000  -0.003  -0.003   0.000  -0.000


------------------------ aborting loop because EDIFF is reached ----------------------------------------





 total charge

# of ion       s       p       d       tot
------------------------------------------
    1        0.349   6.308   6.106  12.763
    2        0.349   6.308   6.106  12.763
    3        0.349   6.308   6.106  12.763
    4        0.349   6.308   6.106  12.763
    5        0.349   6.308   6.106  12.763
    6        0.349   6.308   6.106  12.763
    7        0.349   6.308   6.106  12.763
    8        0.349   6.308   6.106  12.763
    9        1.496   2.253   0.065   3.814
   10        1.496   2.253   0.065   3.814
   11        1.496   2.253   0.065   3.814
   12        1.496   2.253   0.065   3.814
   13        1.496   2.253   0.065   3.814
   14        1.496   2.253   0.065   3.814
   15        1.496   2.253   0.065   3.814
   16        1.496   2.253   0.065   3.814
--------------------------------------------------
tot         14.759  68.488  49.369 132.617



 magnetization (x)

# of ion       s       p       d       tot
------------------------------------------
    1        0.025   0.015   2.385   2.425
    2       -0.025  -0.015  -2.385  -2.425
    3       -0.025  -0.015  -2.385  -2.425
    4        0.025   0.015   2.385   2.425
    5        0.025   0.015   2.385   2.425
    6       -0.025  -0.015  -2.385  -2.425
    7       -0.025  -0.015  -2.385  -2.425
    8        0.025   0.015   2.385   2.425
    9        0.000   0.000   0.000   0.000
   10        0.000   0.000   0.000   0.000
   11        0.000   0.000   0.000   0.000
   12        0.000   0.000   0.000   0.000
   13        0.000   0.000   0.000   0.000
   14        0.000   0.000   0.000   0.000
   15        0.000   0.000   0.000   0.000
   16        0.000   0.000   0.000   0.000
--------------------------------------------------
tot          0.000   0.000   0.000   0.000
 
    CHARGE:  cpu time      0.5711: real time      0.5736
    FORLOC:  cpu time      0.0024: real time      0.0024
    FORNL :  cpu time      5.0060: real time      5.0225
    STRESS:  cpu time     15.3526: real time     15.4037
    FORCOR:  cpu time      0.0398: real time      0.0399
    FORHAR:  cpu time      0.0053: real time      0.0053
    MIXING:  cpu time      0.0013: real time      0.0013
    OFIELD:  cpu time      0.0000: real time      0.0000
    FORVDW:  cpu time      0.8533: real time      0.8556

  FORCE on cell =-STRESS in cart. coord.  units (eV):
  Direction    XX          YY          ZZ          XY          YZ          ZX
  --------------------------------------------------------------------------------------
  Alpha Z   894.19572   894.19572   894.19572
  Ewald   -1496.27660 -2232.43923 -8236.86912     0.00000     0.00000     0.00000
  Hartree  5076.02085  4422.45749 -1111.60202     0.00000     0.00000    -0.00000
  E(xc)    -897.97662  -900.31617  -899.37166     0.00000     0.00000     0.00000
  Local   -5524.69074 -4149.00664  7424.21819     0.00000    -0.00000    -0.00000
  n-local  -278.28263  -251.26738  -243.32733    -0.74510    -0.46549    -0.72050
  augment   528.44913   515.63916   511.42477     0.00000     0.00000     0.00000
  Kinetic  1708.36703  1710.80579  1671.64603     3.80731     0.02121     0.73556
  Fock        0.00000     0.00000     0.00000     0.00000     0.00000     0.00000
  vdW        -6.75757    -6.78896    -7.07009     0.00000    -0.00000     0.00000
  -------------------------------------------------------------------------------------
  Total       3.04857     3.27979     3.24450     0.00000     0.00000     0.00000
  in kB      17.19839    18.50285    18.30373     0.00000     0.00000     0.00000
  external pressure =       18.00 kB  Pullay stress =        0.00 kB


 VOLUME and BASIS-vectors are now :
 -----------------------------------------------------------------------------
  energy-cutoff  :      550.00
  volume of cell :      284.00
      direct lattice vectors                 reciprocal lattice vectors
     4.746790211 -5.490104264  0.000000000     0.105334337 -0.091072952  0.000000000
     4.746790211  5.490104264  0.000000000     0.105334337  0.091072952  0.000000000
     0.000000000  0.000000000  5.448885903     0.000000000  0.000000000  0.183523755

  length of vectors
     7.257634747  7.257634747  5.448885903     0.139246562  0.139246562  0.183523755


 FORCES acting on ions
    electron-ion (+dipol)            ewald-force                    non-local-force                 convergence-correction
 -----------------------------------------------------------------------------------------------
   -.281E-12 0.680E-13 0.174E-13   -.171E-12 0.320E-13 0.142E-13   0.373E-25 0.370E-21 0.252E-21   -.712E-13 0.225E-12 0.419E-12
   0.844E-12 0.143E-11 0.427E-13   -.156E-12 0.320E-13 0.622E-14   0.102E-21 -.252E-21 -.714E-21   -.511E-12 0.762E-13 0.607E-12
   0.101E-11 0.592E-12 0.347E-10   -.210E-12 0.284E-13 0.142E-13   -.581E-23 -.376E-21 0.454E-21   0.872E-14 -.102E-12 -.149E-12
   0.717E-11 0.946E-11 0.157E-10   -.199E-12 0.249E-13 0.711E-14   0.896E-22 -.145E-20 -.499E-21   -.385E-13 -.361E-12 0.433E-12
   0.494E-11 0.412E-11 0.732E-11   0.155E-12 -.639E-13 -.178E-13   -.123E-22 0.118E-20 -.638E-21   0.623E-12 0.477E-12 0.754E-13
   -.403E-12 -.334E-11 0.787E-11   0.142E-12 -.355E-13 -.178E-13   0.285E-21 0.708E-21 0.862E-21   -.502E-12 -.617E-12 -.183E-12
   -.209E-10 -.252E-10 -.461E-10   0.185E-12 -.924E-13 -.178E-13   0.771E-23 0.841E-22 -.103E-20   0.647E-12 0.932E-12 0.104E-11
   0.152E-11 0.454E-11 -.445E-10   0.184E-12 -.568E-13 -.142E-13   -.300E-21 -.169E-21 0.446E-21   -.985E-12 -.402E-12 0.111E-11
   -.736E-07 0.279E-11 0.302E+03   -.102E-13 0.284E-13 -.303E+03   -.865E-18 -.390E-17 0.996E+00   0.210E-12 0.732E-13 0.559E-03
   -.736E-07 -.559E-12 0.302E+03   -.711E-14 0.425E-13 -.303E+03   -.749E-19 0.304E-17 0.996E+00   -.885E-13 -.147E-12 0.559E-03
   -.736E-07 0.540E-11 0.302E+03   -.213E-13 0.143E-13 -.303E+03   0.174E-17 -.470E-17 0.996E+00   0.150E-12 0.168E-12 0.559E-03
   -.736E-07 -.548E-12 0.302E+03   -.258E-13 0.355E-13 -.303E+03   -.341E-17 -.546E-17 0.996E+00   -.199E-12 -.145E-12 0.559E-03
   0.736E-07 -.206E-12 -.302E+03   0.173E-13 -.122E-14 0.303E+03   0.579E-18 0.240E-19 -.996E+00   0.553E-13 0.160E-12 -.559E-03
   0.736E-07 0.175E-12 -.302E+03   0.219E-13 0.184E-13 0.303E+03   0.403E-17 -.831E-17 -.996E+00   -.191E-12 -.720E-13 -.559E-03
   0.736E-07 0.159E-12 -.302E+03   0.348E-13 -.112E-13 0.303E+03   -.197E-17 0.932E-17 -.996E+00   0.235E-12 0.507E-13 -.559E-03
   0.736E-07 -.872E-12 -.302E+03   0.395E-13 0.297E-13 0.303E+03   -.305E-17 -.351E-17 -.996E+00   -.910E-13 -.205E-12 -.559E-03
 -----------------------------------------------------------------------------------------------
   -.118E-10 -.196E-11 -.393E-10   -.217E-13 0.250E-13 0.000E+00   -.302E-17 -.135E-16 0.222E-15   -.750E-12 0.109E-12 0.278E-11
 
 
 POSITION                                       TOTAL-FORCE (eV/Angst)
 -----------------------------------------------------------------------------------
      0.00000      0.00000      0.00000        -0.000000      0.000000     -0.000000
      2.37340      2.74505      0.00000        -0.000000      0.000000     -0.000000
      2.37340     -2.74505      0.00000        -0.000000      0.000000     -0.000000
      4.74679      0.00000      0.00000        -0.000000      0.000000     -0.000000
      2.37340      0.00000      0.00000        -0.000000      0.000000     -0.000000
      4.74679      2.74505      0.00000        -0.000000      0.000000     -0.000000
      4.74679     -2.74505      0.00000        -0.000000      0.000000     -0.000000
      7.12019     -0.00000      0.00000        -0.000000      0.000000     -0.000000
      2.37340     -1.37253      3.61906         0.000000      0.000000     -0.001234
      4.74679      1.37253      3.61906        -0.000000     -0.000000     -0.001234
      4.74679     -4.11758      3.61906         0.000000     -0.000000     -0.001234
      7.12019     -1.37253      3.61906        -0.000000      0.000000     -0.001234
      2.37340      1.37253      1.82983         0.000000     -0.000000      0.001234
      4.74679      4.11758      1.82983         0.000000      0.000000      0.001234
      4.74679     -1.37253      1.82983        -0.000000      0.000000      0.001234
      7.12019      1.37253      1.82983        -0.000000     -0.000000      0.001234
 -----------------------------------------------------------------------------------
    total drift:                               -0.000000     -0.000000     -0.000000


--------------------------------------------------------------------------------------------------------



  FREE ENERGIE OF THE ION-ELECTRON SYSTEM (eV)
  ---------------------------------------------------
  free  energy   TOTEN  =       -98.33146765 eV

  energy  without entropy=      -98.30722196  energy(sigma->0) =      -98.31934481
 


--------------------------------------------------------------------------------------------------------


    POTLOK:  cpu time      0.3457: real time      0.3548


--------------------------------------------------------------------------------------------------------




--------------------------------------------------------------------------------------------------------


  
 reached required accuracy - stopping structural energy minimisation
     LOOP+:  cpu time    321.8157: real time    323.2630
    4ORBIT:  cpu time      0.0000: real time      0.0000



 total charge

# of ion       s       p       d       tot
------------------------------------------
    1        0.349   6.308   6.106  12.763
    2        0.349   6.308   6.106  12.763
    3        0.349   6.308   6.106  12.763
    4        0.349   6.308   6.106  12.763
    5        0.349   6.308   6.106  12.763
    6        0.349   6.308   6.106  12.763
    7        0.349   6.308   6.106  12.763
    8        0.349   6.308   6.106  12.763
    9        1.496   2.253   0.065   3.814
   10        1.496   2.253   0.065   3.814
   11        1.496   2.253   0.065   3.814
   12        1.496   2.253   0.065   3.814
   13        1.496   2.253   0.065   3.814
   14        1.496   2.253   0.065   3.814
   15        1.496   2.253   0.065   3.814
   16        1.496   2.253   0.065   3.814
--------------------------------------------------
tot         14.759  68.488  49.369 132.617



 magnetization (x)

# of ion       s       p       d       tot
------------------------------------------
    1        0.025   0.015   2.385   2.425
    2       -0.025  -0.015  -2.385  -2.425
    3       -0.025  -0.015  -2.385  -2.425
    4        0.025   0.015   2.385   2.425
    5        0.025   0.015   2.385   2.425
    6       -0.025  -0.015  -2.385  -2.425
    7       -0.025  -0.015  -2.385  -2.425
    8        0.025   0.015   2.385   2.425
    9        0.000   0.000   0.000   0.000
   10        0.000   0.000   0.000   0.000
   11        0.000   0.000   0.000   0.000
   12        0.000   0.000   0.000   0.000
   13        0.000   0.000   0.000   0.000
   14        0.000   0.000   0.000   0.000
   15        0.000   0.000   0.000   0.000
   16        0.000   0.000   0.000   0.000
--------------------------------------------------
tot          0.000   0.000   0.000   0.000
 

 total amount of memory used by VASP MPI-rank0   170197. kBytes
=======================================================================

   base      :      30000. kBytes
   nonlr-proj:      11667. kBytes
   fftplans  :       2458. kBytes
   grid      :      15239. kBytes
   one-center:        497. kBytes
   wavefun   :     110336. kBytes
 
  
  
 General timing and accounting informations for this job:
 ========================================================
  
                  Total CPU time used (sec):      339.353
                            User time (sec):      337.913
                          System time (sec):        1.440
                         Elapsed time (sec):      341.980
  
                   Maximum memory used (kb):      434148.
                   Average memory used (kb):          N/A
  
                          Minor page faults:       150507
                          Major page faults:            0
                 Voluntary context switches:        35862
