       N       E                     dE             d eps       ncg     rms          rms(c)
DAV:   1    -0.111765069795E+02   -0.11177E+02   -0.46002E+03  7168   0.143E+02
DAV:   2    -0.150605589598E+02   -0.38841E+01   -0.38598E+01 10816   0.909E+00
DAV:   3    -0.150624305821E+02   -0.18716E-02   -0.18541E-02  7168   0.277E-01
DAV:   4    -0.150624315589E+02   -0.97681E-06   -0.96153E-06 14080   0.514E-03
DAV:   5    -0.150624315592E+02   -0.34709E-09   -0.11792E-11  7168   0.472E-06    0.260E+00
DAV:   6    -0.150104248987E+02    0.52007E-01   -0.67345E-03 11456   0.974E-02    0.151E+00
DAV:   7    -0.149731257061E+02    0.37299E-01   -0.19128E-02 11392   0.154E-01    0.269E-01
DAV:   8    -0.149730328132E+02    0.92893E-04   -0.36769E-05  9408   0.853E-03    0.414E-02
DAV:   9    -0.149730355536E+02   -0.27404E-05   -0.41641E-06 12800   0.238E-03    0.123E-03
DAV:  10    -0.149730345777E+02    0.97584E-06   -0.85674E-09  8064   0.171E-04
   1 F= -.14973035E+02 E0= -.14973035E+02  d E =0.000000E+00
