 vasp.6.4.1 05Apr23 (build Jun 01 2023 13:46:15) complex                        
  
 executed on             LinuxIFC date 2023.12.16  22:07:28
 running   20 mpi-ranks, on    5 nodes
 distrk:  each k-point on   20 cores,    1 groups
 distr:  one band on NCORE=   1 cores,   20 groups


--------------------------------------------------------------------------------------------------------


 INCAR:
   ALGO = Fast
   EDIFF = 0.0002
   ENCUT = 550
   IBRION = 2
   ISIF = 4
   ISMEAR = 0
   ISPIN = 2
   IVDW = 13
   LASPH = True
   LMAXMIX = 4
   LORBIT = 11
   LREAL = Auto
   LWAVE = False
   MAGMOM = 1*2.588 2*-2.588 2*2.588 2*-2.588 1*2.588 8*0.0
   NELM = 100
   NSW = 99
   PREC = Accurate
   SIGMA = 0.05

 POTCAR:   PAW_PBE Fe_pv 06Sep2000                
 POTCAR:   PAW_PBE Se 06Sep2000                   
 -----------------------------------------------------------------------------
|                                                                             |
|           W    W    AA    RRRRR   N    N  II  N    N   GGGG   !!!           |
|           W    W   A  A   R    R  NN   N  II  NN   N  G    G  !!!           |
|           W    W  A    A  R    R  N N  N  II  N N  N  G       !!!           |
|           W WW W  AAAAAA  RRRRR   N  N N  II  N  N N  G  GGG   !            |
|           WW  WW  A    A  R   R   N   NN  II  N   NN  G    G                |
|           W    W  A    A  R    R  N    N  II  N    N   GGGG   !!!           |
|                                                                             |
|     For optimal performance we recommend to set                             |
|       NCORE = 2 up to number-of-cores-per-socket                            |
|     NCORE specifies how many cores store one orbital (NPAR=cpu/NCORE).      |
|     This setting can greatly improve the performance of VASP for DFT.       |
|     The default, NCORE=1 might be grossly inefficient on modern             |
|     multi-core architectures or massively parallel machines. Do your        |
|     own testing! More info at https://www.vasp.at/wiki/index.php/NCORE      |
|     Unfortunately you need to use the default for GW and RPA                |
|     calculations (for HF NCORE is supported but not extensively tested      |
|     yet).                                                                   |
|                                                                             |
 -----------------------------------------------------------------------------

 POTCAR:   PAW_PBE Fe_pv 06Sep2000                
   VRHFIN =Fe:  3pd7s1                                                                              
   LEXCH  = PE                                                                                      
   EATOM  =  2456.8974 eV,  180.5769 Ry                                                             
                                                                                                    
   TITEL  = PAW_PBE Fe_pv 06Sep2000                                                                 
   LULTRA =        F    use ultrasoft PP ?                                                          
   IUNSCR =        1    unscreen: 0-lin 1-nonlin 2-no                                               
   RPACOR =    1.750    partial core radius                                                         
   POMASS =   55.847; ZVAL   =   14.000    mass and valenz                                          
   RCORE  =    2.200    outmost cutoff radius                                                       
   RWIGS  =    2.200; RWIGS  =    1.164    wigner-seitz radius (au A)                               
   ENMAX  =  293.238; ENMIN  =  219.929 eV                                                          
   RCLOC  =    1.701    cutoff for local pot                                                        
   LCOR   =        T    correct aug charges                                                         
   LPAW   =        T    paw PP                                                                      
   EAUG   =  578.342                                                                                
   DEXC   =    -.002                                                                                
   RMAX   =    2.693    core radius for proj-oper                                                   
   RAUG   =    1.300    factor for augmentation sphere                                              
   RDEP   =    2.296    radius for radial grids                                                     
   QCUT   =   -4.642; QGAM   =    9.285    optimization parameters                                  
                                                                                                    
   Description                                                                                      
     l     E      TYP  RCUT    TYP  RCUT                                                            
     1   .000     23  2.000                                                                         
     1  -.400     23  2.000                                                                         
     2   .000     23  2.200                                                                         
     2   .000     23  2.200                                                                         
     0   .000     23  2.000                                                                         
     0  2.000     23  2.000                                                                         
     3   .000      7   .000                                                                         
  local pseudopotential read in
  partial core-charges read in
  atomic valenz-charges read in
  non local Contribution for L=           1  read in
    real space projection operators read in
  non local Contribution for L=           1  read in
    real space projection operators read in
  non local Contribution for L=           2  read in
    real space projection operators read in
  non local Contribution for L=           2  read in
    real space projection operators read in
  non local Contribution for L=           0  read in
    real space projection operators read in
  non local Contribution for L=           0  read in
    real space projection operators read in
    PAW grid and wavefunctions read in
 
   number of l-projection  operators is LMAX  =           6
   number of lm-projection operators is LMMAX =          18
 
 POTCAR:   PAW_PBE Se 06Sep2000                   
   VRHFIN =Se: s2p4                                                                                 
   LEXCH  = PE                                                                                      
   EATOM  =   256.9644 eV,   18.8864 Ry                                                             
                                                                                                    
   TITEL  = PAW_PBE Se 06Sep2000                                                                    
   LULTRA =        F    use ultrasoft PP ?                                                          
   IUNSCR =        1    unscreen: 0-lin 1-nonlin 2-no                                               
   RPACOR =    1.900    partial core radius                                                         
   POMASS =   78.960; ZVAL   =    6.000    mass and valenz                                          
   RCORE  =    2.100    outmost cutoff radius                                                       
   RWIGS  =    2.200; RWIGS  =    1.164    wigner-seitz radius (au A)                               
   ENMAX  =  211.534; ENMIN  =  158.651 eV                                                          
   ICORE  =        3    local potential                                                             
   LCOR   =        T    correct aug charges                                                         
   LPAW   =        T    paw PP                                                                      
   EAUG   =  446.842                                                                                
   DEXC   =    -.031                                                                                
   RMAX   =    3.170    core radius for proj-oper                                                   
   RAUG   =    1.300    factor for augmentation sphere                                              
   RDEP   =    2.177    radius for radial grids                                                     
   QCUT   =   -3.943; QGAM   =    7.886    optimization parameters                                  
                                                                                                    
   Description                                                                                      
     l     E      TYP  RCUT    TYP  RCUT                                                            
     0   .000     23  2.100                                                                         
     0   .000     23  2.100                                                                         
     1   .000     23  2.100                                                                         
     1   .000     23  2.100                                                                         
     2   .000     23  2.100                                                                         
     3  -.100      7  2.100                                                                         
  local pseudopotential read in
  partial core-charges read in
  atomic valenz-charges read in
  non local Contribution for L=           0  read in
    real space projection operators read in
  non local Contribution for L=           0  read in
    real space projection operators read in
  non local Contribution for L=           1  read in
    real space projection operators read in
  non local Contribution for L=           1  read in
    real space projection operators read in
  non local Contribution for L=           2  read in
    real space projection operators read in
    PAW grid and wavefunctions read in
 
   number of l-projection  operators is LMAX  =           5
   number of lm-projection operators is LMMAX =          13
 
 Optimization of the real space projectors (new method)

 maximal supplied QI-value         = 17.01
 optimisation between [QCUT,QGAM] = [ 11.91, 23.98] = [ 39.69,161.04] Ry 
 Optimized for a Real-space Cutoff    1.45 Angstroem

   l    n(q)    QCUT    max X(q) W(low)/X(q) W(high)/X(q)  e(spline) 
   1     10    11.905     4.550    0.27E-05    0.11E-05    0.28E-07
   1     10    11.905     5.234    0.10E-04    0.61E-04    0.17E-06
   2      9    11.905     3.960    0.19E-04    0.73E-05    0.50E-07
   2      9    11.905    29.565    0.24E-03    0.51E-04    0.27E-06
   0     10    11.905    23.582    0.17E-04    0.10E-05    0.14E-07
   0     10    11.905    39.747    0.23E-04    0.68E-05    0.74E-07
 Optimization of the real space projectors (new method)

 maximal supplied QI-value         = 17.95
 optimisation between [QCUT,QGAM] = [ 11.85, 23.88] = [ 39.31,159.64] Ry 
 Optimized for a Real-space Cutoff    1.18 Angstroem

   l    n(q)    QCUT    max X(q) W(low)/X(q) W(high)/X(q)  e(spline) 
   0      8    11.849     6.499    0.17E-04    0.94E-05    0.89E-08
   0      8    11.849    52.623    0.21E-03    0.78E-04    0.81E-07
   1      8    11.849     4.229    0.79E-04    0.83E-04    0.23E-07
   1      8    11.849    29.991    0.12E-03    0.43E-03    0.14E-06
   2      7    11.849     3.719    0.22E-03    0.64E-04    0.38E-07
 PAW_PBE Fe_pv 06Sep2000                :
 energy of atom  1       EATOM=-2456.8974
 kinetic energy error for atom=    0.0060 (will be added to EATOM!!)
 PAW_PBE Se 06Sep2000                   :
 energy of atom  2       EATOM= -256.9644
 kinetic energy error for atom=    0.0007 (will be added to EATOM!!)
 
 
 POSCAR: Fe8 Se8
  positions in direct lattice
  No initial velocities read in
 exchange correlation table for  LEXCH =        8
   RHO(1)=    0.500       N(1)  =     2000
   RHO(2)=  100.500       N(2)  =     4000
 


--------------------------------------------------------------------------------------------------------


 ion  position               nearest neighbor table
   1  0.000  0.000  0.000-  11 2.28  14 2.28   5 2.40   8 2.40
   2  0.000  0.500  0.000-  12 2.28  13 2.28   6 2.40   7 2.40
   3  0.500  0.000  0.000-   9 2.28  16 2.28   6 2.40   7 2.40
   4  0.500  0.500  0.000-  10 2.28  15 2.28   5 2.40   8 2.40
   5  0.250  0.250  0.000-   9 2.28  13 2.28   1 2.40   4 2.40
   6  0.250  0.750  0.000-  10 2.28  14 2.28   2 2.40   3 2.40
   7  0.750  0.250  0.000-  11 2.28  15 2.28   2 2.40   3 2.40
   8  0.750  0.750  0.000-  12 2.28  16 2.28   1 2.40   4 2.40
   9  0.375  0.125  0.686-   3 2.28   5 2.28
  10  0.375  0.625  0.686-   4 2.28   6 2.28
  11  0.875  0.125  0.686-   1 2.28   7 2.28
  12  0.875  0.625  0.686-   2 2.28   8 2.28
  13  0.125  0.375  0.314-   2 2.28   5 2.28
  14  0.125  0.875  0.314-   1 2.28   6 2.28
  15  0.625  0.375  0.314-   4 2.28   7 2.28
  16  0.625  0.875  0.314-   3 2.28   8 2.28
 
  LATTYP: Found a base centered orthorhombic cell.
 ALAT       =     9.6084241767
 B/A-ratio  =     1.1958604641
 C/A-ratio  =     0.5882305549
  
  Lattice vectors:
  
 A1 = (   4.8042120884,  -5.7451672978,   0.0000000000)
 A2 = (   4.8042120884,   5.7451672978,   0.0000000000)
 A3 = (   0.0000000000,   0.0000000000,   5.6519686848)


Analysis of symmetry for initial positions (statically):
=====================================================================
 Subroutine PRICEL returns following result:
 
  LATTYP: Found a base centered orthorhombic cell.
 ALAT       =     4.8042120884
 B/A-ratio  =     1.1958604641
 C/A-ratio  =     1.1764611097
  
  Lattice vectors:
  
 A1 = (   2.4021060442,  -2.8725836489,   0.0000000000)
 A2 = (   2.4021060442,   2.8725836489,   0.0000000000)
 A3 = (   0.0000000000,   0.0000000000,   5.6519686848)
 
   4 primitive cells build up your supercell.
 

 Routine SETGRP: Setting up the symmetry group for a 
 base centered orthorhombic supercell.


 Subroutine GETGRP returns: Found  8 space group operations
 (whereof  4 operations were pure point group operations)
 out of a pool of  8 trial point group operations.


The static configuration has the point symmetry C_2h.
 The point group associated with its full space group is D_2h.


Analysis of symmetry for dynamics (positions and initial velocities):
=====================================================================
 Subroutine PRICEL returns following result:
 
  LATTYP: Found a base centered orthorhombic cell.
 ALAT       =     4.8042120884
 B/A-ratio  =     1.1958604641
 C/A-ratio  =     1.1764611097
  
  Lattice vectors:
  
 A1 = (   2.4021060442,  -2.8725836489,   0.0000000000)
 A2 = (   2.4021060442,   2.8725836489,   0.0000000000)
 A3 = (   0.0000000000,   0.0000000000,   5.6519686848)
 
   4 primitive cells build up your supercell.
 

 Routine SETGRP: Setting up the symmetry group for a 
 base centered orthorhombic supercell.


 Subroutine GETGRP returns: Found  8 space group operations
 (whereof  4 operations were pure point group operations)
 out of a pool of  8 trial point group operations.


The dynamic configuration has the point symmetry C_2h.
 The point group associated with its full space group is D_2h.


Analysis of structural, dynamic, and magnetic symmetry:
=====================================================================
 Subroutine PRICEL returns following result:
 
  LATTYP: Found a base centered orthorhombic cell.
 ALAT       =     4.8042120884
 B/A-ratio  =     1.1958604641
 C/A-ratio  =     1.1764611097
  
  Lattice vectors:
  
 A1 = (   2.4021060442,  -2.8725836489,   0.0000000000)
 A2 = (   2.4021060442,   2.8725836489,   0.0000000000)
 A3 = (   0.0000000000,   0.0000000000,   5.6519686848)
 
   4 primitive cells build up your supercell.
 

 Routine SETGRP: Setting up the symmetry group for a 
 base centered orthorhombic supercell.


 Subroutine GETGRP returns: Found  8 space group operations
 (whereof  4 operations were pure point group operations)
 out of a pool of  8 trial point group operations.


The overall configuration has the point symmetry C_2h.
 The point group associated with its full space group is D_2h.


 Subroutine INISYM returns: Found  8 space group operations
 (whereof  4 operations are pure point group operations),
 and found     4 'primitive' translations


----------------------------------------------------------------------------------------

                                     Primitive cell                                     

  volume of cell :      78.0000

  direct lattice vectors                    reciprocal lattice vectors
     2.402106044 -2.872583649  0.000000000     0.208150677 -0.174059335  0.000000000
     2.402106044  2.872583649  0.000000000     0.208150677  0.174059335  0.000000000
     0.000000000  0.000000000  5.651968685     0.000000000  0.000000000  0.176929501

  length of vectors
     3.744576113  3.744576113  5.651968685     0.271336243  0.271336243  0.176929501

  position of ions in fractional coordinates (direct lattice)
     0.000000000  0.000000000  0.000000000
     0.500000000  0.500000000  0.000000000
     0.750000000  0.250000000  0.686460772
     0.250000000  0.750000000  0.313539228

  ion indices of the primitive-cell ions
   primitive index   ion index
                 1           1
                 2           5
                 3          11
                 4          14

----------------------------------------------------------------------------------------

 
 
 KPOINTS: KPOINTS                                 

Automatic generation of k-mesh.
 Grid dimensions read from file:
 generate k-points for:    7    7    9

 Generating k-lattice:

  Cartesian coordinates                     Fractional coordinates (reciprocal lattice)
     0.014867906 -0.012432810  0.000000000     0.142857143  0.000000000  0.000000000
     0.014867906  0.012432810  0.000000000     0.000000000  0.142857143  0.000000000
     0.000000000  0.000000000  0.019658833     0.000000000  0.000000000  0.111111111

  Length of vectors
     0.019381160  0.019381160  0.019658833

  Shift w.r.t. Gamma in fractional coordinates (k-lattice)
     0.000000000  0.000000000  0.000000000

 
 Subroutine IBZKPT returns following result:
 ===========================================
 
 Found     80 irreducible k-points:
 
 Following reciprocal coordinates:
            Coordinates               Weight
  0.000000  0.000000  0.000000      1.000000
  0.142857 -0.000000  0.000000      4.000000
  0.285714 -0.000000  0.000000      4.000000
  0.428571 -0.000000  0.000000      4.000000
  0.142857  0.142857  0.000000      2.000000
  0.285714  0.142857  0.000000      4.000000
  0.428571  0.142857  0.000000      4.000000
 -0.428571  0.142857  0.000000      4.000000
 -0.285714  0.142857  0.000000      4.000000
 -0.142857  0.142857  0.000000      2.000000
  0.285714  0.285714  0.000000      2.000000
  0.428571  0.285714  0.000000      4.000000
 -0.428571  0.285714  0.000000      4.000000
 -0.285714  0.285714  0.000000      2.000000
  0.428571  0.428571  0.000000      2.000000
 -0.428571  0.428571  0.000000      2.000000
  0.000000  0.000000  0.111111      2.000000
  0.142857 -0.000000  0.111111      8.000000
  0.285714 -0.000000  0.111111      8.000000
  0.428571 -0.000000  0.111111      8.000000
  0.142857  0.142857  0.111111      4.000000
  0.285714  0.142857  0.111111      8.000000
  0.428571  0.142857  0.111111      8.000000
 -0.428571  0.142857  0.111111      8.000000
 -0.285714  0.142857  0.111111      8.000000
 -0.142857  0.142857  0.111111      4.000000
  0.285714  0.285714  0.111111      4.000000
  0.428571  0.285714  0.111111      8.000000
 -0.428571  0.285714  0.111111      8.000000
 -0.285714  0.285714  0.111111      4.000000
  0.428571  0.428571  0.111111      4.000000
 -0.428571  0.428571  0.111111      4.000000
  0.000000  0.000000  0.222222      2.000000
  0.142857 -0.000000  0.222222      8.000000
  0.285714 -0.000000  0.222222      8.000000
  0.428571 -0.000000  0.222222      8.000000
  0.142857  0.142857  0.222222      4.000000
  0.285714  0.142857  0.222222      8.000000
  0.428571  0.142857  0.222222      8.000000
 -0.428571  0.142857  0.222222      8.000000
 -0.285714  0.142857  0.222222      8.000000
 -0.142857  0.142857  0.222222      4.000000
  0.285714  0.285714  0.222222      4.000000
  0.428571  0.285714  0.222222      8.000000
 -0.428571  0.285714  0.222222      8.000000
 -0.285714  0.285714  0.222222      4.000000
  0.428571  0.428571  0.222222      4.000000
 -0.428571  0.428571  0.222222      4.000000
  0.000000  0.000000  0.333333      2.000000
  0.142857 -0.000000  0.333333      8.000000
  0.285714 -0.000000  0.333333      8.000000
  0.428571 -0.000000  0.333333      8.000000
  0.142857  0.142857  0.333333      4.000000
  0.285714  0.142857  0.333333      8.000000
  0.428571  0.142857  0.333333      8.000000
 -0.428571  0.142857  0.333333      8.000000
 -0.285714  0.142857  0.333333      8.000000
 -0.142857  0.142857  0.333333      4.000000
  0.285714  0.285714  0.333333      4.000000
  0.428571  0.285714  0.333333      8.000000
 -0.428571  0.285714  0.333333      8.000000
 -0.285714  0.285714  0.333333      4.000000
  0.428571  0.428571  0.333333      4.000000
 -0.428571  0.428571  0.333333      4.000000
  0.000000  0.000000  0.444444      2.000000
  0.142857 -0.000000  0.444444      8.000000
  0.285714 -0.000000  0.444444      8.000000
  0.428571 -0.000000  0.444444      8.000000
  0.142857  0.142857  0.444444      4.000000
  0.285714  0.142857  0.444444      8.000000
  0.428571  0.142857  0.444444      8.000000
 -0.428571  0.142857  0.444444      8.000000
 -0.285714  0.142857  0.444444      8.000000
 -0.142857  0.142857  0.444444      4.000000
  0.285714  0.285714  0.444444      4.000000
  0.428571  0.285714  0.444444      8.000000
 -0.428571  0.285714  0.444444      8.000000
 -0.285714  0.285714  0.444444      4.000000
  0.428571  0.428571  0.444444      4.000000
 -0.428571  0.428571  0.444444      4.000000
 
 Following cartesian coordinates:
            Coordinates               Weight
  0.000000  0.000000  0.000000      1.000000
  0.014868 -0.012433  0.000000      4.000000
  0.029736 -0.024866  0.000000      4.000000
  0.044604 -0.037298  0.000000      4.000000
  0.029736 -0.000000  0.000000      2.000000
  0.044604 -0.012433  0.000000      4.000000
  0.059472 -0.024866  0.000000      4.000000
 -0.029736  0.049731  0.000000      4.000000
 -0.014868  0.037298  0.000000      4.000000
 -0.000000  0.024866  0.000000      2.000000
  0.059472 -0.000000  0.000000      2.000000
  0.074340 -0.012433  0.000000      4.000000
 -0.014868  0.062164  0.000000      4.000000
  0.000000  0.049731  0.000000      2.000000
  0.089207  0.000000  0.000000      2.000000
 -0.000000  0.074597  0.000000      2.000000
  0.000000  0.000000  0.019659      2.000000
  0.014868 -0.012433  0.019659      8.000000
  0.029736 -0.024866  0.019659      8.000000
  0.044604 -0.037298  0.019659      8.000000
  0.029736 -0.000000  0.019659      4.000000
  0.044604 -0.012433  0.019659      8.000000
  0.059472 -0.024866  0.019659      8.000000
 -0.029736  0.049731  0.019659      8.000000
 -0.014868  0.037298  0.019659      8.000000
 -0.000000  0.024866  0.019659      4.000000
  0.059472 -0.000000  0.019659      4.000000
  0.074340 -0.012433  0.019659      8.000000
 -0.014868  0.062164  0.019659      8.000000
  0.000000  0.049731  0.019659      4.000000
  0.089207  0.000000  0.019659      4.000000
 -0.000000  0.074597  0.019659      4.000000
  0.000000  0.000000  0.039318      2.000000
  0.014868 -0.012433  0.039318      8.000000
  0.029736 -0.024866  0.039318      8.000000
  0.044604 -0.037298  0.039318      8.000000
  0.029736 -0.000000  0.039318      4.000000
  0.044604 -0.012433  0.039318      8.000000
  0.059472 -0.024866  0.039318      8.000000
 -0.029736  0.049731  0.039318      8.000000
 -0.014868  0.037298  0.039318      8.000000
 -0.000000  0.024866  0.039318      4.000000
  0.059472 -0.000000  0.039318      4.000000
  0.074340 -0.012433  0.039318      8.000000
 -0.014868  0.062164  0.039318      8.000000
  0.000000  0.049731  0.039318      4.000000
  0.089207  0.000000  0.039318      4.000000
 -0.000000  0.074597  0.039318      4.000000
  0.000000  0.000000  0.058977      2.000000
  0.014868 -0.012433  0.058977      8.000000
  0.029736 -0.024866  0.058977      8.000000
  0.044604 -0.037298  0.058977      8.000000
  0.029736 -0.000000  0.058977      4.000000
  0.044604 -0.012433  0.058977      8.000000
  0.059472 -0.024866  0.058977      8.000000
 -0.029736  0.049731  0.058977      8.000000
 -0.014868  0.037298  0.058977      8.000000
 -0.000000  0.024866  0.058977      4.000000
  0.059472 -0.000000  0.058977      4.000000
  0.074340 -0.012433  0.058977      8.000000
 -0.014868  0.062164  0.058977      8.000000
  0.000000  0.049731  0.058977      4.000000
  0.089207  0.000000  0.058977      4.000000
 -0.000000  0.074597  0.058977      4.000000
  0.000000  0.000000  0.078635      2.000000
  0.014868 -0.012433  0.078635      8.000000
  0.029736 -0.024866  0.078635      8.000000
  0.044604 -0.037298  0.078635      8.000000
  0.029736 -0.000000  0.078635      4.000000
  0.044604 -0.012433  0.078635      8.000000
  0.059472 -0.024866  0.078635      8.000000
 -0.029736  0.049731  0.078635      8.000000
 -0.014868  0.037298  0.078635      8.000000
 -0.000000  0.024866  0.078635      4.000000
  0.059472 -0.000000  0.078635      4.000000
  0.074340 -0.012433  0.078635      8.000000
 -0.014868  0.062164  0.078635      8.000000
  0.000000  0.049731  0.078635      4.000000
  0.089207  0.000000  0.078635      4.000000
 -0.000000  0.074597  0.078635      4.000000
 


--------------------------------------------------------------------------------------------------------




 Dimension of arrays:
   k-points           NKPTS =     80   k-points in BZ     NKDIM =     80   number of bands    NBANDS=    100
   number of dos      NEDOS =    301   number of ions     NIONS =     16
   non local maximal  LDIM  =      6   non local SUM 2l+1 LMDIM =     18
   total plane-waves  NPLWV = 172800
   max r-space proj   IRMAX =   7092   max aug-charges    IRDMAX=  24350
   dimension x,y,z NGX =    60 NGY =   60 NGZ =   48
   dimension x,y,z NGXF=   120 NGYF=  120 NGZF=   96
   support grid    NGXF=   120 NGYF=  120 NGZF=   96
   ions per type =               8   8
   NGX,Y,Z   is equivalent  to a cutoff of  13.32, 13.32, 14.12 a.u.
   NGXF,Y,Z  is equivalent  to a cutoff of  26.64, 26.64, 28.24 a.u.

 SYSTEM =  unknown system                          
 POSCAR =  Fe8 Se8                                 

 Startparameter for this run:
   NWRITE =      2    write-flag & timer
   PREC   = accura    normal or accurate (medium, high low for compatibility)
   ISTART =      0    job   : 0-new  1-cont  2-samecut
   ICHARG =      2    charge: 1-file 2-atom 10-const
   ISPIN  =      2    spin polarized calculation?
   LNONCOLLINEAR =      F non collinear calculations
   LSORBIT =      F    spin-orbit coupling
   INIWAV =      1    electr: 0-lowe 1-rand  2-diag
   LASPH  =      T    aspherical Exc in radial PAW
 Electronic Relaxation 1
   ENCUT  =  550.0 eV  40.42 Ry    6.36 a.u.  14.32 14.32 10.81*2*pi/ulx,y,z
   ENINI  =  550.0     initial cutoff
   ENAUG  =  578.3 eV  augmentation charge cutoff
   NELM   =    100;   NELMIN=  2; NELMDL=  0     # of ELM steps 
   EDIFF  = 0.2E-03   stopping-criterion for ELM
   LREAL  =      T    real-space projection
   NLSPLINE    = F    spline interpolate recip. space projectors
   LCOMPAT=      F    compatible to vasp.4.4
   GGA_COMPAT  = T    GGA compatible to vasp.4.4-vasp.4.6
   LMAXPAW     = -100 max onsite density
   LMAXMIX     =    4 max onsite mixed and CHGCAR
   VOSKOWN=      0    Vosko Wilk Nusair interpolation
   ROPT   =   -0.00025  -0.00025
 Ionic relaxation
   EDIFFG = 0.2E-02   stopping-criterion for IOM
   NSW    =     99    number of steps for IOM
   NBLOCK =      1;   KBLOCK =     99    inner block; outer block 
   IBRION =      2    ionic relax: 0-MD 1-quasi-New 2-CG
   NFREE  =      1    steps in history (QN), initial steepest desc. (CG)
   ISIF   =      4    stress and relaxation
   IWAVPR =     11    prediction:  0-non 1-charg 2-wave 3-comb
   ISYM   =      2    0-nonsym 1-usesym 2-fastsym
   LCORR  =      T    Harris-Foulkes like correction to forces

   POTIM  = 0.5000    time-step for ionic-motion
   TEIN   =    0.0    initial temperature
   TEBEG  =    0.0;   TEEND  =   0.0 temperature during run
   SMASS  =  -3.00    Nose mass-parameter (am)
   estimated Nose-frequenzy (Omega)   =  0.10E-29 period in steps = 0.13E+47 mass=  -0.128E-26a.u.
   SCALEE = 1.0000    scale energy and forces
   NPACO  =    256;   APACO  = 10.0  distance and # of slots for P.C.
   PSTRESS=    0.0 pullay stress

  Mass of Ions in am
   POMASS =  55.85 78.96
  Ionic Valenz
   ZVAL   =  14.00  6.00
  Atomic Wigner-Seitz radii
   RWIGS  =  -1.00 -1.00
  virtual crystal weights 
   VCA    =   1.00  1.00
   NELECT =     160.0000    total number of electrons
   NUPDOWN=      -1.0000    fix difference up-down

 DOS related values:
   EMIN   =  10.00;   EMAX   =-10.00  energy-range for DOS
   EFERMI =   0.00;   METHOD = LEGACY      
   ISMEAR =     0;   SIGMA  =   0.05  broadening in eV -4-tet -1-fermi 0-gaus

 Electronic relaxation 2 (details)
   IALGO  =     68    algorithm
   LDIAG  =      T    sub-space diagonalisation (order eigenvalues)
   LSUBROT=      F    optimize rotation matrix (better conditioning)
   TURBO    =      0    0=normal 1=particle mesh
   IRESTART =      0    0=no restart 2=restart with 2 vectors
   NREBOOT  =      0    no. of reboots
   NMIN     =      0    reboot dimension
   EREF     =   0.00    reference energy to select bands
   IMIX   =      4    mixing-type and parameters
     AMIX     =   0.40;   BMIX     =  1.00
     AMIX_MAG =   1.60;   BMIX_MAG =  1.00
     AMIN     =   0.10
     WC   =   100.;   INIMIX=   1;  MIXPRE=   1;  MAXMIX= -45

 Intra band minimization:
   WEIMIN = 0.0010     energy-eigenvalue tresh-hold
   EBREAK =  0.50E-06  absolut break condition
   DEPER  =   0.30     relativ break condition  

   TIME   =   0.40     timestep for ELM

  volume/ion in A,a.u.               =      19.50       131.59
  Fermi-wavevector in a.u.,A,eV,Ry     =   1.310378  2.476256 23.362438  1.717091
  Thomas-Fermi vector in A             =   2.440912
 
 Write flags
   LWAVE        =      F    write WAVECAR
   LDOWNSAMPLE  =      F    k-point downsampling of WAVECAR
   LCHARG       =      T    write CHGCAR
   LVTOT        =      F    write LOCPOT, total local potential
   LVHAR        =      F    write LOCPOT, Hartree potential only
   LELF         =      F    write electronic localiz. function (ELF)
   LORBIT       =     11    0 simple, 1 ext, 2 COOP (PROOUT), +10 PAW based schemes


 Dipole corrections
   LMONO  =      F    monopole corrections only (constant potential shift)
   LDIPOL =      F    correct potential (dipole corrections)
   IDIPOL =      0    1-x, 2-y, 3-z, 4-all directions 
   EPSILON=  1.0000000 bulk dielectric constant

 Exchange correlation treatment:
   GGA     =    --    GGA type
   LEXCH   =     8    internal setting for exchange type
   LIBXC   =     F    Libxc                    
   VOSKOWN =     0    Vosko Wilk Nusair interpolation
   LHFCALC =     F    Hartree Fock is set to
   LHFONE  =     F    Hartree Fock one center treatment
   AEXX    =    0.0000 exact exchange contribution

 Linear response parameters
   LEPSILON=     F    determine dielectric tensor
   LRPA    =     F    only Hartree local field effects (RPA)
   LNABLA  =     F    use nabla operator in PAW spheres
   LVEL    =     F    velocity operator in full k-point grid
   CSHIFT  =0.1000    complex shift for real part using Kramers Kronig
   OMEGAMAX=  -1.0    maximum frequency
   DEG_THRESHOLD= 0.2000000E-02 threshold for treating states as degnerate
   RTIME   =   -0.100 relaxation time in fs
  (WPLASMAI=    0.000 imaginary part of plasma frequency in eV, 0.658/RTIME)
   DFIELD  = 0.0000000 0.0000000 0.0000000 field for delta impulse in time
 
  Optional k-point grid parameters
   LKPOINTS_OPT  =     F    use optional k-point grid
   KPOINTS_OPT_MODE=     1    mode for optional k-point grid
 
 Orbital magnetization related:
   ORBITALMAG=     F  switch on orbital magnetization
   LCHIMAG   =     F  perturbation theory with respect to B field
   DQ        =  0.001000  dq finite difference perturbation B field
   LLRAUG    =     F  two centre corrections for induced B field
   LBONE     =     F  B-component reconstruction in AE one-centre
   LVGVCALC  =     T  calculate vGv susceptibility
   LVGVAPPL  =     F  apply vGv susceptibility instead of pGv for G=0

 Random number generation:
   RANDOM_GENERATOR = DEFAULT
   PCG_SEED         = not used


--------------------------------------------------------------------------------------------------------


 conjugate gradient relaxation of ions
 charge density and potential will be updated during run
 spin polarized calculation
 RMM-DIIS sequential band-by-band and
  variant of blocked Davidson during initial phase
 perform sub-space diagonalisation
    before iterative eigenvector-optimisation
 modified Broyden-mixing scheme, WC =      100.0
 initial mixing is a Kerker type mixing with AMIX =  0.4000 and BMIX =      1.0000
 Hartree-type preconditioning will be used
 using additional bands           20
 real space projection scheme for non local part
 use partial core corrections
 calculate Harris-corrections to forces 
   (improved forces if not selfconsistent)
 use gradient corrections 
 use of overlap-Matrix (Vanderbilt PP)
 Gauss-broadening in eV      SIGMA  =   0.05


--------------------------------------------------------------------------------------------------------


  energy-cutoff  :      550.00
  volume of cell :      312.00
      direct lattice vectors                 reciprocal lattice vectors
     4.804212088 -5.745167298  0.000000000     0.104075339 -0.087029668  0.000000000
     4.804212088  5.745167298  0.000000000     0.104075339  0.087029668  0.000000000
     0.000000000  0.000000000  5.651968685     0.000000000  0.000000000  0.176929501

  length of vectors
     7.489152226  7.489152226  5.651968685     0.135668121  0.135668121  0.176929501


 
 k-points in units of 2pi/SCALE and weight: KPOINTS                                 
   0.00000000  0.00000000  0.00000000       0.002
   0.01486791 -0.01243281  0.00000000       0.009
   0.02973581 -0.02486562  0.00000000       0.009
   0.04460372 -0.03729843  0.00000000       0.009
   0.02973581  0.00000000  0.00000000       0.005
   0.04460372 -0.01243281  0.00000000       0.009
   0.05947162 -0.02486562  0.00000000       0.009
  -0.02973581  0.04973124  0.00000000       0.009
  -0.01486791  0.03729843  0.00000000       0.009
   0.00000000  0.02486562  0.00000000       0.005
   0.05947162  0.00000000  0.00000000       0.005
   0.07433953 -0.01243281  0.00000000       0.009
  -0.01486791  0.06216405  0.00000000       0.009
  -0.00000000  0.04973124  0.00000000       0.005
   0.08920743 -0.00000000  0.00000000       0.005
  -0.00000000  0.07459686  0.00000000       0.005
   0.00000000  0.00000000  0.01965883       0.005
   0.01486791 -0.01243281  0.01965883       0.018
   0.02973581 -0.02486562  0.01965883       0.018
   0.04460372 -0.03729843  0.01965883       0.018
   0.02973581  0.00000000  0.01965883       0.009
   0.04460372 -0.01243281  0.01965883       0.018
   0.05947162 -0.02486562  0.01965883       0.018
  -0.02973581  0.04973124  0.01965883       0.018
  -0.01486791  0.03729843  0.01965883       0.018
   0.00000000  0.02486562  0.01965883       0.009
   0.05947162  0.00000000  0.01965883       0.009
   0.07433953 -0.01243281  0.01965883       0.018
  -0.01486791  0.06216405  0.01965883       0.018
  -0.00000000  0.04973124  0.01965883       0.009
   0.08920743 -0.00000000  0.01965883       0.009
  -0.00000000  0.07459686  0.01965883       0.009
   0.00000000  0.00000000  0.03931767       0.005
   0.01486791 -0.01243281  0.03931767       0.018
   0.02973581 -0.02486562  0.03931767       0.018
   0.04460372 -0.03729843  0.03931767       0.018
   0.02973581  0.00000000  0.03931767       0.009
   0.04460372 -0.01243281  0.03931767       0.018
   0.05947162 -0.02486562  0.03931767       0.018
  -0.02973581  0.04973124  0.03931767       0.018
  -0.01486791  0.03729843  0.03931767       0.018
   0.00000000  0.02486562  0.03931767       0.009
   0.05947162  0.00000000  0.03931767       0.009
   0.07433953 -0.01243281  0.03931767       0.018
  -0.01486791  0.06216405  0.03931767       0.018
  -0.00000000  0.04973124  0.03931767       0.009
   0.08920743 -0.00000000  0.03931767       0.009
  -0.00000000  0.07459686  0.03931767       0.009
   0.00000000  0.00000000  0.05897650       0.005
   0.01486791 -0.01243281  0.05897650       0.018
   0.02973581 -0.02486562  0.05897650       0.018
   0.04460372 -0.03729843  0.05897650       0.018
   0.02973581  0.00000000  0.05897650       0.009
   0.04460372 -0.01243281  0.05897650       0.018
   0.05947162 -0.02486562  0.05897650       0.018
  -0.02973581  0.04973124  0.05897650       0.018
  -0.01486791  0.03729843  0.05897650       0.018
   0.00000000  0.02486562  0.05897650       0.009
   0.05947162  0.00000000  0.05897650       0.009
   0.07433953 -0.01243281  0.05897650       0.018
  -0.01486791  0.06216405  0.05897650       0.018
  -0.00000000  0.04973124  0.05897650       0.009
   0.08920743 -0.00000000  0.05897650       0.009
  -0.00000000  0.07459686  0.05897650       0.009
   0.00000000  0.00000000  0.07863533       0.005
   0.01486791 -0.01243281  0.07863533       0.018
   0.02973581 -0.02486562  0.07863533       0.018
   0.04460372 -0.03729843  0.07863533       0.018
   0.02973581  0.00000000  0.07863533       0.009
   0.04460372 -0.01243281  0.07863533       0.018
   0.05947162 -0.02486562  0.07863533       0.018
  -0.02973581  0.04973124  0.07863533       0.018
  -0.01486791  0.03729843  0.07863533       0.018
   0.00000000  0.02486562  0.07863533       0.009
   0.05947162  0.00000000  0.07863533       0.009
   0.07433953 -0.01243281  0.07863533       0.018
  -0.01486791  0.06216405  0.07863533       0.018
  -0.00000000  0.04973124  0.07863533       0.009
   0.08920743 -0.00000000  0.07863533       0.009
  -0.00000000  0.07459686  0.07863533       0.009
 
 k-points in reciprocal lattice and weights: KPOINTS                                 
   0.00000000  0.00000000  0.00000000       0.002
   0.14285714 -0.00000000  0.00000000       0.009
   0.28571429 -0.00000000  0.00000000       0.009
   0.42857143 -0.00000000  0.00000000       0.009
   0.14285714  0.14285714  0.00000000       0.005
   0.28571429  0.14285714  0.00000000       0.009
   0.42857143  0.14285714  0.00000000       0.009
  -0.42857143  0.14285714  0.00000000       0.009
  -0.28571429  0.14285714  0.00000000       0.009
  -0.14285714  0.14285714  0.00000000       0.005
   0.28571429  0.28571429  0.00000000       0.005
   0.42857143  0.28571429  0.00000000       0.009
  -0.42857143  0.28571429  0.00000000       0.009
  -0.28571429  0.28571429  0.00000000       0.005
   0.42857143  0.42857143  0.00000000       0.005
  -0.42857143  0.42857143  0.00000000       0.005
   0.00000000  0.00000000  0.11111111       0.005
   0.14285714 -0.00000000  0.11111111       0.018
   0.28571429 -0.00000000  0.11111111       0.018
   0.42857143 -0.00000000  0.11111111       0.018
   0.14285714  0.14285714  0.11111111       0.009
   0.28571429  0.14285714  0.11111111       0.018
   0.42857143  0.14285714  0.11111111       0.018
  -0.42857143  0.14285714  0.11111111       0.018
  -0.28571429  0.14285714  0.11111111       0.018
  -0.14285714  0.14285714  0.11111111       0.009
   0.28571429  0.28571429  0.11111111       0.009
   0.42857143  0.28571429  0.11111111       0.018
  -0.42857143  0.28571429  0.11111111       0.018
  -0.28571429  0.28571429  0.11111111       0.009
   0.42857143  0.42857143  0.11111111       0.009
  -0.42857143  0.42857143  0.11111111       0.009
   0.00000000  0.00000000  0.22222222       0.005
   0.14285714 -0.00000000  0.22222222       0.018
   0.28571429 -0.00000000  0.22222222       0.018
   0.42857143 -0.00000000  0.22222222       0.018
   0.14285714  0.14285714  0.22222222       0.009
   0.28571429  0.14285714  0.22222222       0.018
   0.42857143  0.14285714  0.22222222       0.018
  -0.42857143  0.14285714  0.22222222       0.018
  -0.28571429  0.14285714  0.22222222       0.018
  -0.14285714  0.14285714  0.22222222       0.009
   0.28571429  0.28571429  0.22222222       0.009
   0.42857143  0.28571429  0.22222222       0.018
  -0.42857143  0.28571429  0.22222222       0.018
  -0.28571429  0.28571429  0.22222222       0.009
   0.42857143  0.42857143  0.22222222       0.009
  -0.42857143  0.42857143  0.22222222       0.009
   0.00000000  0.00000000  0.33333333       0.005
   0.14285714 -0.00000000  0.33333333       0.018
   0.28571429 -0.00000000  0.33333333       0.018
   0.42857143 -0.00000000  0.33333333       0.018
   0.14285714  0.14285714  0.33333333       0.009
   0.28571429  0.14285714  0.33333333       0.018
   0.42857143  0.14285714  0.33333333       0.018
  -0.42857143  0.14285714  0.33333333       0.018
  -0.28571429  0.14285714  0.33333333       0.018
  -0.14285714  0.14285714  0.33333333       0.009
   0.28571429  0.28571429  0.33333333       0.009
   0.42857143  0.28571429  0.33333333       0.018
  -0.42857143  0.28571429  0.33333333       0.018
  -0.28571429  0.28571429  0.33333333       0.009
   0.42857143  0.42857143  0.33333333       0.009
  -0.42857143  0.42857143  0.33333333       0.009
   0.00000000  0.00000000  0.44444444       0.005
   0.14285714 -0.00000000  0.44444444       0.018
   0.28571429 -0.00000000  0.44444444       0.018
   0.42857143 -0.00000000  0.44444444       0.018
   0.14285714  0.14285714  0.44444444       0.009
   0.28571429  0.14285714  0.44444444       0.018
   0.42857143  0.14285714  0.44444444       0.018
  -0.42857143  0.14285714  0.44444444       0.018
  -0.28571429  0.14285714  0.44444444       0.018
  -0.14285714  0.14285714  0.44444444       0.009
   0.28571429  0.28571429  0.44444444       0.009
   0.42857143  0.28571429  0.44444444       0.018
  -0.42857143  0.28571429  0.44444444       0.018
  -0.28571429  0.28571429  0.44444444       0.009
   0.42857143  0.42857143  0.44444444       0.009
  -0.42857143  0.42857143  0.44444444       0.009
 
 position of ions in fractional coordinates (direct lattice) 
   0.00000000  0.00000000  0.00000000
   0.00000000  0.50000000  0.00000000
   0.50000000  0.00000000  0.00000000
   0.50000000  0.50000000  0.00000000
   0.25000000  0.25000000  0.00000000
   0.25000000  0.75000000  0.00000000
   0.75000000  0.25000000  0.00000000
   0.75000000  0.75000000  0.00000000
   0.37500000  0.12500000  0.68646077
   0.37500000  0.62500000  0.68646077
   0.87500000  0.12500000  0.68646077
   0.87500000  0.62500000  0.68646077
   0.12500000  0.37500000  0.31353923
   0.12500000  0.87500000  0.31353923
   0.62500000  0.37500000  0.31353923
   0.62500000  0.87500000  0.31353923
 
 position of ions in cartesian coordinates  (Angst):
   0.00000000  0.00000000  0.00000000
   2.40210604  2.87258365  0.00000000
   2.40210604 -2.87258365  0.00000000
   4.80421209  0.00000000  0.00000000
   2.40210604  0.00000000  0.00000000
   4.80421209  2.87258365  0.00000000
   4.80421209 -2.87258365  0.00000000
   7.20631813  0.00000000  0.00000000
   2.40210604 -1.43629182  3.87985479
   4.80421209  1.43629182  3.87985479
   4.80421209 -4.30887547  3.87985479
   7.20631813 -1.43629182  3.87985479
   2.40210604  1.43629182  1.77211390
   4.80421209  4.30887547  1.77211390
   4.80421209 -1.43629182  1.77211390
   7.20631813  1.43629182  1.77211390
 


--------------------------------------------------------------------------------------------------------


 k-point   1 :   0.0000 0.0000 0.0000  plane waves:    9131
 k-point   2 :   0.1429-0.0000 0.0000  plane waves:    9144
 k-point   3 :   0.2857-0.0000 0.0000  plane waves:    9122
 k-point   4 :   0.4286-0.0000 0.0000  plane waves:    9135
 k-point   5 :   0.1429 0.1429 0.0000  plane waves:    9135
 k-point   6 :   0.2857 0.1429 0.0000  plane waves:    9132
 k-point   7 :   0.4286 0.1429 0.0000  plane waves:    9143
 k-point   8 :  -0.4286 0.1429 0.0000  plane waves:    9123
 k-point   9 :  -0.2857 0.1429 0.0000  plane waves:    9148
 k-point  10 :  -0.1429 0.1429 0.0000  plane waves:    9140
 k-point  11 :   0.2857 0.2857 0.0000  plane waves:    9130
 k-point  12 :   0.4286 0.2857 0.0000  plane waves:    9151
 k-point  13 :  -0.4286 0.2857 0.0000  plane waves:    9139
 k-point  14 :  -0.2857 0.2857 0.0000  plane waves:    9142
 k-point  15 :   0.4286 0.4286 0.0000  plane waves:    9146
 k-point  16 :  -0.4286 0.4286 0.0000  plane waves:    9140
 k-point  17 :   0.0000 0.0000 0.1111  plane waves:    9147
 k-point  18 :   0.1429-0.0000 0.1111  plane waves:    9134
 k-point  19 :   0.2857-0.0000 0.1111  plane waves:    9134
 k-point  20 :   0.4286-0.0000 0.1111  plane waves:    9132
 k-point  21 :   0.1429 0.1429 0.1111  plane waves:    9111
 k-point  22 :   0.2857 0.1429 0.1111  plane waves:    9121
 k-point  23 :   0.4286 0.1429 0.1111  plane waves:    9138
 k-point  24 :  -0.4286 0.1429 0.1111  plane waves:    9138
 k-point  25 :  -0.2857 0.1429 0.1111  plane waves:    9129
 k-point  26 :  -0.1429 0.1429 0.1111  plane waves:    9127
 k-point  27 :   0.2857 0.2857 0.1111  plane waves:    9123
 k-point  28 :   0.4286 0.2857 0.1111  plane waves:    9144
 k-point  29 :  -0.4286 0.2857 0.1111  plane waves:    9145
 k-point  30 :  -0.2857 0.2857 0.1111  plane waves:    9138
 k-point  31 :   0.4286 0.4286 0.1111  plane waves:    9148
 k-point  32 :  -0.4286 0.4286 0.1111  plane waves:    9152
 k-point  33 :   0.0000 0.0000 0.2222  plane waves:    9148
 k-point  34 :   0.1429-0.0000 0.2222  plane waves:    9146
 k-point  35 :   0.2857-0.0000 0.2222  plane waves:    9142
 k-point  36 :   0.4286-0.0000 0.2222  plane waves:    9140
 k-point  37 :   0.1429 0.1429 0.2222  plane waves:    9126
 k-point  38 :   0.2857 0.1429 0.2222  plane waves:    9129
 k-point  39 :   0.4286 0.1429 0.2222  plane waves:    9133
 k-point  40 :  -0.4286 0.1429 0.2222  plane waves:    9130
 k-point  41 :  -0.2857 0.1429 0.2222  plane waves:    9131
 k-point  42 :  -0.1429 0.1429 0.2222  plane waves:    9144
 k-point  43 :   0.2857 0.2857 0.2222  plane waves:    9132
 k-point  44 :   0.4286 0.2857 0.2222  plane waves:    9135
 k-point  45 :  -0.4286 0.2857 0.2222  plane waves:    9123
 k-point  46 :  -0.2857 0.2857 0.2222  plane waves:    9123
 k-point  47 :   0.4286 0.4286 0.2222  plane waves:    9130
 k-point  48 :  -0.4286 0.4286 0.2222  plane waves:    9127
 k-point  49 :   0.0000 0.0000 0.3333  plane waves:    9158
 k-point  50 :   0.1429-0.0000 0.3333  plane waves:    9153
 k-point  51 :   0.2857-0.0000 0.3333  plane waves:    9146
 k-point  52 :   0.4286-0.0000 0.3333  plane waves:    9137
 k-point  53 :   0.1429 0.1429 0.3333  plane waves:    9158
 k-point  54 :   0.2857 0.1429 0.3333  plane waves:    9141
 k-point  55 :   0.4286 0.1429 0.3333  plane waves:    9131
 k-point  56 :  -0.4286 0.1429 0.3333  plane waves:    9150
 k-point  57 :  -0.2857 0.1429 0.3333  plane waves:    9154
 k-point  58 :  -0.1429 0.1429 0.3333  plane waves:    9149
 k-point  59 :   0.2857 0.2857 0.3333  plane waves:    9117
 k-point  60 :   0.4286 0.2857 0.3333  plane waves:    9118
 k-point  61 :  -0.4286 0.2857 0.3333  plane waves:    9139
 k-point  62 :  -0.2857 0.2857 0.3333  plane waves:    9124
 k-point  63 :   0.4286 0.4286 0.3333  plane waves:    9118
 k-point  64 :  -0.4286 0.4286 0.3333  plane waves:    9130
 k-point  65 :   0.0000 0.0000 0.4444  plane waves:    9130
 k-point  66 :   0.1429-0.0000 0.4444  plane waves:    9150
 k-point  67 :   0.2857-0.0000 0.4444  plane waves:    9145
 k-point  68 :   0.4286-0.0000 0.4444  plane waves:    9141
 k-point  69 :   0.1429 0.1429 0.4444  plane waves:    9161
 k-point  70 :   0.2857 0.1429 0.4444  plane waves:    9143
 k-point  71 :   0.4286 0.1429 0.4444  plane waves:    9161
 k-point  72 :  -0.4286 0.1429 0.4444  plane waves:    9157
 k-point  73 :  -0.2857 0.1429 0.4444  plane waves:    9150
 k-point  74 :  -0.1429 0.1429 0.4444  plane waves:    9146
 k-point  75 :   0.2857 0.2857 0.4444  plane waves:    9128
 k-point  76 :   0.4286 0.2857 0.4444  plane waves:    9132
 k-point  77 :  -0.4286 0.2857 0.4444  plane waves:    9126
 k-point  78 :  -0.2857 0.2857 0.4444  plane waves:    9161
 k-point  79 :   0.4286 0.4286 0.4444  plane waves:    9124
 k-point  80 :  -0.4286 0.4286 0.4444  plane waves:    9131

 maximum and minimum number of plane-waves per node :      9161     9111

 maximum number of plane-waves:      9161
 maximum index in each direction: 
   IXMAX=   14   IYMAX=   14   IZMAX=   10
   IXMIN=  -14   IYMIN=  -14   IZMIN=  -11


 serial   3D FFT for wavefunctions
 parallel 3D FFT for charge:
    minimum data exchange during FFTs selected (reduces bandwidth)


 total amount of memory used by VASP MPI-rank0   187869. kBytes
=======================================================================

   base      :      30000. kBytes
   nonlr-proj:      13896. kBytes
   fftplans  :       3084. kBytes
   grid      :      19560. kBytes
   one-center:        497. kBytes
   wavefun   :     120832. kBytes
 
     INWAV:  cpu time      0.0000: real time      0.0002
 Broyden mixing: mesh for mixing (old mesh)
   NGX = 29   NGY = 29   NGZ = 21
  (NGX  =120   NGY  =120   NGZ  = 96)
  gives a total of  17661 points

 initial charge density was supplied:
 charge density of overlapping atoms calculated
 number of electron     160.0000000 magnetization      -0.0000000
 keeping initial charge density in first step


--------------------------------------------------------------------------------------------------------


 Maximum index for non-local projection operator         6803
 Maximum index for augmentation-charges         1194 (set IRDMAX)


--------------------------------------------------------------------------------------------------------


 First call to EWALD:  gamma=   0.261
 Maximum number of real-space cells 3x 3x 3
 Maximum number of reciprocal cells 3x 3x 2

    FEWALD:  cpu time      0.0015: real time      0.0016


--------------------------------------- Ionic step        1  -------------------------------------------




--------------------------------------- Iteration      1(   1)  ---------------------------------------


    POTLOK:  cpu time      0.0655: real time      0.0725
    SETDIJ:  cpu time      0.2720: real time      0.2731
     EDDAV:  cpu time     30.6374: real time     30.8030
       DOS:  cpu time      0.0025: real time      0.0026
    --------------------------------------------
      LOOP:  cpu time     30.9774: real time     31.1512

 eigenvalue-minimisations  : 35260
 total energy-change (2. order) : 0.2020491E+04  (-0.8894276E+04)
 number of electron     160.0000000 magnetization      -0.0000000
 augmentation part      160.0000000 magnetization      -0.0000000

 Free energy of the ion-electron system (eV)
  ---------------------------------------------------
  alpha Z        PSCENC =       813.94738872
  Ewald energy   TEWEN  =    -11237.06862523
  -Hartree energ DENC   =     -9105.61101632
  -exchange      EXHF   =         0.00000000
  -V(xc)+E(xc)   XCENC  =       565.62146846
  PAW double counting   =     15528.12598780   -16123.90818458
  entropy T*S    EENTRO =        -0.00961125
  eigenvalues    EBANDS =      -131.44724799
  atomic energy  EATOM  =     21710.84102437
  Solvation  Ediel_sol  =         0.00000000
  ---------------------------------------------------
  free energy    TOTEN  =      2020.49118398 eV

  energy without entropy =     2020.50079523  energy(sigma->0) =     2020.49598961


--------------------------------------------------------------------------------------------------------




--------------------------------------- Iteration      1(   2)  ---------------------------------------


     EDDAV:  cpu time     26.9393: real time     27.1027
       DOS:  cpu time      0.0022: real time      0.0022
    --------------------------------------------
      LOOP:  cpu time     26.9415: real time     27.1049

 eigenvalue-minimisations  : 32000
 total energy-change (2. order) :-0.1896808E+04  (-0.1842288E+04)
 number of electron     160.0000000 magnetization      -0.0000000
 augmentation part      160.0000000 magnetization      -0.0000000

 Free energy of the ion-electron system (eV)
  ---------------------------------------------------
  alpha Z        PSCENC =       813.94738872
  Ewald energy   TEWEN  =    -11237.06862523
  -Hartree energ DENC   =     -9105.61101632
  -exchange      EXHF   =         0.00000000
  -V(xc)+E(xc)   XCENC  =       565.62146846
  PAW double counting   =     15528.12598780   -16123.90818458
  entropy T*S    EENTRO =        -0.01557857
  eigenvalues    EBANDS =     -2028.24951482
  atomic energy  EATOM  =     21710.84102437
  Solvation  Ediel_sol  =         0.00000000
  ---------------------------------------------------
  free energy    TOTEN  =       123.68294983 eV

  energy without entropy =      123.69852840  energy(sigma->0) =      123.69073911


--------------------------------------------------------------------------------------------------------




--------------------------------------- Iteration      1(   3)  ---------------------------------------


     EDDAV:  cpu time     37.5555: real time     37.8122
       DOS:  cpu time      0.0022: real time      0.0022
    --------------------------------------------
      LOOP:  cpu time     37.5577: real time     37.8144

 eigenvalue-minimisations  : 45540
 total energy-change (2. order) :-0.2084078E+03  (-0.1856918E+03)
 number of electron     160.0000000 magnetization      -0.0000000
 augmentation part      160.0000000 magnetization      -0.0000000

 Free energy of the ion-electron system (eV)
  ---------------------------------------------------
  alpha Z        PSCENC =       813.94738872
  Ewald energy   TEWEN  =    -11237.06862523
  -Hartree energ DENC   =     -9105.61101632
  -exchange      EXHF   =         0.00000000
  -V(xc)+E(xc)   XCENC  =       565.62146846
  PAW double counting   =     15528.12598780   -16123.90818458
  entropy T*S    EENTRO =        -0.02793921
  eigenvalues    EBANDS =     -2236.64497378
  atomic energy  EATOM  =     21710.84102437
  Solvation  Ediel_sol  =         0.00000000
  ---------------------------------------------------
  free energy    TOTEN  =       -84.72486977 eV

  energy without entropy =      -84.69693056  energy(sigma->0) =      -84.71090016


--------------------------------------------------------------------------------------------------------




--------------------------------------- Iteration      1(   4)  ---------------------------------------


     EDDAV:  cpu time     37.0340: real time     37.2414
       DOS:  cpu time      0.0021: real time      0.0022
    --------------------------------------------
      LOOP:  cpu time     37.0362: real time     37.2436

 eigenvalue-minimisations  : 46800
 total energy-change (2. order) :-0.1466630E+02  (-0.1434877E+02)
 number of electron     160.0000000 magnetization      -0.0000000
 augmentation part      160.0000000 magnetization      -0.0000000

 Free energy of the ion-electron system (eV)
  ---------------------------------------------------
  alpha Z        PSCENC =       813.94738872
  Ewald energy   TEWEN  =    -11237.06862523
  -Hartree energ DENC   =     -9105.61101632
  -exchange      EXHF   =         0.00000000
  -V(xc)+E(xc)   XCENC  =       565.62146846
  PAW double counting   =     15528.12598780   -16123.90818458
  entropy T*S    EENTRO =        -0.02889752
  eigenvalues    EBANDS =     -2251.31031560
  atomic energy  EATOM  =     21710.84102437
  Solvation  Ediel_sol  =         0.00000000
  ---------------------------------------------------
  free energy    TOTEN  =       -99.39116990 eV

  energy without entropy =      -99.36227238  energy(sigma->0) =      -99.37672114


--------------------------------------------------------------------------------------------------------




--------------------------------------- Iteration      1(   5)  ---------------------------------------


     EDDAV:  cpu time     36.5998: real time     36.8270
       DOS:  cpu time      0.0022: real time      0.0022
    CHARGE:  cpu time      0.9810: real time      0.9880
    MIXING:  cpu time      0.0014: real time      0.0014
    --------------------------------------------
      LOOP:  cpu time     37.5845: real time     37.8186

 eigenvalue-minimisations  : 45040
 total energy-change (2. order) :-0.3434451E+00  (-0.3426688E+00)
 number of electron     160.0000057 magnetization      -0.0000000
 augmentation part       53.1662376 magnetization      -0.0000000

 Broyden mixing:
  rms(total) = 0.27338E+01    rms(broyden)= 0.27334E+01
  rms(prec ) = 0.42903E+01
  weight for this iteration     100.00

 Free energy of the ion-electron system (eV)
  ---------------------------------------------------
  alpha Z        PSCENC =       813.94738872
  Ewald energy   TEWEN  =    -11237.06862523
  -Hartree energ DENC   =     -9105.61101632
  -exchange      EXHF   =         0.00000000
  -V(xc)+E(xc)   XCENC  =       565.62146846
  PAW double counting   =     15528.12598780   -16123.90818458
  entropy T*S    EENTRO =        -0.02873844
  eigenvalues    EBANDS =     -2251.65391976
  atomic energy  EATOM  =     21710.84102437
  Solvation  Ediel_sol  =         0.00000000
  ---------------------------------------------------
  free energy    TOTEN  =       -99.73461498 eV

  energy without entropy =      -99.70587654  energy(sigma->0) =      -99.72024576


--------------------------------------------------------------------------------------------------------




--------------------------------------- Iteration      1(   6)  ---------------------------------------


    POTLOK:  cpu time      0.0717: real time      0.0806
    SETDIJ:  cpu time      0.2664: real time      0.2675
    EDDIAG:  cpu time      4.4875: real time      4.5121
  RMM-DIIS:  cpu time     17.0133: real time     17.1031
    ORTHCH:  cpu time      0.6029: real time      0.6057
       DOS:  cpu time      0.0022: real time      0.0022
    CHARGE:  cpu time      1.1660: real time      1.1728
    MIXING:  cpu time      0.0016: real time      0.0016
    --------------------------------------------
      LOOP:  cpu time     23.6117: real time     23.7457

 eigenvalue-minimisations  : 32058
 total energy-change (2. order) :-0.1258965E+02  (-0.1678562E+02)
 number of electron     160.0000068 magnetization      -0.0000000
 augmentation part       69.8634377 magnetization      -0.0000000

 Broyden mixing:
  rms(total) = 0.51142E+01    rms(broyden)= 0.51140E+01
  rms(prec ) = 0.81686E+01
  weight for this iteration     100.00

 eigenvalues of (default mixing * dielectric matrix)
  average eigenvalue GAMMA=   0.3013
  0.3013

 Free energy of the ion-electron system (eV)
  ---------------------------------------------------
  alpha Z        PSCENC =       813.94738872
  Ewald energy   TEWEN  =    -11237.06862523
  -Hartree energ DENC   =     -8650.02807231
  -exchange      EXHF   =         0.00000000
  -V(xc)+E(xc)   XCENC  =       553.64373282
  PAW double counting   =     14999.59629968   -15563.92574782
  entropy T*S    EENTRO =        -0.02763382
  eigenvalues    EBANDS =     -2739.30263352
  atomic energy  EATOM  =     21710.84102437
  Solvation  Ediel_sol  =         0.00000000
  ---------------------------------------------------
  free energy    TOTEN  =      -112.32426711 eV

  energy without entropy =     -112.29663330  energy(sigma->0) =     -112.31045020


--------------------------------------------------------------------------------------------------------




--------------------------------------- Iteration      1(   7)  ---------------------------------------


    POTLOK:  cpu time      0.0566: real time      0.1029
    SETDIJ:  cpu time      0.2669: real time      0.2681
    EDDIAG:  cpu time      4.6236: real time      4.6490
  RMM-DIIS:  cpu time     17.3251: real time     17.4146
    ORTHCH:  cpu time      0.6109: real time      0.6138
       DOS:  cpu time      0.0023: real time      0.0023
    CHARGE:  cpu time      1.1166: real time      1.1227
    MIXING:  cpu time      0.0016: real time      0.0016
    --------------------------------------------
      LOOP:  cpu time     24.0036: real time     24.1750

 eigenvalue-minimisations  : 32015
 total energy-change (2. order) : 0.2140929E+02  (-0.4253685E+01)
 number of electron     160.0000059 magnetization       0.0000000
 augmentation part       57.9232126 magnetization       0.0000000

 Broyden mixing:
  rms(total) = 0.10611E+01    rms(broyden)= 0.10604E+01
  rms(prec ) = 0.12714E+01
  weight for this iteration     100.00

 eigenvalues of (default mixing * dielectric matrix)
  average eigenvalue GAMMA=   0.4475
  0.6243  0.2708

 Free energy of the ion-electron system (eV)
  ---------------------------------------------------
  alpha Z        PSCENC =       813.94738872
  Ewald energy   TEWEN  =    -11237.06862523
  -Hartree energ DENC   =     -8929.63586346
  -exchange      EXHF   =         0.00000000
  -V(xc)+E(xc)   XCENC  =       558.71409940
  PAW double counting   =     15489.59768165   -16086.84762718
  entropy T*S    EENTRO =        -0.03514715
  eigenvalues    EBANDS =     -2410.42790484
  atomic energy  EATOM  =     21710.84102437
  Solvation  Ediel_sol  =         0.00000000
  ---------------------------------------------------
  free energy    TOTEN  =       -90.91497372 eV

  energy without entropy =      -90.87982657  energy(sigma->0) =      -90.89740015


--------------------------------------------------------------------------------------------------------




--------------------------------------- Iteration      1(   8)  ---------------------------------------


    POTLOK:  cpu time      0.0551: real time      0.0556
    SETDIJ:  cpu time      0.2656: real time      0.2668
    EDDIAG:  cpu time      4.6135: real time      4.6365
  RMM-DIIS:  cpu time     20.6188: real time     20.7278
    ORTHCH:  cpu time      0.5926: real time      0.5952
       DOS:  cpu time      0.0022: real time      0.0022
    CHARGE:  cpu time      1.0946: real time      1.1001
    MIXING:  cpu time      0.0016: real time      0.0016
    --------------------------------------------
      LOOP:  cpu time     27.2441: real time     27.3858

 eigenvalue-minimisations  : 41146
 total energy-change (2. order) :-0.5488267E+00  (-0.2998272E+00)
 number of electron     160.0000059 magnetization      -0.0000000
 augmentation part       58.4271475 magnetization      -0.0000000

 Broyden mixing:
  rms(total) = 0.48357E+00    rms(broyden)= 0.48328E+00
  rms(prec ) = 0.63602E+00
  weight for this iteration     100.00

 eigenvalues of (default mixing * dielectric matrix)
  average eigenvalue GAMMA=   0.6601
  0.3111  0.8345  0.8345

 Free energy of the ion-electron system (eV)
  ---------------------------------------------------
  alpha Z        PSCENC =       813.94738872
  Ewald energy   TEWEN  =    -11237.06862523
  -Hartree energ DENC   =     -8918.20002507
  -exchange      EXHF   =         0.00000000
  -V(xc)+E(xc)   XCENC  =       559.13756950
  PAW double counting   =     15548.74038091   -16152.95469262
  entropy T*S    EENTRO =        -0.02740091
  eigenvalues    EBANDS =     -2415.87942012
  atomic energy  EATOM  =     21710.84102437
  Solvation  Ediel_sol  =         0.00000000
  ---------------------------------------------------
  free energy    TOTEN  =       -91.46380045 eV

  energy without entropy =      -91.43639955  energy(sigma->0) =      -91.45010000


--------------------------------------------------------------------------------------------------------




--------------------------------------- Iteration      1(   9)  ---------------------------------------


    POTLOK:  cpu time      0.0810: real time      0.0888
    SETDIJ:  cpu time      0.2656: real time      0.2667
    EDDIAG:  cpu time      4.5378: real time      4.5623
  RMM-DIIS:  cpu time     23.0645: real time     23.1916
    ORTHCH:  cpu time      0.5982: real time      0.6009
       DOS:  cpu time      0.0021: real time      0.0021
    CHARGE:  cpu time      1.0926: real time      1.0980
    MIXING:  cpu time      0.0019: real time      0.0019
    --------------------------------------------
      LOOP:  cpu time     29.6435: real time     29.8124

 eigenvalue-minimisations  : 44829
 total energy-change (2. order) :-0.7665047E-01  (-0.8462550E-01)
 number of electron     160.0000059 magnetization       0.0000000
 augmentation part       58.7999500 magnetization       0.0000000

 Broyden mixing:
  rms(total) = 0.25907E+00    rms(broyden)= 0.25862E+00
  rms(prec ) = 0.31571E+00
  weight for this iteration     100.00

 eigenvalues of (default mixing * dielectric matrix)
  average eigenvalue GAMMA=   0.8793
  1.2453  1.2453  0.3070  0.7196

 Free energy of the ion-electron system (eV)
  ---------------------------------------------------
  alpha Z        PSCENC =       813.94738872
  Ewald energy   TEWEN  =    -11237.06862523
  -Hartree energ DENC   =     -8903.22592611
  -exchange      EXHF   =         0.00000000
  -V(xc)+E(xc)   XCENC  =       559.32179656
  PAW double counting   =     15638.11301336   -16248.77874539
  entropy T*S    EENTRO =        -0.01901252
  eigenvalues    EBANDS =     -2424.67136469
  atomic energy  EATOM  =     21710.84102437
  Solvation  Ediel_sol  =         0.00000000
  ---------------------------------------------------
  free energy    TOTEN  =       -91.54045093 eV

  energy without entropy =      -91.52143841  energy(sigma->0) =      -91.53094467


--------------------------------------------------------------------------------------------------------




--------------------------------------- Iteration      1(  10)  ---------------------------------------


    POTLOK:  cpu time      0.0586: real time      0.1112
    SETDIJ:  cpu time      0.2677: real time      0.2687
    EDDIAG:  cpu time      4.6521: real time      4.6746
  RMM-DIIS:  cpu time     24.7662: real time     24.8973
    ORTHCH:  cpu time      0.5857: real time      0.5887
       DOS:  cpu time      0.0021: real time      0.0021
    CHARGE:  cpu time      1.0494: real time      1.0548
    MIXING:  cpu time      0.0016: real time      0.0016
    --------------------------------------------
      LOOP:  cpu time     31.3834: real time     31.5990

 eigenvalue-minimisations  : 46054
 total energy-change (2. order) :-0.1125994E-01  (-0.2599205E-01)
 number of electron     160.0000059 magnetization       0.0000000
 augmentation part       58.9800872 magnetization       0.0000000

 Broyden mixing:
  rms(total) = 0.12631E+00    rms(broyden)= 0.12607E+00
  rms(prec ) = 0.14352E+00
  weight for this iteration     100.00

 eigenvalues of (default mixing * dielectric matrix)
  average eigenvalue GAMMA=   1.0413
  2.0764  0.3071  1.1916  0.9206  0.7107

 Free energy of the ion-electron system (eV)
  ---------------------------------------------------
  alpha Z        PSCENC =       813.94738872
  Ewald energy   TEWEN  =    -11237.06862523
  -Hartree energ DENC   =     -8896.22504406
  -exchange      EXHF   =         0.00000000
  -V(xc)+E(xc)   XCENC  =       559.35663680
  PAW double counting   =     15706.19798519   -16321.10783130
  entropy T*S    EENTRO =        -0.01725401
  eigenvalues    EBANDS =     -2427.47599135
  atomic energy  EATOM  =     21710.84102437
  Solvation  Ediel_sol  =         0.00000000
  ---------------------------------------------------
  free energy    TOTEN  =       -91.55171087 eV

  energy without entropy =      -91.53445686  energy(sigma->0) =      -91.54308387


--------------------------------------------------------------------------------------------------------




--------------------------------------- Iteration      1(  11)  ---------------------------------------


    POTLOK:  cpu time      0.0822: real time      0.0828
    SETDIJ:  cpu time      0.2664: real time      0.2673
    EDDIAG:  cpu time      4.4264: real time      4.4514
  RMM-DIIS:  cpu time     22.3166: real time     22.4339
    ORTHCH:  cpu time      0.5949: real time      0.5975
       DOS:  cpu time      0.0021: real time      0.0021
    CHARGE:  cpu time      1.0821: real time      1.0878
    MIXING:  cpu time      0.0017: real time      0.0018
    --------------------------------------------
      LOOP:  cpu time     28.7724: real time     28.9245

 eigenvalue-minimisations  : 42581
 total energy-change (2. order) :-0.5459550E-02  (-0.5285707E-02)
 number of electron     160.0000059 magnetization       0.0000000
 augmentation part       58.9631956 magnetization       0.0000000

 Broyden mixing:
  rms(total) = 0.45608E-01    rms(broyden)= 0.45573E-01
  rms(prec ) = 0.49165E-01
  weight for this iteration     100.00

 eigenvalues of (default mixing * dielectric matrix)
  average eigenvalue GAMMA=   1.0961
  1.8827  1.8827  0.3071  0.9183  0.9183  0.6677

 Free energy of the ion-electron system (eV)
  ---------------------------------------------------
  alpha Z        PSCENC =       813.94738872
  Ewald energy   TEWEN  =    -11237.06862523
  -Hartree energ DENC   =     -8894.36552451
  -exchange      EXHF   =         0.00000000
  -V(xc)+E(xc)   XCENC  =       559.45930637
  PAW double counting   =     15754.33974233   -16371.65872134
  entropy T*S    EENTRO =        -0.01763372
  eigenvalues    EBANDS =     -2427.03412741
  atomic energy  EATOM  =     21710.84102437
  Solvation  Ediel_sol  =         0.00000000
  ---------------------------------------------------
  free energy    TOTEN  =       -91.55717042 eV

  energy without entropy =      -91.53953670  energy(sigma->0) =      -91.54835356


--------------------------------------------------------------------------------------------------------




--------------------------------------- Iteration      1(  12)  ---------------------------------------


    POTLOK:  cpu time      0.0544: real time      0.0982
    SETDIJ:  cpu time      0.2676: real time      0.2686
    EDDIAG:  cpu time      4.6343: real time      4.6573
  RMM-DIIS:  cpu time     22.0951: real time     22.2136
    ORTHCH:  cpu time      0.5964: real time      0.5991
       DOS:  cpu time      0.0022: real time      0.0023
    CHARGE:  cpu time      1.1137: real time      1.1203
    MIXING:  cpu time      0.0018: real time      0.0018
    --------------------------------------------
      LOOP:  cpu time     28.7656: real time     28.9612

 eigenvalue-minimisations  : 43118
 total energy-change (2. order) :-0.5844366E-02  (-0.1401332E-02)
 number of electron     160.0000059 magnetization       0.0000000
 augmentation part       58.9747748 magnetization       0.0000000

 Broyden mixing:
  rms(total) = 0.25501E-01    rms(broyden)= 0.25480E-01
  rms(prec ) = 0.30016E-01
  weight for this iteration     100.00

 eigenvalues of (default mixing * dielectric matrix)
  average eigenvalue GAMMA=   1.0790
  2.3221  0.3071  1.2252  1.2252  1.0567  0.7630  0.6538

 Free energy of the ion-electron system (eV)
  ---------------------------------------------------
  alpha Z        PSCENC =       813.94738872
  Ewald energy   TEWEN  =    -11237.06862523
  -Hartree energ DENC   =     -8894.36158371
  -exchange      EXHF   =         0.00000000
  -V(xc)+E(xc)   XCENC  =       559.47113434
  PAW double counting   =     15757.11042253   -16374.41914100
  entropy T*S    EENTRO =        -0.01812675
  eigenvalues    EBANDS =     -2427.06550806
  atomic energy  EATOM  =     21710.84102437
  Solvation  Ediel_sol  =         0.00000000
  ---------------------------------------------------
  free energy    TOTEN  =       -91.56301479 eV

  energy without entropy =      -91.54488804  energy(sigma->0) =      -91.55395142


--------------------------------------------------------------------------------------------------------




--------------------------------------- Iteration      1(  13)  ---------------------------------------


    POTLOK:  cpu time      0.0594: real time      0.0700
    SETDIJ:  cpu time      0.2664: real time      0.2673
    EDDIAG:  cpu time      4.5485: real time      4.5725
  RMM-DIIS:  cpu time     18.7973: real time     18.8982
    ORTHCH:  cpu time      0.5876: real time      0.5901
       DOS:  cpu time      0.0022: real time      0.0022
    CHARGE:  cpu time      1.0519: real time      1.0589
    MIXING:  cpu time      0.0020: real time      0.0020
    --------------------------------------------
      LOOP:  cpu time     25.3153: real time     25.4613

 eigenvalue-minimisations  : 35205
 total energy-change (2. order) : 0.4053102E-04  (-0.3254575E-03)
 number of electron     160.0000059 magnetization       0.0000000
 augmentation part       58.9805429 magnetization       0.0000000

 Broyden mixing:
  rms(total) = 0.11900E-01    rms(broyden)= 0.11889E-01
  rms(prec ) = 0.14287E-01
  weight for this iteration     100.00

 eigenvalues of (default mixing * dielectric matrix)
  average eigenvalue GAMMA=   1.1247
  2.6031  1.3316  1.3316  0.3071  1.2245  0.8298  0.7275  0.6425

 Free energy of the ion-electron system (eV)
  ---------------------------------------------------
  alpha Z        PSCENC =       813.94738872
  Ewald energy   TEWEN  =    -11237.06862523
  -Hartree energ DENC   =     -8894.35822621
  -exchange      EXHF   =         0.00000000
  -V(xc)+E(xc)   XCENC  =       559.49935159
  PAW double counting   =     15759.26690068   -16376.58810656
  entropy T*S    EENTRO =        -0.01800265
  eigenvalues    EBANDS =     -2427.08467897
  atomic energy  EATOM  =     21710.84102437
  Solvation  Ediel_sol  =         0.00000000
  ---------------------------------------------------
  free energy    TOTEN  =       -91.56297426 eV

  energy without entropy =      -91.54497161  energy(sigma->0) =      -91.55397293


--------------------------------------------------------------------------------------------------------




--------------------------------------- Iteration      1(  14)  ---------------------------------------


    POTLOK:  cpu time      0.0748: real time      0.0754
    SETDIJ:  cpu time      0.2675: real time      0.2686
    EDDIAG:  cpu time      4.5712: real time      4.5931
  RMM-DIIS:  cpu time     12.8407: real time     12.9103
    ORTHCH:  cpu time      0.5894: real time      0.5920
       DOS:  cpu time      0.0022: real time      0.0022
    --------------------------------------------
      LOOP:  cpu time     18.3458: real time     18.4416

 eigenvalue-minimisations  : 23947
 total energy-change (2. order) :-0.2883801E-04  (-0.1014239E-03)
 number of electron     160.0000059 magnetization       0.0000000
 augmentation part       58.9805429 magnetization       0.0000000

 Free energy of the ion-electron system (eV)
  ---------------------------------------------------
  alpha Z        PSCENC =       813.94738872
  Ewald energy   TEWEN  =    -11237.06862523
  -Hartree energ DENC   =     -8894.34936167
  -exchange      EXHF   =         0.00000000
  -V(xc)+E(xc)   XCENC  =       559.51294159
  PAW double counting   =     15760.77534072   -16378.06479912
  entropy T*S    EENTRO =        -0.01784652
  eigenvalues    EBANDS =     -2427.13906596
  atomic energy  EATOM  =     21710.84102437
  Solvation  Ediel_sol  =         0.00000000
  ---------------------------------------------------
  free energy    TOTEN  =       -91.56300310 eV

  energy without entropy =      -91.54515657  energy(sigma->0) =      -91.55407983


--------------------------------------------------------------------------------------------------------




 average (electrostatic) potential at core
  the test charge radii are     0.9500  1.0808
  (the norm of the test charge is              1.0000)
       1 -47.3844       2 -47.3844       3 -47.3844       4 -47.3844       5 -47.3844
       6 -47.3844       7 -47.3844       8 -47.3844       9 -54.9616      10 -54.9616
      11 -54.9616      12 -54.9616      13 -54.9616      14 -54.9616      15 -54.9616
      16 -54.9616
 
 
 
 E-fermi :   3.7825     XC(G=0): -10.4171     alpha+bet : -9.3261

 Fermi energy:         3.7825129031

 spin component 1

 k-point     1 :       0.0000    0.0000    0.0000
  band No.  band energies     occupation 
      1     -50.9975      1.00000
      2     -50.9892      1.00000
      3     -50.9892      1.00000
      4     -50.9843      1.00000
      5     -50.8782      1.00000
      6     -50.8224      1.00000
      7     -50.8171      1.00000
      8     -50.8171      1.00000
      9     -50.8090      1.00000
     10     -50.7072      1.00000
     11     -50.7072      1.00000
     12     -50.5334      1.00000
     13     -48.2037      1.00000
     14     -48.2018      1.00000
     15     -48.2018      1.00000
     16     -48.2016      1.00000
     17     -48.1814      1.00000
     18     -47.9923      1.00000
     19     -47.9923      1.00000
     20     -47.8423      1.00000
     21     -47.8423      1.00000
     22     -47.8420      1.00000
     23     -47.8400      1.00000
     24     -47.7996      1.00000
     25     -10.5140      1.00000
     26      -9.3755      1.00000
     27      -9.3755      1.00000
     28      -9.3598      1.00000
     29      -9.3598      1.00000
     30      -9.1078      1.00000
     31      -8.9273      1.00000
     32      -8.8018      1.00000
     33      -2.3475      1.00000
     34      -2.0504      1.00000
     35      -1.0583      1.00000
     36      -1.0583      1.00000
     37      -1.0403      1.00000
     38      -1.0403      1.00000
     39      -0.7035      1.00000
     40      -0.5714      1.00000
     41      -0.5140      1.00000
     42      -0.4024      1.00000
     43      -0.4024      1.00000
     44      -0.2435      1.00000
     45      -0.2381      1.00000
     46      -0.2381      1.00000
     47      -0.2348      1.00000
     48       0.0173      1.00000
     49       0.3079      1.00000
     50       0.3079      1.00000
     51       0.3140      1.00000
     52       0.7252      1.00000
     53       0.7252      1.00000
     54       0.9665      1.00000
     55       1.0120      1.00000
     56       1.1232      1.00000
     57       1.3546      1.00000
     58       1.3546      1.00000
     59       1.4262      1.00000
     60       1.4262      1.00000
     61       1.5124      1.00000
     62       1.5620      1.00000
     63       1.7005      1.00000
     64       1.7599      1.00000
     65       1.9672      1.00000
     66       1.9672      1.00000
     67       1.9841      1.00000
     68       2.1228      1.00000
     69       2.1800      1.00000
     70       2.3060      1.00000
     71       2.3060      1.00000
     72       2.5276      1.00000
     73       2.9951      1.00000
     74       3.0354      1.00000
     75       3.0354      1.00000
     76       3.0931      1.00000
     77       3.0931      1.00000
     78       3.5245      1.00000
     79       3.5886      1.00000
     80       3.6032      1.00000
     81       3.6394      0.99997
     82       4.2328      0.00000
     83       4.2328      0.00000
     84       4.2985      0.00000
     85       4.2985      0.00000
     86       4.3277      0.00000
     87       4.3731      0.00000
     88       4.6282      0.00000
     89       4.6283      0.00000
     90       4.6318      0.00000
     91       4.6319      0.00000
     92       4.7244      0.00000
     93       5.2048      0.00000
[...]
         0         1         2         3         4         5         6         7         8         9
 total charge-density along one line
 
 soft charge-density along one line, spin component           2
         0         1         2         3         4         5         6         7         8         9
 total charge-density along one line
 
 pseudopotential strength for first ion, spin component:           1
-55.202   0.043  -0.000  28.371  -0.035   0.000  -0.000   0.000
  0.043 -55.259  -0.000  -0.035  28.414   0.000  -0.000   0.000
 -0.000  -0.000 -55.084   0.000   0.000  28.278   0.000  -0.000
 28.371  -0.035   0.000 -10.131   0.026  -0.000   0.000  -0.000
 -0.035  28.414   0.000   0.026 -10.161  -0.000   0.000  -0.000
  0.000   0.000  28.278  -0.000  -0.000 -10.068  -0.000   0.000
 -0.000  -0.000   0.000   0.000   0.000  -0.000  -8.907  -0.000
  0.000   0.000  -0.000  -0.000  -0.000   0.000  -0.000  -8.711
 -0.000   0.000   0.000   0.000  -0.000  -0.000   0.000  -0.020
 -0.000  -0.000   0.000   0.000   0.000  -0.000  -0.034  -0.000
 -0.000  -0.000  -0.000   0.000   0.000   0.000  -0.000  -0.095
  0.000   0.000  -0.000  -0.000  -0.000   0.000  -0.065   0.000
 -0.000  -0.000   0.000   0.000   0.000  -0.000   0.000  -0.112
  0.000  -0.000  -0.000  -0.000   0.000   0.000  -0.000   0.005
  0.000   0.000  -0.000  -0.000  -0.000   0.000   0.007   0.000
  0.000   0.000   0.000  -0.000  -0.000  -0.000   0.000   0.023
 -0.000  -0.000   0.000   0.000   0.000  -0.000   0.000  -0.011
  0.000   0.000  -0.000  -0.000  -0.000   0.000  -0.000   0.002
 pseudopotential strength for first ion, spin component:           2
-53.032   0.104  -0.000  26.713  -0.075   0.000  -0.000   0.000
  0.104 -53.047  -0.000  -0.075  26.722   0.000  -0.000   0.000
 -0.000  -0.000 -53.015   0.000   0.000  26.692   0.000  -0.000
 26.713  -0.075   0.000  -8.958   0.056  -0.000   0.000  -0.000
 -0.075  26.722   0.000   0.056  -8.966  -0.000   0.000  -0.000
  0.000   0.000  26.692  -0.000  -0.000  -8.947  -0.000   0.000
 -0.000  -0.000   0.000   0.000   0.000  -0.000  -6.779  -0.000
  0.000   0.000  -0.000  -0.000  -0.000   0.000  -0.000  -7.148
 -0.000   0.000   0.000   0.000  -0.000  -0.000   0.000   0.089
 -0.000  -0.000   0.000   0.000   0.000  -0.000   0.115  -0.000
 -0.000  -0.000  -0.000   0.000   0.000   0.000  -0.000   0.011
  0.000   0.000  -0.000  -0.000  -0.000   0.000  -0.562   0.000
 -0.000  -0.000   0.000   0.000   0.000  -0.000   0.000  -0.476
  0.000  -0.000  -0.000  -0.000   0.000   0.000  -0.000  -0.019
  0.000   0.000  -0.000  -0.000  -0.000   0.000  -0.025   0.000
  0.000   0.000   0.000  -0.000  -0.000  -0.000   0.000  -0.004
 -0.000  -0.000   0.000   0.000   0.000  -0.000   0.000  -0.012
  0.000   0.000  -0.000  -0.000  -0.000   0.000  -0.000   0.003
 total augmentation occupancy for first ion, spin component:           1
  2.010  -0.019  -0.000   0.056  -0.046  -0.000   0.000   0.000   0.000  -0.000  -0.000   0.000   0.000  -0.000  -0.000   0.000
 -0.019   2.013   0.000  -0.046   0.064  -0.000   0.000  -0.000   0.000  -0.000  -0.000   0.000   0.000  -0.000   0.000   0.000
 -0.000  -0.000   2.010  -0.000   0.000   0.053   0.000   0.000   0.000   0.000   0.000   0.000   0.000   0.000   0.000  -0.000
  0.056  -0.046  -0.000   0.194  -0.112  -0.000  -0.000  -0.000  -0.000  -0.000   0.000   0.000  -0.000   0.000  -0.000  -0.000
 -0.046   0.064  -0.000  -0.112   0.215  -0.000  -0.000  -0.000   0.000  -0.000  -0.000  -0.000   0.000   0.000  -0.000   0.000
 -0.000   0.000   0.053  -0.000   0.000   0.179   0.000   0.000   0.000  -0.000  -0.000   0.000   0.000  -0.000  -0.000   0.000
  0.000   0.000   0.000  -0.000  -0.000  -0.000   1.251   0.000   0.000  -0.097   0.000  -0.072   0.000   0.000  -0.056   0.000
 -0.000   0.000   0.000   0.000   0.000   0.000  -0.000   1.467  -0.003  -0.000  -0.089  -0.000   0.089  -0.139   0.000   0.101
 -0.000  -0.000   0.000   0.000   0.000   0.000   0.000  -0.003   1.298   0.000  -0.164  -0.000  -0.141   0.050   0.000  -0.091
 -0.000  -0.000   0.000  -0.000  -0.000   0.000  -0.097   0.000   0.000   1.233   0.000  -0.057  -0.000  -0.000  -0.049   0.000
  0.000  -0.000   0.000   0.000  -0.000  -0.000  -0.000  -0.089  -0.164  -0.000   1.502  -0.000   0.105  -0.089  -0.000   0.149
  0.000   0.000  -0.000   0.000  -0.000   0.000  -0.072   0.000  -0.000  -0.057   0.000   0.165  -0.000  -0.000  -0.027   0.000
 -0.000   0.000   0.000   0.000   0.000   0.000   0.000   0.089  -0.141  -0.000   0.105   0.000   0.247  -0.070   0.000   0.089
 -0.000  -0.000   0.000   0.000   0.000  -0.000   0.000  -0.139   0.050  -0.000  -0.089  -0.000  -0.070   0.167  -0.000  -0.011
 -0.000   0.000   0.000  -0.000  -0.000  -0.000  -0.056  -0.000  -0.000  -0.049   0.000  -0.027   0.000  -0.000   0.162  -0.000
  0.000  -0.000  -0.000   0.000   0.000   0.000  -0.000   0.101  -0.091   0.000   0.149  -0.000   0.089  -0.011  -0.000   0.141
  0.000   0.000   0.000   0.000   0.000   0.000  -0.000  -0.012  -0.038   0.000   0.097   0.000  -0.328   0.027   0.000  -0.004
  0.000   0.000   0.000   0.000   0.000   0.000   0.000   0.005   0.017  -0.000  -0.018   0.000   0.021  -0.005   0.000   0.003
 total augmentation occupancy for first ion, spin component:           2
 -0.006   0.000  -0.000  -0.002  -0.000   0.000  -0.000   0.000   0.000   0.000   0.000   0.000  -0.000  -0.000   0.000   0.000
  0.000  -0.008  -0.000  -0.000  -0.008   0.000   0.000   0.000  -0.000   0.000   0.000   0.000   0.000   0.000   0.000   0.000
  0.000  -0.000  -0.008  -0.000  -0.000  -0.005   0.000  -0.000  -0.000  -0.000  -0.000   0.000  -0.000   0.000   0.000  -0.000
 -0.002  -0.000  -0.000   0.014  -0.002  -0.000   0.000  -0.000   0.000   0.000   0.000  -0.000   0.000   0.000  -0.000  -0.000
 -0.000  -0.008   0.000  -0.002   0.001   0.000   0.000   0.000  -0.000   0.000   0.000   0.000  -0.000   0.000   0.000  -0.000
 -0.000  -0.000  -0.005   0.000   0.000   0.010   0.000  -0.000  -0.000  -0.000  -0.000  -0.000   0.000   0.000   0.000   0.000
 -0.000   0.000   0.000   0.000   0.000   0.000   0.704  -0.000   0.000   0.115  -0.000  -0.272   0.000   0.000   0.007   0.000
 -0.000  -0.000  -0.000   0.000   0.000  -0.000   0.000   0.379   0.092   0.000   0.036   0.000  -0.201  -0.004  -0.000  -0.031
  0.000   0.000  -0.000  -0.000   0.000  -0.000   0.000   0.092   0.553  -0.000   0.212   0.000  -0.005  -0.220  -0.000  -0.030
  0.000   0.000   0.000   0.000   0.000   0.000   0.115   0.000  -0.000   0.694   0.000   0.008   0.000  -0.000  -0.269  -0.000
  0.000   0.000  -0.000  -0.000  -0.000  -0.000  -0.000   0.036   0.212  -0.000   0.259  -0.000  -0.016  -0.024  -0.000  -0.155
  0.000   0.000   0.000  -0.000   0.000   0.000  -0.272   0.000   0.000   0.008  -0.000   0.055  -0.000  -0.000   0.006  -0.000
 -0.000   0.000  -0.000  -0.000   0.000   0.000  -0.000  -0.201  -0.005  -0.000  -0.016  -0.000   0.008   0.024  -0.000  -0.002
 -0.000  -0.000   0.000  -0.000   0.000   0.000   0.000  -0.004  -0.220  -0.000  -0.024   0.000   0.024   0.015  -0.000   0.012
  0.000   0.000   0.000  -0.000   0.000   0.000   0.007   0.000  -0.000  -0.269  -0.000   0.006  -0.000  -0.000   0.040   0.000
 -0.000  -0.000  -0.000   0.000  -0.000   0.000  -0.000  -0.031  -0.030   0.000  -0.155  -0.000  -0.002   0.012  -0.000  -0.013
  0.000  -0.000   0.000  -0.000  -0.000   0.000   0.000   0.127   0.021  -0.000  -0.052  -0.000  -0.035   0.004  -0.000  -0.026
  0.000   0.000  -0.000  -0.000   0.000   0.000   0.000   0.016   0.017  -0.000  -0.022   0.000  -0.004  -0.002   0.000   0.000


------------------------ aborting loop because EDIFF is reached ----------------------------------------





 total charge

# of ion       s       p       d       tot
------------------------------------------
    1        0.343   6.296   6.072  12.711
    2        0.343   6.296   6.072  12.711
    3        0.343   6.296   6.072  12.711
    4        0.343   6.296   6.072  12.711
    5        0.343   6.296   6.072  12.711
    6        0.343   6.296   6.072  12.711
    7        0.343   6.296   6.072  12.711
    8        0.343   6.296   6.072  12.711
    9        1.488   2.263   0.053   3.805
   10        1.488   2.263   0.053   3.805
   11        1.488   2.263   0.053   3.805
   12        1.488   2.263   0.053   3.805
   13        1.488   2.263   0.053   3.805
   14        1.488   2.263   0.053   3.805
   15        1.488   2.263   0.053   3.805
   16        1.488   2.263   0.053   3.805
--------------------------------------------------
tot         14.651  68.477  48.998 132.126



 magnetization (x)

# of ion       s       p       d       tot
------------------------------------------
    1        0.028   0.013   2.522   2.562
    2       -0.028  -0.013  -2.522  -2.562
    3       -0.028  -0.013  -2.522  -2.562
    4        0.028   0.013   2.522   2.562
    5        0.028   0.013   2.522   2.562
    6       -0.028  -0.013  -2.522  -2.562
    7       -0.028  -0.013  -2.522  -2.562
    8        0.028   0.013   2.522   2.562
    9        0.000   0.000   0.000   0.000
   10        0.000   0.000   0.000   0.000
   11        0.000   0.000   0.000   0.000
   12        0.000   0.000   0.000   0.000
   13        0.000   0.000   0.000   0.000
   14        0.000   0.000   0.000   0.000
   15        0.000   0.000   0.000   0.000
   16        0.000   0.000   0.000   0.000
--------------------------------------------------
tot          0.000   0.000   0.000   0.000
 
    CHARGE:  cpu time      0.9251: real time      0.9301
    FORLOC:  cpu time      0.0033: real time      0.0033
    FORNL :  cpu time      7.1560: real time      7.1941
    STRESS:  cpu time     21.4721: real time     21.5833
    FORCOR:  cpu time      0.0532: real time      0.0536
    FORHAR:  cpu time      0.0075: real time      0.0075
    MIXING:  cpu time      0.0016: real time      0.0016
    OFIELD:  cpu time      0.0000: real time      0.0000
    FORVDW:  cpu time      0.8147: real time      0.8176

  FORCE on cell =-STRESS in cart. coord.  units (eV):
  Direction    XX          YY          ZZ          XY          YZ          ZX
  --------------------------------------------------------------------------------------
  Alpha Z   813.94739   813.94739   813.94739
  Ewald    -950.60926 -1856.87119 -8450.54906     0.00000    -0.00000     0.00000
  Hartree  5497.44623  4682.04451 -1301.32389    -0.00000     0.00000    -0.00000
  E(xc)    -896.79245  -898.94161  -898.08442    -0.00000     0.00000     0.00000
  Local   -6414.91289 -4697.17347  7902.93806     0.00000     0.00000     0.00000
  n-local  -275.36058  -247.52034  -239.96026    -0.86657    -0.24054    -0.77051
  augment   530.56524   515.67456   514.09717    -0.00000     0.00000     0.00000
  Kinetic  1702.16338  1694.56028  1665.10513     3.52208    -0.41761     0.22213
  Fock        0.00000     0.00000     0.00000     0.00000     0.00000     0.00000
  vdW        -6.29274    -6.35077    -6.56749    -0.00000     0.00000    -0.00000
  -------------------------------------------------------------------------------------
  Total       0.15431    -0.63062    -0.39737     0.00000     0.00000     0.00000
  in kB       0.79239    -3.23837    -2.04055     0.00000     0.00000     0.00000
  external pressure =       -1.50 kB  Pullay stress =        0.00 kB


 VOLUME and BASIS-vectors are now :
 -----------------------------------------------------------------------------
  energy-cutoff  :      550.00
  volume of cell :      312.00
      direct lattice vectors                 reciprocal lattice vectors
     4.797454859 -5.742322561  0.000000000     0.104221929 -0.087072782 -0.000000000
     4.797454859  5.742322561  0.000000000     0.104221929  0.087072782  0.000000000
     0.000000000 -0.000000000  5.662733418     0.000000000  0.000000000  0.176593162

  length of vectors
     7.482636001  7.482636001  5.662733418     0.135808247  0.135808247  0.176593162


 FORCES acting on ions
    electron-ion (+dipol)            ewald-force                    non-local-force                 convergence-correction
 -----------------------------------------------------------------------------------------------
   -.835E-13 -.338E-13 0.156E-12   -.142E-13 -.497E-13 0.142E-13   0.115E-21 -.244E-23 -.607E-22   -.819E-13 0.144E-11 -.650E-12
   0.672E-12 0.883E-12 0.175E-12   -.143E-13 -.497E-13 0.222E-13   -.101E-21 0.122E-22 0.702E-23   -.663E-12 0.890E-12 0.302E-12
   0.580E-12 -.151E-11 -.117E-10   -.878E-14 -.568E-13 0.142E-13   0.748E-22 -.905E-22 -.196E-21   0.124E-11 -.959E-12 0.204E-11
   -.492E-11 -.965E-11 -.877E-11   -.142E-13 -.391E-13 0.213E-13   -.230E-22 -.295E-23 -.192E-22   0.123E-11 -.153E-11 0.335E-12
   -.260E-11 -.398E-11 -.385E-11   -.186E-13 0.462E-13 0.258E-13   0.363E-21 -.245E-21 0.435E-23   -.832E-12 0.760E-12 -.128E-12
   0.431E-11 0.583E-11 -.448E-11   0.000E+00 0.320E-13 0.107E-13   0.146E-21 0.271E-22 -.272E-21   -.512E-12 0.908E-12 0.180E-11
   -.145E-10 -.295E-10 0.372E-10   -.142E-13 0.284E-13 0.249E-13   0.260E-21 -.475E-22 -.412E-22   0.280E-12 -.460E-12 0.493E-12
   0.899E-12 -.620E-11 0.354E-10   -.375E-14 0.284E-13 0.284E-13   0.607E-22 0.954E-22 -.615E-22   0.770E-13 -.287E-12 -.429E-12
   -.125E-07 0.574E-12 0.329E+03   0.421E-13 -.107E-13 -.330E+03   -.925E-18 -.249E-17 0.111E+01   0.236E-13 0.231E-12 -.360E-01
   -.125E-07 0.172E-11 0.329E+03   0.426E-13 -.148E-13 -.330E+03   0.216E-19 0.247E-17 0.111E+01   -.233E-12 -.233E-12 -.360E-01
   -.125E-07 0.128E-11 0.329E+03   0.426E-13 -.141E-13 -.330E+03   -.227E-17 0.549E-18 0.111E+01   0.146E-12 -.100E-12 -.360E-01
   -.125E-07 -.619E-13 0.329E+03   0.434E-13 -.355E-13 -.330E+03   0.134E-17 0.353E-17 0.111E+01   0.970E-13 0.188E-13 -.360E-01
   0.125E-07 -.375E-12 -.329E+03   -.223E-13 0.303E-13 0.330E+03   -.158E-17 -.165E-17 -.111E+01   0.215E-12 0.304E-14 0.360E-01
   0.125E-07 -.322E-13 -.329E+03   -.206E-13 0.291E-13 0.330E+03   -.992E-18 0.159E-17 -.111E+01   0.179E-12 -.277E-12 0.360E-01
   0.125E-07 -.199E-11 -.329E+03   -.223E-13 0.176E-13 0.330E+03   0.172E-17 0.151E-17 -.111E+01   -.135E-12 0.967E-13 0.360E-01
   0.125E-07 0.175E-11 -.329E+03   -.137E-13 0.302E-13 0.330E+03   0.209E-17 -.123E-17 -.111E+01   -.277E-12 0.259E-12 0.360E-01
 -----------------------------------------------------------------------------------------------
   -.174E-10 -.413E-10 0.383E-10   0.377E-14 -.283E-13 -.568E-13   -.593E-18 0.426E-17 0.000E+00   0.754E-12 0.761E-12 0.297E-11
 
 
 POSITION                                       TOTAL-FORCE (eV/Angst)
 -----------------------------------------------------------------------------------
     -0.00000     -0.00000      0.00000        -0.000000      0.000000      0.000000
      2.39873      2.87116      0.00000        -0.000000      0.000000      0.000000
      2.39873     -2.87116      0.00000        -0.000000      0.000000      0.000000
      4.79745     -0.00000      0.00000        -0.000000      0.000000      0.000000
      2.39873     -0.00000      0.00000        -0.000000      0.000000      0.000000
      4.79745      2.87116      0.00000        -0.000000      0.000000      0.000000
      4.79745     -2.87116      0.00000        -0.000000      0.000000      0.000000
      7.19618     -0.00000      0.00000        -0.000000      0.000000      0.000000
      2.39873     -1.43558      3.87417        -0.000000      0.000000     -0.020763
      4.79745      1.43558      3.87417         0.000000      0.000000     -0.020763
      4.79745     -4.30674      3.87417        -0.000000      0.000000     -0.020763
      7.19618     -1.43558      3.87417         0.000000      0.000000     -0.020763
      2.39873      1.43558      1.78856        -0.000000     -0.000000      0.020763
      4.79745      4.30674      1.78856        -0.000000     -0.000000      0.020763
      4.79745     -1.43558      1.78856         0.000000     -0.000000      0.020763
      7.19618      1.43558      1.78856         0.000000     -0.000000      0.020763
 -----------------------------------------------------------------------------------
    total drift:                               -0.000000     -0.000000      0.000000


--------------------------------------------------------------------------------------------------------



  FREE ENERGIE OF THE ION-ELECTRON SYSTEM (eV)
  ---------------------------------------------------
  free  energy   TOTEN  =       -98.34338955 eV

  energy  without entropy=      -98.32468470  energy(sigma->0) =      -98.33403713
 
 d Force = 0.1004741E-02[ 0.484E-03, 0.153E-02]  d Energy = 0.6155847E-03 0.389E-03
 d Force = 0.7720945E+01[ 0.771E+01, 0.773E+01]  d Ewald  = 0.4632952E+01 0.309E+01


--------------------------------------------------------------------------------------------------------


    POTLOK:  cpu time      0.3275: real time      0.3288


--------------------------------------------------------------------------------------------------------




--------------------------------------------------------------------------------------------------------


  
 reached required accuracy - stopping structural energy minimisation
     LOOP+:  cpu time    108.7373: real time    110.3957
    4ORBIT:  cpu time      0.0000: real time      0.0000



 total charge

# of ion       s       p       d       tot
------------------------------------------
    1        0.343   6.296   6.072  12.711
    2        0.343   6.296   6.072  12.711
    3        0.343   6.296   6.072  12.711
    4        0.343   6.296   6.072  12.711
    5        0.343   6.296   6.072  12.711
    6        0.343   6.296   6.072  12.711
    7        0.343   6.296   6.072  12.711
    8        0.343   6.296   6.072  12.711
    9        1.488   2.263   0.053   3.805
   10        1.488   2.263   0.053   3.805
   11        1.488   2.263   0.053   3.805
   12        1.488   2.263   0.053   3.805
   13        1.488   2.263   0.053   3.805
   14        1.488   2.263   0.053   3.805
   15        1.488   2.263   0.053   3.805
   16        1.488   2.263   0.053   3.805
--------------------------------------------------
tot         14.651  68.477  48.998 132.126



 magnetization (x)

# of ion       s       p       d       tot
------------------------------------------
    1        0.028   0.013   2.522   2.562
    2       -0.028  -0.013  -2.522  -2.562
    3       -0.028  -0.013  -2.522  -2.562
    4        0.028   0.013   2.522   2.562
    5        0.028   0.013   2.522   2.562
    6       -0.028  -0.013  -2.522  -2.562
    7       -0.028  -0.013  -2.522  -2.562
    8        0.028   0.013   2.522   2.562
    9        0.000   0.000   0.000   0.000
   10        0.000   0.000   0.000   0.000
   11        0.000   0.000   0.000   0.000
   12        0.000   0.000   0.000   0.000
   13        0.000   0.000   0.000   0.000
   14        0.000   0.000   0.000   0.000
   15        0.000   0.000   0.000   0.000
   16        0.000   0.000   0.000   0.000
--------------------------------------------------
tot          0.000   0.000   0.000   0.000
 

 total amount of memory used by VASP MPI-rank0   187869. kBytes
=======================================================================

   base      :      30000. kBytes
   nonlr-proj:      13896. kBytes
   fftplans  :       3084. kBytes
   grid      :      19560. kBytes
   one-center:        497. kBytes
   wavefun   :     120832. kBytes
 
  
  
 General timing and accounting informations for this job:
 ========================================================
  
                  Total CPU time used (sec):      732.760
                            User time (sec):      730.025
                          System time (sec):        2.735
                         Elapsed time (sec):      739.476
  
                   Maximum memory used (kb):      477608.
                   Average memory used (kb):          N/A
  
                          Minor page faults:       242852
                          Major page faults:            0
                 Voluntary context switches:        38460
