       N       E                     dE             d eps       ncg     rms          rms(c)
DAV:   1     0.173426637215E+04    0.17343E+04   -0.91986E+04 32256   0.238E+03
DAV:   2     0.107011741463E+02   -0.17236E+04   -0.16940E+04 32384   0.600E+02
DAV:   3    -0.102479476262E+03   -0.11318E+03   -0.11199E+03 41280   0.158E+02
DAV:   4    -0.104943998184E+03   -0.24645E+01   -0.24628E+01 32576   0.250E+01
DAV:   5    -0.104998727911E+03   -0.54730E-01   -0.54725E-01 41024   0.380E+00    0.373E+01
DAV:   6    -0.110837287547E+03   -0.58386E+01   -0.23611E+02 37824   0.872E+01    0.662E+01
DAV:   7    -0.110440843404E+03    0.39644E+00   -0.46138E+02 43552   0.796E+01    0.573E+01
DAV:   8    -0.952635802872E+02    0.15177E+02   -0.77203E+01 44256   0.552E+01    0.240E+01
DAV:   9    -0.104374052176E+03   -0.91105E+01   -0.18244E+02 44064   0.432E+01    0.505E+01
DAV:  10    -0.930475163423E+02    0.11327E+02   -0.50632E+01 45152   0.305E+01    0.169E+01
DAV:  11    -0.930664039744E+02   -0.18888E-01   -0.13486E+01 42624   0.156E+01    0.117E+01
DAV:  12    -0.930731549425E+02   -0.67510E-02   -0.46053E+00 42624   0.826E+00    0.852E+00
DAV:  13    -0.933679521656E+02   -0.29480E+00   -0.42179E+00 44640   0.945E+00    0.101E+01
DAV:  14    -0.932290555174E+02    0.13890E+00   -0.47503E+00 43872   0.983E+00    0.467E+00
DAV:  15    -0.933511942916E+02   -0.12214E+00   -0.19913E+00 42496   0.717E+00    0.605E+00
DAV:  16    -0.932580541918E+02    0.93140E-01   -0.21431E+00 42912   0.763E+00    0.320E+00
DAV:  17    -0.932721712949E+02   -0.14117E-01   -0.32641E-01 40704   0.312E+00    0.197E+00
DAV:  18    -0.932789246914E+02   -0.67534E-02   -0.65455E-02 41824   0.142E+00    0.105E+00
DAV:  19    -0.932829582904E+02   -0.40336E-02   -0.23665E-02 42720   0.674E-01    0.838E-01
DAV:  20    -0.932834629031E+02   -0.50461E-03   -0.53328E-03 38848   0.442E-01    0.503E-01
DAV:  21    -0.932839048653E+02   -0.44196E-03   -0.37765E-03 44352   0.286E-01    0.227E-01
DAV:  22    -0.932841965083E+02   -0.29164E-03   -0.94529E-04 39360   0.141E-01    0.104E-01
DAV:  23    -0.932842514564E+02   -0.54948E-04   -0.32909E-04 40384   0.844E-02    0.638E-02
DAV:  24    -0.932842498100E+02    0.16464E-05   -0.60320E-05 39008   0.495E-02    0.417E-02
DAV:  25    -0.932842488560E+02    0.95403E-06   -0.24705E-05 41120   0.324E-02    0.189E-02
DAV:  26    -0.932842487251E+02    0.13087E-06   -0.57451E-06 32896   0.150E-02
   1 F= -.93284249E+02 E0= -.93284249E+02  d E =0.000000E+00  mag=     2.7251
