 vasp.6.4.3 19Mar24 (build Mar 26 2024 14:05:37) complex                        
  
 executed on             LinuxIFC date 2024.12.16  13:18:53
 running  128 mpi-ranks, on    1 nodes
 distrk:  each k-point on   32 cores,    4 groups
 distr:  one band on NCORE=   1 cores,   32 groups


--------------------------------------------------------------------------------------------------------


 INCAR:
   ALGO = Normal
   EDIFF = 1e-06
   EDIFFG = -0.01
   ENCUT = 520
   GGA = Pe
   IBRION = -1
   ISIF = 4
   ISMEAR = -5
   ISPIN = 2
   KPAR = 4
   LCHARG = True
   LORBIT = 11
   LREAL = False
   LWAVE = False
   MAGMOM = 1*-2.642 1*2.635 1*2.636 2*-2.676 1*2.814 1*-2.642 1*2.635 1*2.636 2*-0.084 1*0.243
   NELM = 200
   NSW = 0
   PREC = Accurate
   SIGMA = 0.2

 POTCAR:    PAW_PBE Fe_pv 02Aug2007               
 POTCAR:    PAW_PBE Pt 04Feb2005                  
 -----------------------------------------------------------------------------
|                                                                             |
|           W    W    AA    RRRRR   N    N  II  N    N   GGGG   !!!           |
|           W    W   A  A   R    R  NN   N  II  NN   N  G    G  !!!           |
|           W    W  A    A  R    R  N N  N  II  N N  N  G       !!!           |
|           W WW W  AAAAAA  RRRRR   N  N N  II  N  N N  G  GGG   !            |
|           WW  WW  A    A  R   R   N   NN  II  N   NN  G    G                |
|           W    W  A    A  R    R  N    N  II  N    N   GGGG   !!!           |
|                                                                             |
|     For optimal performance we recommend to set                             |
|       NCORE = 2 up to number-of-cores-per-socket                            |
|     NCORE specifies how many cores store one orbital (NPAR=cpu/NCORE).      |
|     This setting can greatly improve the performance of VASP for DFT.       |
|     The default, NCORE=1 might be grossly inefficient on modern             |
|     multi-core architectures or massively parallel machines. Do your        |
|     own testing! More info at https://www.vasp.at/wiki/index.php/NCORE      |
|     Unfortunately you need to use the default for GW and RPA                |
|     calculations (for HF NCORE is supported but not extensively tested      |
|     yet).                                                                   |
|                                                                             |
 -----------------------------------------------------------------------------

 POTCAR:    PAW_PBE Fe_pv 02Aug2007               
   SHA256 =  5d22e414b1f82158bf2c7ecb8b97b28fd0923e48cadc1c3bf74d524558f5dd32 Fe_pv/POTCAR          
   COPYR  = (c) Copyright 02Aug2007 Georg Kresse                                                    
   COPYR  = This file is part of the software VASP. Any use, copying, and all other rights are regul
   COPYR  = If you do not have a valid VASP license, you may not use, copy or distribute this file. 
   VRHFIN =Fe:  3pd7s1                                                                              
   LEXCH  = PE                                                                                      
   EATOM  =  2457.4239 eV,  180.6156 Ry                                                             
                                                                                                    
   TITEL  = PAW_PBE Fe_pv 02Aug2007                                                                 
   LULTRA =        F    use ultrasoft PP ?                                                          
   IUNSCR =        1    unscreen: 0-lin 1-nonlin 2-no                                               
   RPACOR =    1.750    partial core radius                                                         
   POMASS =   55.847; ZVAL   =   14.000    mass and valenz                                          
   RCORE  =    2.200    outmost cutoff radius                                                       
   RWIGS  =    2.200; RWIGS  =    1.164    wigner-seitz radius (au A)                               
   ENMAX  =  293.238; ENMIN  =  219.928 eV                                                          
   ICORE  =        3    local potential                                                             
   LCOR   =        T    correct aug charges                                                         
   LPAW   =        T    paw PP                                                                      
   EAUG   =  578.342                                                                                
   DEXC   =    0.000                                                                                
   RMAX   =    2.249    core radius for proj-oper                                                   
   RAUG   =    1.300    factor for augmentation sphere                                              
   RDEP   =    2.296    radius for radial grids                                                     
   RDEPT  =    1.766    core radius for aug-charge                                                  
                                                                                                    
   Atomic configuration                                                                             
    8 entries                                                                                       
     n  l   j            E        occ.                                                              
     1  0  0.50     -6993.8440   2.0000                                                             
     2  0  0.50      -814.6047   2.0000                                                             
     2  1  1.50      -693.3689   6.0000                                                             
     3  0  0.50       -89.4732   2.0000                                                             
     3  1  1.50       -55.6373   6.0000                                                             
     3  2  2.50        -3.8151   7.0000                                                             
     4  0  0.50        -4.2551   1.0000                                                             
     4  3  2.50        -1.3606   0.0000                                                             
   Description                                                                                      
     l       E           TYP  RCUT    TYP  RCUT                                                     
     1    -55.6372668     23  2.000                                                                 
     1     -5.4423304     23  2.000                                                                 
     2     -3.8151096     23  2.200                                                                 
     2     -5.1756922     23  2.200                                                                 
     0     -4.2550951     23  2.200                                                                 
     0     27.2116520     23  2.200                                                                 
     3     -1.3605826     23  2.200                                                                 
  local pseudopotential read in
  partial core-charges read in
  partial kinetic energy density read in
  atomic valenz-charges read in
  non local Contribution for L=           1  read in
    real space projection operators read in
  non local Contribution for L=           1  read in
    real space projection operators read in
  non local Contribution for L=           2  read in
    real space projection operators read in
  non local Contribution for L=           2  read in
    real space projection operators read in
  non local Contribution for L=           0  read in
    real space projection operators read in
  non local Contribution for L=           0  read in
    real space projection operators read in
    PAW grid and wavefunctions read in
 
   number of l-projection  operators is LMAX  =           6
   number of lm-projection operators is LMMAX =          18
 
 POTCAR:    PAW_PBE Pt 04Feb2005                  
   SHA256 =  3ed90460adef76debcff1cfb73ee1349b515b1a3db03439735b44de3a8db7dc8 Pt/POTCAR             
   COPYR  = (c) Copyright 04Feb2005 Georg Kresse                                                    
   COPYR  = This file is part of the software VASP. Any use, copying, and all other rights are regul
   COPYR  = If you do not have a valid VASP license, you may not use, copy or distribute this file. 
   VRHFIN =Pt: s1d9                                                                                 
   LEXCH  = PE                                                                                      
   EATOM  =   729.1176 eV,   53.5886 Ry                                                             
                                                                                                    
   TITEL  = PAW_PBE Pt 04Feb2005                                                                    
   LULTRA =        F    use ultrasoft PP ?                                                          
   IUNSCR =        1    unscreen: 0-lin 1-nonlin 2-no                                               
   RPACOR =    2.330    partial core radius                                                         
   POMASS =  195.080; ZVAL   =   10.000    mass and valenz                                          
   RCORE  =    2.600    outmost cutoff radius                                                       
   RWIGS  =    2.750; RWIGS  =    1.455    wigner-seitz radius (au A)                               
   ENMAX  =  230.283; ENMIN  =  172.712 eV                                                          
   ICORE  =        3    local potential                                                             
   LCOR   =        T    correct aug charges                                                         
   LPAW   =        T    paw PP                                                                      
   EAUG   =  358.966                                                                                
   DEXC   =    0.000                                                                                
   RMAX   =    2.658    core radius for proj-oper                                                   
   RAUG   =    1.300    factor for augmentation sphere                                              
   RDEP   =    2.761    radius for radial grids                                                     
   RDEPT  =    2.203    core radius for aug-charge                                                  
                                                                                                    
   Atomic configuration                                                                             
   16 entries                                                                                       
     n  l   j            E        occ.                                                              
     1  0  0.50    -78401.1885   2.0000                                                             
     2  0  0.50    -13770.7750   2.0000                                                             
     2  1  1.50    -11931.0468   6.0000                                                             
     3  0  0.50     -3234.7234   2.0000                                                             
     3  1  1.50     -2699.2216   6.0000                                                             
     3  2  2.50     -2119.5714  10.0000                                                             
     4  0  0.50      -695.1528   2.0000                                                             
     4  1  1.50      -519.6034   6.0000                                                             
     4  2  2.50      -306.6786  10.0000                                                             
     4  3  3.50       -70.1041  14.0000                                                             
     5  0  0.50      -101.7747   2.0000                                                             
     5  1  1.50       -55.9873   6.0000                                                             
     5  2  2.50        -6.1423   9.0000                                                             
     6  0  0.50        -5.6573   1.0000                                                             
     6  1  1.50        -6.8029   0.0000                                                             
     5  3  2.50        -1.3606   0.0000                                                             
   Description                                                                                      
     l       E           TYP  RCUT    TYP  RCUT                                                     
     2     -6.1423404     23  2.500                                                                 
     2     -7.5029230     23  2.500                                                                 
     0     -5.6573207     23  2.500                                                                 
     0      0.7416693     23  2.500                                                                 
     1     -2.7211652     23  2.600                                                                 
     1     20.4087390     23  2.600                                                                 
     3     -1.3605826     23  2.500                                                                 
  local pseudopotential read in
  partial core-charges read in
  partial kinetic energy density read in
  atomic valenz-charges read in
  non local Contribution for L=           2  read in
    real space projection operators read in
  non local Contribution for L=           2  read in
    real space projection operators read in
  non local Contribution for L=           0  read in
    real space projection operators read in
  non local Contribution for L=           0  read in
    real space projection operators read in
  non local Contribution for L=           1  read in
    real space projection operators read in
  non local Contribution for L=           1  read in
    real space projection operators read in
    PAW grid and wavefunctions read in
 
   number of l-projection  operators is LMAX  =           6
   number of lm-projection operators is LMMAX =          18
 
  PAW_PBE Fe_pv 02Aug2007               :
 energy of atom  1       EATOM=-2457.4239
 kinetic energy error for atom=    0.0062 (will be added to EATOM!!)
  PAW_PBE Pt 04Feb2005                  :
 energy of atom  2       EATOM= -729.1176
 kinetic energy error for atom=    0.0032 (will be added to EATOM!!)
 
 
 POSCAR: Fe9 Pt3
  positions in direct lattice
  velocities in cartesian coordinates


 exchange-correlation table for PE
   RHO(1)=    0.500       N(1)  =     2000
   RHO(2)=  100.500       N(2)  =     4000
 


--------------------------------------------------------------------------------------------------------


 ion  position               nearest neighbor table
   1  0.000  0.500  0.167-   4 2.60   4 2.60   5 2.61   5 2.61   7 2.65   7 2.65   7 2.65   7 2.65
                            10 2.69  10 2.69  11 2.69  11 2.69
   2  0.000  0.500  0.500-  11 2.64  11 2.64   8 2.65   8 2.65   8 2.65   8 2.65  12 2.67  12 2.67
                             6 2.67   6 2.67   5 2.73   5 2.73
   3  0.000  0.500  0.834-  10 2.64  10 2.64   9 2.65   9 2.65   9 2.65   9 2.65   6 2.67   6 2.67
                            12 2.67  12 2.67   4 2.73   4 2.73
   4  0.500  0.500  0.008-   1 2.60   7 2.60   7 2.60   1 2.60  10 2.65  10 2.65  10 2.65  10 2.65
                             9 2.73   3 2.73   9 2.73   3 2.73
   5  0.500  0.500  0.325-   1 2.61   7 2.61   7 2.61   1 2.61  11 2.65  11 2.65  11 2.65  11 2.65
                             8 2.73   2 2.73   8 2.73   2 2.73
   6  0.500  0.500  0.667-  12 2.65  12 2.65  12 2.65  12 2.65   8 2.67   2 2.67   2 2.67   8 2.67
                             9 2.67   3 2.67   9 2.67   3 2.67
   7  0.500  0.000  0.167-   4 2.60   4 2.60   5 2.61   5 2.61   1 2.65   1 2.65   1 2.65   1 2.65
                            10 2.69  10 2.69  11 2.69  11 2.69
   8  0.500  0.000  0.500-  11 2.64  11 2.64   2 2.65   2 2.65   2 2.65   2 2.65  12 2.67  12 2.67
                             6 2.67   6 2.67   5 2.73   5 2.73
   9  0.500  0.000  0.834-  10 2.64  10 2.64   3 2.65   3 2.65   3 2.65   3 2.65   6 2.67   6 2.67
                            12 2.67  12 2.67   4 2.73   4 2.73
  10  0.000  0.000  0.997-   3 2.64   9 2.64   3 2.64   9 2.64   4 2.65   4 2.65   4 2.65   4 2.65
                             1 2.69   7 2.69   7 2.69   1 2.69
  11  0.000  0.000  0.336-   2 2.64   8 2.64   2 2.64   8 2.64   5 2.65   5 2.65   5 2.65   5 2.65
                             1 2.69   7 2.69   7 2.69   1 2.69
  12  0.000  0.000  0.667-   6 2.65   6 2.65   6 2.65   6 2.65   2 2.67   8 2.67   8 2.67   2 2.67
                             3 2.67   3 2.67   9 2.67   9 2.67
 
  LATTYP: Found a simple tetragonal cell.
 ALAT       =     3.7415143821
 C/A-ratio  =     3.0547644356
  
  Lattice vectors:
  
 A1 = (   3.7415143821,   0.0000000000,   0.0000000000)
 A2 = (   0.0000000000,   3.7415143821,   0.0000000000)
 A3 = (   0.0000000000,   0.0000000000,  11.4294450696)


Analysis of symmetry for initial positions (statically):
=====================================================================
 Subroutine PRICEL returns:
 Original cell was already a primitive cell.
 

 Routine SETGRP: Setting up the symmetry group for a 
 simple tetragonal supercell.


 Subroutine GETGRP returns: Found  8 space group operations
 (whereof  8 operations were pure point group operations)
 out of a pool of 16 trial point group operations.


The static configuration has the point symmetry C_4v.


Analysis of symmetry for dynamics (positions and initial velocities):
=====================================================================
 Subroutine PRICEL returns:
 Original cell was already a primitive cell.
 

 Routine SETGRP: Setting up the symmetry group for a 
 simple tetragonal supercell.


 Subroutine GETGRP returns: Found  8 space group operations
 (whereof  8 operations were pure point group operations)
 out of a pool of 16 trial point group operations.


The dynamic configuration has the point symmetry C_4v.


Analysis of structural, dynamic, and magnetic symmetry:
=====================================================================
 Subroutine PRICEL returns:
 Original cell was already a primitive cell.
 

 Routine SETGRP: Setting up the symmetry group for a 
 simple tetragonal supercell.


 Subroutine GETGRP returns: Found  8 space group operations
 (whereof  8 operations were pure point group operations)
 out of a pool of 16 trial point group operations.


The overall configuration has the point symmetry C_4v.


 Subroutine INISYM returns: Found  8 space group operations
 (whereof  8 operations are pure point group operations),
 and found     1 'primitive' translations


----------------------------------------------------------------------------------------

                                     Primitive cell                                     

  volume of cell :     160.0000

  direct lattice vectors                    reciprocal lattice vectors
     3.741514382  0.000000000  0.000000000     0.267271457  0.000000000  0.000000000
     0.000000000  3.741514382  0.000000000     0.000000000  0.267271457  0.000000000
     0.000000000  0.000000000 11.429445070     0.000000000  0.000000000  0.087493312

  length of vectors
     3.741514382  3.741514382 11.429445070     0.267271457  0.267271457  0.087493312

  position of ions in fractional coordinates (direct lattice)
     0.000000000  0.500000000  0.166651811
     0.000000000  0.500000000  0.499570435
     0.000000000  0.500000000  0.833779831
     0.500000000  0.500000000  0.008065799
     0.500000000  0.500000000  0.325299134
     0.500000000  0.500000000  0.666647778
     0.500000000  0.000000000  0.166651811
     0.500000000  0.000000000  0.499570435
     0.500000000  0.000000000  0.833779831
     0.000000000  0.000000000  0.997252441
     0.000000000  0.000000000  0.336084401
     0.000000000  0.000000000  0.666646292

  ion indices of the primitive-cell ions
   primitive index   ion index
                 1           1
                 2           2
                 3           3
                 4           4
                 5           5
                 6           6
                 7           7
                 8           8
                 9           9
                10          10
                11          11
                12          12

----------------------------------------------------------------------------------------

 
 
 KPOINTS: pymatgen with grid density = 8800 / numb

Automatic generation of k-mesh.
 Grid dimensions read from file:
 generate k-points for:   13   13    4

 Generating k-lattice:

  Cartesian coordinates                     Fractional coordinates (reciprocal lattice)
     0.020559343  0.000000000  0.000000000     0.076923077  0.000000000  0.000000000
     0.000000000  0.020559343  0.000000000     0.000000000  0.076923077  0.000000000
     0.000000000  0.000000000  0.021873328     0.000000000  0.000000000  0.250000000

  Length of vectors
     0.020559343  0.020559343  0.021873328

  Shift w.r.t. Gamma in fractional coordinates (k-lattice)
     0.000000000  0.000000000  0.000000000

 TETIRR: Found   1010 inequivalent tetrahedra from     4056
 
 Subroutine IBZKPT returns following result:
 ===========================================
 
 Found     84 irreducible k-points:
 
 Following reciprocal coordinates:
            Coordinates               Weight
  0.000000  0.000000  0.000000      1.000000
  0.076923  0.000000  0.000000      4.000000
  0.153846  0.000000  0.000000      4.000000
  0.230769  0.000000  0.000000      4.000000
  0.307692  0.000000  0.000000      4.000000
  0.384615  0.000000  0.000000      4.000000
  0.461538  0.000000  0.000000      4.000000
  0.076923  0.076923  0.000000      4.000000
  0.153846  0.076923  0.000000      8.000000
  0.230769  0.076923  0.000000      8.000000
  0.307692  0.076923  0.000000      8.000000
  0.384615  0.076923  0.000000      8.000000
  0.461538  0.076923  0.000000      8.000000
  0.153846  0.153846  0.000000      4.000000
  0.230769  0.153846  0.000000      8.000000
  0.307692  0.153846  0.000000      8.000000
  0.384615  0.153846  0.000000      8.000000
  0.461538  0.153846  0.000000      8.000000
  0.230769  0.230769  0.000000      4.000000
  0.307692  0.230769  0.000000      8.000000
  0.384615  0.230769  0.000000      8.000000
  0.461538  0.230769  0.000000      8.000000
  0.307692  0.307692  0.000000      4.000000
  0.384615  0.307692  0.000000      8.000000
  0.461538  0.307692  0.000000      8.000000
  0.384615  0.384615  0.000000      4.000000
  0.461538  0.384615  0.000000      8.000000
  0.461538  0.461538  0.000000      4.000000
  0.000000  0.000000  0.250000      2.000000
  0.076923  0.000000  0.250000      8.000000
  0.153846  0.000000  0.250000      8.000000
  0.230769  0.000000  0.250000      8.000000
  0.307692  0.000000  0.250000      8.000000
  0.384615  0.000000  0.250000      8.000000
  0.461538  0.000000  0.250000      8.000000
  0.076923  0.076923  0.250000      8.000000
  0.153846  0.076923  0.250000     16.000000
  0.230769  0.076923  0.250000     16.000000
  0.307692  0.076923  0.250000     16.000000
  0.384615  0.076923  0.250000     16.000000
  0.461538  0.076923  0.250000     16.000000
  0.153846  0.153846  0.250000      8.000000
  0.230769  0.153846  0.250000     16.000000
  0.307692  0.153846  0.250000     16.000000
  0.384615  0.153846  0.250000     16.000000
  0.461538  0.153846  0.250000     16.000000
  0.230769  0.230769  0.250000      8.000000
  0.307692  0.230769  0.250000     16.000000
  0.384615  0.230769  0.250000     16.000000
  0.461538  0.230769  0.250000     16.000000
  0.307692  0.307692  0.250000      8.000000
  0.384615  0.307692  0.250000     16.000000
  0.461538  0.307692  0.250000     16.000000
  0.384615  0.384615  0.250000      8.000000
  0.461538  0.384615  0.250000     16.000000
  0.461538  0.461538  0.250000      8.000000
  0.000000  0.000000  0.500000      1.000000
  0.076923  0.000000  0.500000      4.000000
  0.153846  0.000000  0.500000      4.000000
  0.230769  0.000000  0.500000      4.000000
  0.307692  0.000000  0.500000      4.000000
  0.384615  0.000000  0.500000      4.000000
  0.461538  0.000000  0.500000      4.000000
  0.076923  0.076923  0.500000      4.000000
  0.153846  0.076923  0.500000      8.000000
  0.230769  0.076923  0.500000      8.000000
  0.307692  0.076923  0.500000      8.000000
  0.384615  0.076923  0.500000      8.000000
  0.461538  0.076923  0.500000      8.000000
  0.153846  0.153846  0.500000      4.000000
  0.230769  0.153846  0.500000      8.000000
  0.307692  0.153846  0.500000      8.000000
  0.384615  0.153846  0.500000      8.000000
  0.461538  0.153846  0.500000      8.000000
  0.230769  0.230769  0.500000      4.000000
  0.307692  0.230769  0.500000      8.000000
  0.384615  0.230769  0.500000      8.000000
  0.461538  0.230769  0.500000      8.000000
  0.307692  0.307692  0.500000      4.000000
  0.384615  0.307692  0.500000      8.000000
  0.461538  0.307692  0.500000      8.000000
  0.384615  0.384615  0.500000      4.000000
  0.461538  0.384615  0.500000      8.000000
  0.461538  0.461538  0.500000      4.000000
 
 Following cartesian coordinates:
            Coordinates               Weight
  0.000000  0.000000  0.000000      1.000000
  0.020559  0.000000  0.000000      4.000000
  0.041119  0.000000  0.000000      4.000000
  0.061678  0.000000  0.000000      4.000000
  0.082237  0.000000  0.000000      4.000000
  0.102797  0.000000  0.000000      4.000000
  0.123356  0.000000  0.000000      4.000000
  0.020559  0.020559  0.000000      4.000000
  0.041119  0.020559  0.000000      8.000000
  0.061678  0.020559  0.000000      8.000000
  0.082237  0.020559  0.000000      8.000000
  0.102797  0.020559  0.000000      8.000000
  0.123356  0.020559  0.000000      8.000000
  0.041119  0.041119  0.000000      4.000000
  0.061678  0.041119  0.000000      8.000000
  0.082237  0.041119  0.000000      8.000000
  0.102797  0.041119  0.000000      8.000000
  0.123356  0.041119  0.000000      8.000000
  0.061678  0.061678  0.000000      4.000000
  0.082237  0.061678  0.000000      8.000000
  0.102797  0.061678  0.000000      8.000000
  0.123356  0.061678  0.000000      8.000000
  0.082237  0.082237  0.000000      4.000000
  0.102797  0.082237  0.000000      8.000000
  0.123356  0.082237  0.000000      8.000000
  0.102797  0.102797  0.000000      4.000000
  0.123356  0.102797  0.000000      8.000000
  0.123356  0.123356  0.000000      4.000000
  0.000000  0.000000  0.021873      2.000000
  0.020559  0.000000  0.021873      8.000000
  0.041119  0.000000  0.021873      8.000000
  0.061678  0.000000  0.021873      8.000000
  0.082237  0.000000  0.021873      8.000000
  0.102797  0.000000  0.021873      8.000000
  0.123356  0.000000  0.021873      8.000000
  0.020559  0.020559  0.021873      8.000000
  0.041119  0.020559  0.021873     16.000000
  0.061678  0.020559  0.021873     16.000000
  0.082237  0.020559  0.021873     16.000000
  0.102797  0.020559  0.021873     16.000000
  0.123356  0.020559  0.021873     16.000000
  0.041119  0.041119  0.021873      8.000000
  0.061678  0.041119  0.021873     16.000000
  0.082237  0.041119  0.021873     16.000000
  0.102797  0.041119  0.021873     16.000000
  0.123356  0.041119  0.021873     16.000000
  0.061678  0.061678  0.021873      8.000000
  0.082237  0.061678  0.021873     16.000000
  0.102797  0.061678  0.021873     16.000000
  0.123356  0.061678  0.021873     16.000000
  0.082237  0.082237  0.021873      8.000000
  0.102797  0.082237  0.021873     16.000000
  0.123356  0.082237  0.021873     16.000000
  0.102797  0.102797  0.021873      8.000000
  0.123356  0.102797  0.021873     16.000000
  0.123356  0.123356  0.021873      8.000000
  0.000000  0.000000  0.043747      1.000000
  0.020559  0.000000  0.043747      4.000000
  0.041119  0.000000  0.043747      4.000000
  0.061678  0.000000  0.043747      4.000000
  0.082237  0.000000  0.043747      4.000000
  0.102797  0.000000  0.043747      4.000000
  0.123356  0.000000  0.043747      4.000000
  0.020559  0.020559  0.043747      4.000000
  0.041119  0.020559  0.043747      8.000000
  0.061678  0.020559  0.043747      8.000000
  0.082237  0.020559  0.043747      8.000000
  0.102797  0.020559  0.043747      8.000000
  0.123356  0.020559  0.043747      8.000000
  0.041119  0.041119  0.043747      4.000000
  0.061678  0.041119  0.043747      8.000000
  0.082237  0.041119  0.043747      8.000000
  0.102797  0.041119  0.043747      8.000000
  0.123356  0.041119  0.043747      8.000000
  0.061678  0.061678  0.043747      4.000000
  0.082237  0.061678  0.043747      8.000000
  0.102797  0.061678  0.043747      8.000000
  0.123356  0.061678  0.043747      8.000000
  0.082237  0.082237  0.043747      4.000000
  0.102797  0.082237  0.043747      8.000000
  0.123356  0.082237  0.043747      8.000000
  0.102797  0.102797  0.043747      4.000000
  0.123356  0.102797  0.043747      8.000000
  0.123356  0.123356  0.043747      4.000000
 


--------------------------------------------------------------------------------------------------------




 Dimension of arrays:
   k-points           NKPTS =     84   k-points in BZ     NKDIM =     84   number of bands    NBANDS=     96
   number of dos      NEDOS =    301   number of ions     NIONS =     12
   non local maximal  LDIM  =      6   non local SUM 2l+1 LMDIM =     18
   total plane-waves  NPLWV =  70560
   max r-space proj   IRMAX =      1   max aug-charges    IRDMAX=  26907
   dimension x,y,z NGX =    28 NGY =   28 NGZ =   90
   dimension x,y,z NGXF=    56 NGYF=   56 NGZF=  180
   support grid    NGXF=    56 NGYF=   56 NGZF=  180
   ions per type =               9   3
   NGX,Y,Z   is equivalent  to a cutoff of  12.44, 12.44, 13.09 a.u.
   NGXF,Y,Z  is equivalent  to a cutoff of  24.88, 24.88, 26.18 a.u.

 SYSTEM =  unknown system                          
 POSCAR =  Fe9 Pt3                                 

 Startparameter for this run:
   NWRITE =      2    write-flag & timer
   PREC   = accura    normal or accurate (medium, high low for compatibility)
   ISTART =      0    job   : 0-new  1-cont  2-samecut
   ICHARG =      2    charge: 1-file 2-atom 10-const
   ISPIN  =      2    spin polarized calculation?
   LNONCOLLINEAR =      F non collinear calculations
   LSORBIT =      F    spin-orbit coupling
   INIWAV =      1    electr: 0-lowe 1-rand  2-diag
   LASPH  =      F    aspherical Exc in radial PAW
 Electronic Relaxation 1
   ENCUT  =  520.0 eV  38.22 Ry    6.18 a.u.   6.96  6.96 21.25*2*pi/ulx,y,z
   ENINI  =  520.0     initial cutoff
   ENAUG  =  578.3 eV  augmentation charge cutoff
   NELM   =    200;   NELMIN=  2; NELMDL=  0     # of ELM steps 
   EDIFF  = 0.1E-05   stopping-criterion for ELM
   LREAL  =      F    real-space projection
   NLSPLINE    = F    spline interpolate recip. space projectors
   LCOMPAT=      F    compatible to vasp.4.4
   GGA_COMPAT  = T    GGA compatible to vasp.4.4-vasp.4.6
   LMAXPAW     = -100 max onsite density
   LMAXMIX     =    2 max onsite mixed and CHGCAR
   VOSKOWN=      0    Vosko Wilk Nusair interpolation
   ROPT   =    0.00000   0.00000
 Ionic relaxation
   EDIFFG = -.1E-01   stopping-criterion for IOM
   NSW    =      0    number of steps for IOM
   NBLOCK =      1;   KBLOCK =      1    inner block; outer block 
   IBRION =     -1    ionic relax: 0-MD 1-quasi-New 2-CG
   NFREE  =      0    steps in history (QN), initial steepest desc. (CG)
   ISIF   =      4    stress and relaxation
   IWAVPR =     10    prediction:  0-non 1-charg 2-wave 3-comb
   ISYM   =      2    0-nonsym 1-usesym 2-fastsym
   LCORR  =      T    Harris-Foulkes like correction to forces

   POTIM  = 0.5000    time-step for ionic-motion
   TEIN   =    0.0    initial temperature
   TEBEG  =    0.0;   TEEND  =   0.0 temperature during run
   SMASS  =  -3.00    Nose mass-parameter (am)
   estimated Nose-frequenzy (Omega)   =  0.10E-29 period in steps = 0.13E+47 mass=  -0.320E-27a.u.
   SCALEE = 1.0000    scale energy and forces
   NPACO  =    256;   APACO  = 10.0  distance and # of slots for P.C.
   PSTRESS=    0.0 pullay stress

  Mass of Ions in am
   POMASS =  55.85195.08
  Ionic Valenz
   ZVAL   =  14.00 10.00
  Atomic Wigner-Seitz radii
   RWIGS  =  -1.00 -1.00
  virtual crystal weights 
   VCA    =   1.00  1.00
   NELECT =     156.0000    total number of electrons
   NUPDOWN=      -1.0000    fix difference up-down

 DOS related values:
   EMIN   =  10.00;   EMAX   =-10.00  energy-range for DOS
   EFERMI =   0.00;   METHOD = LEGACY      
   ISMEAR =    -5;   SIGMA  =   0.20  broadening in eV -4-tet -1-fermi 0-gaus

 Electronic relaxation 2 (details)
   IALGO  =     38    algorithm
   LDIAG  =      T    sub-space diagonalisation (order eigenvalues)
   LSUBROT=      F    optimize rotation matrix (better conditioning)
   TURBO    =      0    0=normal 1=particle mesh
   IRESTART =      0    0=no restart 2=restart with 2 vectors
   NREBOOT  =      0    no. of reboots
   NMIN     =      0    reboot dimension
   EREF     =   0.00    reference energy to select bands
   IMIX   =      4    mixing-type and parameters
     AMIX     =   0.40;   BMIX     =  1.00
     AMIX_MAG =   1.60;   BMIX_MAG =  1.00
     AMIN     =   0.10
     WC   =   100.;   INIMIX=   1;  MIXPRE=   1;  MAXMIX= -45

 Intra band minimization:
   WEIMIN = 0.0000     energy-eigenvalue tresh-hold
   EBREAK =  0.26E-08  absolut break condition
   DEPER  =   0.30     relativ break condition  

   TIME   =   0.40     timestep for ELM

  volume/ion in A,a.u.               =      13.33        89.98
  Fermi-wavevector in a.u.,A,eV,Ry     =   1.623341  3.067669 35.854553  2.635235
  Thomas-Fermi vector in A             =   2.716807
 
 Write flags
   LWAVE        =      F    write WAVECAR
   LDOWNSAMPLE  =      F    k-point downsampling of WAVECAR
   LCHARG       =      T    write CHGCAR
   LVTOT        =      F    write LOCPOT, total local potential
   LVHAR        =      F    write LOCPOT, Hartree potential only
   WRT_POTENTIAL= false  ! write potential to hdf5 file
   LELF         =      F    write electronic localiz. function (ELF)
   LORBIT       =     11    0 simple, 1 ext, 2 COOP (PROOUT), +10 PAW based schemes


 Dipole corrections
   LMONO      =      F    monopole corrections only (constant potential shift)
   LDIPOL     =      F    correct potential (dipole corrections)
   IDIPOL     =      0    1-x, 2-y, 3-z, 4-all directions 
   EPSILON    =  1.0000000 bulk dielectric constant
   LVACPOTAV  =      F  vacuum potentials using an averaging scheme for the charge density
   VACPOTFLAT =  0.1000000 required flatness to determine vacuum potential
 Exchange correlation treatment:
   GGA     = PE    functional components
   XC_C    = 1    coefficients multiplying the functional components
   LIBXC   =     F    Libxc                    
   VOSKOWN =     0    Vosko Wilk Nusair interpolation
   LHFCALC =     F    Hartree Fock is set to
   LHFONE  =     F    Hartree Fock one center treatment
   AEXX    =    0.0000 exact exchange contribution

 Parameters of functionals:
   PE:
     No parameter
 
 Van der Waals corrections
   IVDW    =     0    specifies the selected vdW correction

 Linear response parameters
   LEPSILON=     F    determine dielectric tensor
   LRPA    =     F    only Hartree local field effects (RPA)
   LNABLA  =     F    use nabla operator in PAW spheres
   LVEL    =     F    velocity operator in full k-point grid
   CSHIFT  =0.1000    complex shift for real part using Kramers Kronig
   OMEGAMAX=  -1.0    maximum frequency
   DEG_THRESHOLD= 0.2000000E-02 threshold for treating states as degnerate
   RTIME   =   -0.100 relaxation time in fs
  (WPLASMAI=    0.000 imaginary part of plasma frequency in eV, 0.658/RTIME)
   DFIELD  = 0.0000000 0.0000000 0.0000000 field for delta impulse in time
 
  Optional k-point grid parameters
   LKPOINTS_OPT  =     F    use optional k-point grid
   KPOINTS_OPT_MODE=     1    mode for optional k-point grid
 
 Orbital magnetization related:
   ORBITALMAG=     F  switch on orbital magnetization
   LCHIMAG   =     F  perturbation theory with respect to B field
   DQ        =  0.001000  dq finite difference perturbation B field
   LLRAUG    =     F  two centre corrections for induced B field
   LBONE     =     F  B-component reconstruction in AE one-centre
   LVGVCALC  =     T  calculate vGv susceptibility
   LVGVAPPL  =     F  apply vGv susceptibility instead of pGv for G=0

 Random number generation:
   RANDOM_GENERATOR = DEFAULT
   PCG_SEED         = not used


--------------------------------------------------------------------------------------------------------


 Static calculation
 charge density and potential will be updated during run
 spin polarized calculation
 Variant of blocked Davidson
 Davidson routine will perform the subspace rotation
 perform sub-space diagonalisation
    after iterative eigenvector-optimisation
 modified Broyden-mixing scheme, WC =      100.0
 initial mixing is a Kerker type mixing with AMIX =  0.4000 and BMIX =      1.0000
 Hartree-type preconditioning will be used
 using additional bands           18
 reciprocal scheme for non local part
 use partial core corrections
 calculate Harris-corrections to forces 
   (improved forces if not selfconsistent)
 use gradient corrections 
 use of overlap-Matrix (Vanderbilt PP)
 Fermi weights with tetrahedron method with Bloechl corrections


--------------------------------------------------------------------------------------------------------


  energy-cutoff  :      520.00
  volume of cell :      160.00
      direct lattice vectors                 reciprocal lattice vectors
     3.741514382  0.000000000  0.000000000     0.267271457  0.000000000  0.000000000
     0.000000000  3.741514382  0.000000000     0.000000000  0.267271457  0.000000000
     0.000000000  0.000000000 11.429445070     0.000000000  0.000000000  0.087493312

  length of vectors
     3.741514382  3.741514382 11.429445070     0.267271457  0.267271457  0.087493312


 
 k-points in units of 2pi/SCALE and weight: pymatgen with grid density = 8800 / numb
   0.00000000  0.00000000  0.00000000       0.001
   0.02055934  0.00000000  0.00000000       0.006
   0.04111869  0.00000000  0.00000000       0.006
   0.06167803  0.00000000  0.00000000       0.006
   0.08223737  0.00000000  0.00000000       0.006
   0.10279671  0.00000000  0.00000000       0.006
   0.12335606  0.00000000  0.00000000       0.006
   0.02055934  0.02055934  0.00000000       0.006
   0.04111869  0.02055934  0.00000000       0.012
   0.06167803  0.02055934  0.00000000       0.012
   0.08223737  0.02055934  0.00000000       0.012
   0.10279671  0.02055934  0.00000000       0.012
   0.12335606  0.02055934  0.00000000       0.012
   0.04111869  0.04111869  0.00000000       0.006
   0.06167803  0.04111869  0.00000000       0.012
   0.08223737  0.04111869  0.00000000       0.012
   0.10279671  0.04111869  0.00000000       0.012
   0.12335606  0.04111869  0.00000000       0.012
   0.06167803  0.06167803  0.00000000       0.006
   0.08223737  0.06167803  0.00000000       0.012
   0.10279671  0.06167803  0.00000000       0.012
   0.12335606  0.06167803  0.00000000       0.012
   0.08223737  0.08223737  0.00000000       0.006
   0.10279671  0.08223737  0.00000000       0.012
   0.12335606  0.08223737  0.00000000       0.012
   0.10279671  0.10279671  0.00000000       0.006
   0.12335606  0.10279671  0.00000000       0.012
   0.12335606  0.12335606  0.00000000       0.006
   0.00000000  0.00000000  0.02187333       0.003
   0.02055934  0.00000000  0.02187333       0.012
   0.04111869  0.00000000  0.02187333       0.012
   0.06167803  0.00000000  0.02187333       0.012
   0.08223737  0.00000000  0.02187333       0.012
   0.10279671  0.00000000  0.02187333       0.012
   0.12335606  0.00000000  0.02187333       0.012
   0.02055934  0.02055934  0.02187333       0.012
   0.04111869  0.02055934  0.02187333       0.024
   0.06167803  0.02055934  0.02187333       0.024
   0.08223737  0.02055934  0.02187333       0.024
   0.10279671  0.02055934  0.02187333       0.024
   0.12335606  0.02055934  0.02187333       0.024
   0.04111869  0.04111869  0.02187333       0.012
   0.06167803  0.04111869  0.02187333       0.024
   0.08223737  0.04111869  0.02187333       0.024
   0.10279671  0.04111869  0.02187333       0.024
   0.12335606  0.04111869  0.02187333       0.024
   0.06167803  0.06167803  0.02187333       0.012
   0.08223737  0.06167803  0.02187333       0.024
   0.10279671  0.06167803  0.02187333       0.024
   0.12335606  0.06167803  0.02187333       0.024
   0.08223737  0.08223737  0.02187333       0.012
   0.10279671  0.08223737  0.02187333       0.024
   0.12335606  0.08223737  0.02187333       0.024
   0.10279671  0.10279671  0.02187333       0.012
   0.12335606  0.10279671  0.02187333       0.024
   0.12335606  0.12335606  0.02187333       0.012
   0.00000000  0.00000000  0.04374666       0.001
   0.02055934  0.00000000  0.04374666       0.006
   0.04111869  0.00000000  0.04374666       0.006
   0.06167803  0.00000000  0.04374666       0.006
   0.08223737  0.00000000  0.04374666       0.006
   0.10279671  0.00000000  0.04374666       0.006
   0.12335606  0.00000000  0.04374666       0.006
   0.02055934  0.02055934  0.04374666       0.006
   0.04111869  0.02055934  0.04374666       0.012
   0.06167803  0.02055934  0.04374666       0.012
   0.08223737  0.02055934  0.04374666       0.012
   0.10279671  0.02055934  0.04374666       0.012
   0.12335606  0.02055934  0.04374666       0.012
   0.04111869  0.04111869  0.04374666       0.006
   0.06167803  0.04111869  0.04374666       0.012
   0.08223737  0.04111869  0.04374666       0.012
   0.10279671  0.04111869  0.04374666       0.012
   0.12335606  0.04111869  0.04374666       0.012
   0.06167803  0.06167803  0.04374666       0.006
   0.08223737  0.06167803  0.04374666       0.012
   0.10279671  0.06167803  0.04374666       0.012
   0.12335606  0.06167803  0.04374666       0.012
   0.08223737  0.08223737  0.04374666       0.006
   0.10279671  0.08223737  0.04374666       0.012
   0.12335606  0.08223737  0.04374666       0.012
   0.10279671  0.10279671  0.04374666       0.006
   0.12335606  0.10279671  0.04374666       0.012
   0.12335606  0.12335606  0.04374666       0.006
 
 k-points in reciprocal lattice and weights: pymatgen with grid density = 8800 / numb
   0.00000000  0.00000000  0.00000000       0.001
   0.07692308  0.00000000  0.00000000       0.006
   0.15384615  0.00000000  0.00000000       0.006
   0.23076923  0.00000000  0.00000000       0.006
   0.30769231  0.00000000  0.00000000       0.006
   0.38461538  0.00000000  0.00000000       0.006
   0.46153846  0.00000000  0.00000000       0.006
   0.07692308  0.07692308  0.00000000       0.006
   0.15384615  0.07692308  0.00000000       0.012
   0.23076923  0.07692308  0.00000000       0.012
   0.30769231  0.07692308  0.00000000       0.012
   0.38461538  0.07692308  0.00000000       0.012
   0.46153846  0.07692308  0.00000000       0.012
   0.15384615  0.15384615  0.00000000       0.006
   0.23076923  0.15384615  0.00000000       0.012
   0.30769231  0.15384615  0.00000000       0.012
   0.38461538  0.15384615  0.00000000       0.012
   0.46153846  0.15384615  0.00000000       0.012
   0.23076923  0.23076923  0.00000000       0.006
   0.30769231  0.23076923  0.00000000       0.012
   0.38461538  0.23076923  0.00000000       0.012
   0.46153846  0.23076923  0.00000000       0.012
   0.30769231  0.30769231  0.00000000       0.006
   0.38461538  0.30769231  0.00000000       0.012
   0.46153846  0.30769231  0.00000000       0.012
   0.38461538  0.38461538  0.00000000       0.006
   0.46153846  0.38461538  0.00000000       0.012
   0.46153846  0.46153846  0.00000000       0.006
   0.00000000  0.00000000  0.25000000       0.003
   0.07692308  0.00000000  0.25000000       0.012
   0.15384615  0.00000000  0.25000000       0.012
   0.23076923  0.00000000  0.25000000       0.012
   0.30769231  0.00000000  0.25000000       0.012
   0.38461538  0.00000000  0.25000000       0.012
   0.46153846  0.00000000  0.25000000       0.012
   0.07692308  0.07692308  0.25000000       0.012
   0.15384615  0.07692308  0.25000000       0.024
   0.23076923  0.07692308  0.25000000       0.024
   0.30769231  0.07692308  0.25000000       0.024
   0.38461538  0.07692308  0.25000000       0.024
   0.46153846  0.07692308  0.25000000       0.024
   0.15384615  0.15384615  0.25000000       0.012
   0.23076923  0.15384615  0.25000000       0.024
   0.30769231  0.15384615  0.25000000       0.024
   0.38461538  0.15384615  0.25000000       0.024
   0.46153846  0.15384615  0.25000000       0.024
   0.23076923  0.23076923  0.25000000       0.012
   0.30769231  0.23076923  0.25000000       0.024
   0.38461538  0.23076923  0.25000000       0.024
   0.46153846  0.23076923  0.25000000       0.024
   0.30769231  0.30769231  0.25000000       0.012
   0.38461538  0.30769231  0.25000000       0.024
   0.46153846  0.30769231  0.25000000       0.024
   0.38461538  0.38461538  0.25000000       0.012
   0.46153846  0.38461538  0.25000000       0.024
   0.46153846  0.46153846  0.25000000       0.012
   0.00000000  0.00000000  0.50000000       0.001
   0.07692308  0.00000000  0.50000000       0.006
   0.15384615  0.00000000  0.50000000       0.006
   0.23076923  0.00000000  0.50000000       0.006
   0.30769231  0.00000000  0.50000000       0.006
   0.38461538  0.00000000  0.50000000       0.006
   0.46153846  0.00000000  0.50000000       0.006
   0.07692308  0.07692308  0.50000000       0.006
   0.15384615  0.07692308  0.50000000       0.012
   0.23076923  0.07692308  0.50000000       0.012
   0.30769231  0.07692308  0.50000000       0.012
   0.38461538  0.07692308  0.50000000       0.012
   0.46153846  0.07692308  0.50000000       0.012
   0.15384615  0.15384615  0.50000000       0.006
   0.23076923  0.15384615  0.50000000       0.012
   0.30769231  0.15384615  0.50000000       0.012
   0.38461538  0.15384615  0.50000000       0.012
   0.46153846  0.15384615  0.50000000       0.012
   0.23076923  0.23076923  0.50000000       0.006
   0.30769231  0.23076923  0.50000000       0.012
   0.38461538  0.23076923  0.50000000       0.012
   0.46153846  0.23076923  0.50000000       0.012
   0.30769231  0.30769231  0.50000000       0.006
   0.38461538  0.30769231  0.50000000       0.012
   0.46153846  0.30769231  0.50000000       0.012
   0.38461538  0.38461538  0.50000000       0.006
   0.46153846  0.38461538  0.50000000       0.012
   0.46153846  0.46153846  0.50000000       0.006
 
 position of ions in fractional coordinates (direct lattice) 
   0.00000000  0.50000000  0.16665181
   0.00000000  0.50000000  0.49957043
   0.00000000  0.50000000  0.83377983
   0.50000000  0.50000000  0.00806580
   0.50000000  0.50000000  0.32529913
   0.50000000  0.50000000  0.66664778
   0.50000000  0.00000000  0.16665181
   0.50000000  0.00000000  0.49957043
   0.50000000  0.00000000  0.83377983
   0.00000000  0.00000000  0.99725244
   0.00000000  0.00000000  0.33608440
   0.00000000  0.00000000  0.66664629
 
 position of ions in cartesian coordinates  (Angst):
   0.00000000  1.87075719  1.90473772
   0.00000000  1.87075719  5.70981284
   0.00000000  1.87075719  9.52964078
   1.87075719  1.87075719  0.09218760
   1.87075719  1.87075719  3.71798858
   1.87075719  1.87075719  7.61941417
   1.87075719  0.00000000  1.90473772
   1.87075719  0.00000000  5.70981284
   1.87075719  0.00000000  9.52964078
   0.00000000  0.00000000 11.39804199
   0.00000000  0.00000000  3.84125820
   0.00000000  0.00000000  7.61939718
 


--------------------------------------------------------------------------------------------------------


 k-point     1 :   0.0000 0.0000 0.0000  plane waves:    4283
 k-point     2 :   0.0769 0.0000 0.0000  plane waves:    4286
 k-point     3 :   0.1538 0.0000 0.0000  plane waves:    4282
 k-point     4 :   0.2308 0.0000 0.0000  plane waves:    4300
 k-point     5 :   0.3077 0.0000 0.0000  plane waves:    4276
 k-point     6 :   0.3846 0.0000 0.0000  plane waves:    4284
 k-point     7 :   0.4615 0.0000 0.0000  plane waves:    4298
 k-point     8 :   0.0769 0.0769 0.0000  plane waves:    4301
 k-point     9 :   0.1538 0.0769 0.0000  plane waves:    4292
 k-point    10 :   0.2308 0.0769 0.0000  plane waves:    4292
 k-point    11 :   0.3077 0.0769 0.0000  plane waves:    4295
 k-point    12 :   0.3846 0.0769 0.0000  plane waves:    4305
 k-point    13 :   0.4615 0.0769 0.0000  plane waves:    4316
 k-point    14 :   0.1538 0.1538 0.0000  plane waves:    4306
 k-point    15 :   0.2308 0.1538 0.0000  plane waves:    4295
 k-point    16 :   0.3077 0.1538 0.0000  plane waves:    4308
 k-point    17 :   0.3846 0.1538 0.0000  plane waves:    4314
 k-point    18 :   0.4615 0.1538 0.0000  plane waves:    4324
 k-point    19 :   0.2308 0.2308 0.0000  plane waves:    4294
 k-point    20 :   0.3077 0.2308 0.0000  plane waves:    4311
 k-point    21 :   0.3846 0.2308 0.0000  plane waves:    4318
 k-point    22 :   0.4615 0.2308 0.0000  plane waves:    4323
 k-point    23 :   0.3077 0.3077 0.0000  plane waves:    4328
 k-point    24 :   0.3846 0.3077 0.0000  plane waves:    4338
 k-point    25 :   0.4615 0.3077 0.0000  plane waves:    4316
 k-point    26 :   0.3846 0.3846 0.0000  plane waves:    4330
 k-point    27 :   0.4615 0.3846 0.0000  plane waves:    4317
 k-point    28 :   0.4615 0.4615 0.0000  plane waves:    4322
 k-point    29 :   0.0000 0.0000 0.2500  plane waves:    4291
 k-point    30 :   0.0769 0.0000 0.2500  plane waves:    4278
 k-point    31 :   0.1538 0.0000 0.2500  plane waves:    4285
 k-point    32 :   0.2308 0.0000 0.2500  plane waves:    4292
 k-point    33 :   0.3077 0.0000 0.2500  plane waves:    4288
 k-point    34 :   0.3846 0.0000 0.2500  plane waves:    4300
 k-point    35 :   0.4615 0.0000 0.2500  plane waves:    4309
 k-point    36 :   0.0769 0.0769 0.2500  plane waves:    4276
 k-point    37 :   0.1538 0.0769 0.2500  plane waves:    4290
 k-point    38 :   0.2308 0.0769 0.2500  plane waves:    4295
 k-point    39 :   0.3077 0.0769 0.2500  plane waves:    4295
 k-point    40 :   0.3846 0.0769 0.2500  plane waves:    4306
 k-point    41 :   0.4615 0.0769 0.2500  plane waves:    4317
 k-point    42 :   0.1538 0.1538 0.2500  plane waves:    4298
 k-point    43 :   0.2308 0.1538 0.2500  plane waves:    4300
 k-point    44 :   0.3077 0.1538 0.2500  plane waves:    4301
 k-point    45 :   0.3846 0.1538 0.2500  plane waves:    4314
 k-point    46 :   0.4615 0.1538 0.2500  plane waves:    4325
 k-point    47 :   0.2308 0.2308 0.2500  plane waves:    4315
 k-point    48 :   0.3077 0.2308 0.2500  plane waves:    4314
 k-point    49 :   0.3846 0.2308 0.2500  plane waves:    4322
 k-point    50 :   0.4615 0.2308 0.2500  plane waves:    4325
 k-point    51 :   0.3077 0.3077 0.2500  plane waves:    4328
 k-point    52 :   0.3846 0.3077 0.2500  plane waves:    4322
 k-point    53 :   0.4615 0.3077 0.2500  plane waves:    4325
 k-point    54 :   0.3846 0.3846 0.2500  plane waves:    4330
 k-point    55 :   0.4615 0.3846 0.2500  plane waves:    4317
 k-point    56 :   0.4615 0.4615 0.2500  plane waves:    4308
 k-point    57 :   0.0000 0.0000 0.5000  plane waves:    4250
 k-point    58 :   0.0769 0.0000 0.5000  plane waves:    4266
 k-point    59 :   0.1538 0.0000 0.5000  plane waves:    4274
 k-point    60 :   0.2308 0.0000 0.5000  plane waves:    4284
 k-point    61 :   0.3077 0.0000 0.5000  plane waves:    4290
 k-point    62 :   0.3846 0.0000 0.5000  plane waves:    4316
 k-point    63 :   0.4615 0.0000 0.5000  plane waves:    4322
 k-point    64 :   0.0769 0.0769 0.5000  plane waves:    4266
 k-point    65 :   0.1538 0.0769 0.5000  plane waves:    4294
 k-point    66 :   0.2308 0.0769 0.5000  plane waves:    4292
 k-point    67 :   0.3077 0.0769 0.5000  plane waves:    4290
 k-point    68 :   0.3846 0.0769 0.5000  plane waves:    4312
 k-point    69 :   0.4615 0.0769 0.5000  plane waves:    4314
 k-point    70 :   0.1538 0.1538 0.5000  plane waves:    4298
 k-point    71 :   0.2308 0.1538 0.5000  plane waves:    4298
 k-point    72 :   0.3077 0.1538 0.5000  plane waves:    4312
 k-point    73 :   0.3846 0.1538 0.5000  plane waves:    4310
 k-point    74 :   0.4615 0.1538 0.5000  plane waves:    4320
 k-point    75 :   0.2308 0.2308 0.5000  plane waves:    4312
 k-point    76 :   0.3077 0.2308 0.5000  plane waves:    4328
 k-point    77 :   0.3846 0.2308 0.5000  plane waves:    4310
 k-point    78 :   0.4615 0.2308 0.5000  plane waves:    4322
 k-point    79 :   0.3077 0.3077 0.5000  plane waves:    4350
 k-point    80 :   0.3846 0.3077 0.5000  plane waves:    4330
 k-point    81 :   0.4615 0.3077 0.5000  plane waves:    4328
 k-point    82 :   0.3846 0.3846 0.5000  plane waves:    4318
 k-point    83 :   0.4615 0.3846 0.5000  plane waves:    4316
 k-point    84 :   0.4615 0.4615 0.5000  plane waves:    4306

 maximum and minimum number of plane-waves per node :      4350     4250

 maximum number of plane-waves:      4350
 maximum index in each direction: 
   IXMAX=    6   IYMAX=    6   IZMAX=   21
   IXMIN=   -7   IYMIN=   -7   IZMIN=  -21


 serial   3D FFT for wavefunctions
 parallel 3D FFT for charge:
    minimum data exchange during FFTs selected (reduces bandwidth)


 total amount of memory used by VASP MPI-rank0   181644. kBytes
=======================================================================

   base      :      30000. kBytes
   nonl-proj :     106119. kBytes
   fftplans  :        955. kBytes
   grid      :       7297. kBytes
   one-center:        373. kBytes
   wavefun   :      36900. kBytes
 
     INWAV:  cpu time      0.0000: real time      0.0000
 Broyden mixing: mesh for mixing (old mesh)
   NGX = 13   NGY = 13   NGZ = 43
  (NGX  = 56   NGY  = 56   NGZ  =180)
  gives a total of   7267 points

 initial charge density was supplied:
 charge density of overlapping atoms calculated
 number of electron     156.0000000 magnetization       2.7950000
 keeping initial charge density in first step


--------------------------------------------------------------------------------------------------------


 Maximum index for augmentation-charges         1076 (set IRDMAX)


--------------------------------------------------------------------------------------------------------


 First call to EWALD:  gamma=   0.326
 Maximum number of real-space cells 4x 4x 2
 Maximum number of reciprocal cells 2x 2x 5

    FEWALD:  cpu time      0.0024: real time      0.0024


--------------------------------------- Ionic step        1  -------------------------------------------




--------------------------------------- Iteration      1(   1)  ---------------------------------------


    POTLOK:  cpu time      0.0273: real time      0.1006
    SETDIJ:  cpu time      0.0081: real time      0.0082
     EDDAV:  cpu time      4.6835: real time      4.7168
 BZINTS: Fermi energy:   23.996465;  156.000000 electrons
         Band energy: 0.443690E+03;  BLOECHL correction:   -0.070500
       DOS:  cpu time      0.1023: real time      0.1040
    --------------------------------------------
      LOOP:  cpu time      4.8214: real time      4.9298

 eigenvalue-minimisations  : 32256
 total energy-change (2. order) : 0.1734266E+04  (-0.9198562E+04)
 number of electron     156.0000000 magnetization       2.7950000
 augmentation part      156.0000000 magnetization       2.7950000

 Free energy of the ion-electron system (eV)
  ---------------------------------------------------
  alpha Z        PSCENC =      1063.68830978
  Ewald energy   TEWEN  =    -17930.33816181
  -Hartree energ DENC   =     -6078.83993086
  -exchange      EXHF   =         0.00000000
  -V(xc)+E(xc)   XCENC  =       655.90089567
  PAW double counting   =     20094.10342980   -20818.04139205
  entropy T*S    EENTRO =         0.00000000
  eigenvalues    EBANDS =       443.69027730
  atomic energy  EATOM  =     24304.10294433
  Solvation  Ediel_sol  =         0.00000000
  ---------------------------------------------------
  free energy    TOTEN  =      1734.26637215 eV

  energy without entropy =     1734.26637215  energy(sigma->0) =     1734.26637215


--------------------------------------------------------------------------------------------------------




--------------------------------------- Iteration      1(   2)  ---------------------------------------


     EDDAV:  cpu time      4.5108: real time      4.5420
 BZINTS: Fermi energy:   12.268342;  156.000000 electrons
         Band energy:-0.127987E+04;  BLOECHL correction:   -0.033224
       DOS:  cpu time      0.1029: real time      0.1036
    --------------------------------------------
      LOOP:  cpu time      4.6136: real time      4.6455

 eigenvalue-minimisations  : 32384
 total energy-change (2. order) :-0.1723565E+04  (-0.1694010E+04)
 number of electron     156.0000000 magnetization       2.7950000
 augmentation part      156.0000000 magnetization       2.7950000

 Free energy of the ion-electron system (eV)
  ---------------------------------------------------
  alpha Z        PSCENC =      1063.68830978
  Ewald energy   TEWEN  =    -17930.33816181
  -Hartree energ DENC   =     -6078.83993086
  -exchange      EXHF   =         0.00000000
  -V(xc)+E(xc)   XCENC  =       655.90089567
  PAW double counting   =     20094.10342980   -20818.04139205
  entropy T*S    EENTRO =         0.00000000
  eigenvalues    EBANDS =     -1279.87492070
  atomic energy  EATOM  =     24304.10294433
  Solvation  Ediel_sol  =         0.00000000
  ---------------------------------------------------
  free energy    TOTEN  =        10.70117415 eV

  energy without entropy =       10.70117415  energy(sigma->0) =       10.70117415


--------------------------------------------------------------------------------------------------------




--------------------------------------- Iteration      1(   3)  ---------------------------------------


     EDDAV:  cpu time      5.8119: real time      5.8657
 BZINTS: Fermi energy:   11.328151;  156.000000 electrons
         Band energy:-0.139306E+04;  BLOECHL correction:   -0.027618
       DOS:  cpu time      0.1010: real time      0.1018
    --------------------------------------------
      LOOP:  cpu time      5.9129: real time      5.9675

 eigenvalue-minimisations  : 41280
 total energy-change (2. order) :-0.1131807E+03  (-0.1119909E+03)
 number of electron     156.0000000 magnetization       2.7950000
 augmentation part      156.0000000 magnetization       2.7950000

 Free energy of the ion-electron system (eV)
  ---------------------------------------------------
  alpha Z        PSCENC =      1063.68830978
  Ewald energy   TEWEN  =    -17930.33816181
  -Hartree energ DENC   =     -6078.83993086
  -exchange      EXHF   =         0.00000000
  -V(xc)+E(xc)   XCENC  =       655.90089567
  PAW double counting   =     20094.10342980   -20818.04139205
  entropy T*S    EENTRO =         0.00000000
  eigenvalues    EBANDS =     -1393.05557110
  atomic energy  EATOM  =     24304.10294433
  Solvation  Ediel_sol  =         0.00000000
  ---------------------------------------------------
  free energy    TOTEN  =      -102.47947626 eV

  energy without entropy =     -102.47947626  energy(sigma->0) =     -102.47947626


--------------------------------------------------------------------------------------------------------




--------------------------------------- Iteration      1(   4)  ---------------------------------------


     EDDAV:  cpu time      4.5621: real time      4.6088
 BZINTS: Fermi energy:   11.318154;  156.000000 electrons
         Band energy:-0.139552E+04;  BLOECHL correction:   -0.027712
       DOS:  cpu time      0.1002: real time      0.1009
    --------------------------------------------
      LOOP:  cpu time      4.6622: real time      4.7097

 eigenvalue-minimisations  : 32576
 total energy-change (2. order) :-0.2464522E+01  (-0.2462796E+01)
 number of electron     156.0000000 magnetization       2.7950000
 augmentation part      156.0000000 magnetization       2.7950000

 Free energy of the ion-electron system (eV)
  ---------------------------------------------------
  alpha Z        PSCENC =      1063.68830978
  Ewald energy   TEWEN  =    -17930.33816181
  -Hartree energ DENC   =     -6078.83993086
  -exchange      EXHF   =         0.00000000
  -V(xc)+E(xc)   XCENC  =       655.90089567
  PAW double counting   =     20094.10342980   -20818.04139205
  entropy T*S    EENTRO =         0.00000000
  eigenvalues    EBANDS =     -1395.52009303
  atomic energy  EATOM  =     24304.10294433
  Solvation  Ediel_sol  =         0.00000000
  ---------------------------------------------------
  free energy    TOTEN  =      -104.94399818 eV

  energy without entropy =     -104.94399818  energy(sigma->0) =     -104.94399818


--------------------------------------------------------------------------------------------------------




--------------------------------------- Iteration      1(   5)  ---------------------------------------


     EDDAV:  cpu time      5.9417: real time      5.9958
 BZINTS: Fermi energy:   11.317999;  156.000000 electrons
         Band energy:-0.139557E+04;  BLOECHL correction:   -0.027717
       DOS:  cpu time      0.1017: real time      0.1026
    CHARGE:  cpu time      0.1624: real time      0.1637
    MIXING:  cpu time      0.0069: real time      0.0071
    --------------------------------------------
      LOOP:  cpu time      6.2128: real time      6.2692

 eigenvalue-minimisations  : 41024
 total energy-change (2. order) :-0.5472973E-01  (-0.5472478E-01)
 number of electron     156.0000199 magnetization       2.7231084
 augmentation part       79.2535863 magnetization       1.9386273

 Broyden mixing:
  rms(total) = 0.37288E+01    rms(broyden)= 0.37280E+01
  rms(prec ) = 0.42439E+01
  weight for this iteration     100.00

 Free energy of the ion-electron system (eV)
  ---------------------------------------------------
  alpha Z        PSCENC =      1063.68830978
  Ewald energy   TEWEN  =    -17930.33816181
  -Hartree energ DENC   =     -6078.83993086
  -exchange      EXHF   =         0.00000000
  -V(xc)+E(xc)   XCENC  =       655.90089567
  PAW double counting   =     20094.10342980   -20818.04139205
  entropy T*S    EENTRO =         0.00000000
  eigenvalues    EBANDS =     -1395.57482275
  atomic energy  EATOM  =     24304.10294433
  Solvation  Ediel_sol  =         0.00000000
  ---------------------------------------------------
  free energy    TOTEN  =      -104.99872791 eV

  energy without entropy =     -104.99872791  energy(sigma->0) =     -104.99872791


--------------------------------------------------------------------------------------------------------




--------------------------------------- Iteration      1(   6)  ---------------------------------------


    POTLOK:  cpu time      0.0339: real time      0.0475
    SETDIJ:  cpu time      0.0080: real time      0.0081
     EDDAV:  cpu time      5.3190: real time      5.3540
 BZINTS: Fermi energy:    8.600308;  156.000000 electrons
         Band energy:-0.183370E+04;  BLOECHL correction:   -0.030936
       DOS:  cpu time      0.1087: real time      0.1094
    CHARGE:  cpu time      0.1555: real time      0.1563
    MIXING:  cpu time      0.0041: real time      0.0050
    --------------------------------------------
      LOOP:  cpu time      5.6292: real time      5.6803

 eigenvalue-minimisations  : 37824
 total energy-change (2. order) :-0.5838560E+01  (-0.2361063E+02)
 number of electron     156.0000233 magnetization       2.7325074
 augmentation part       88.7708268 magnetization       2.2550885

 Broyden mixing:
  rms(total) = 0.66221E+01    rms(broyden)= 0.66219E+01
  rms(prec ) = 0.88134E+01
  weight for this iteration     100.00

 eigenvalues of (default mixing * dielectric matrix)
  average eigenvalue GAMMA=   0.2211
  0.2211

 Free energy of the ion-electron system (eV)
  ---------------------------------------------------
  alpha Z        PSCENC =      1063.68830978
  Ewald energy   TEWEN  =    -17930.33816181
  -Hartree energ DENC   =     -5653.70793707
  -exchange      EXHF   =         0.00000000
  -V(xc)+E(xc)   XCENC  =       638.16283936
  PAW double counting   =     20332.67735912   -21031.71949657
  entropy T*S    EENTRO =         0.00000000
  eigenvalues    EBANDS =     -1833.70314468
  atomic energy  EATOM  =     24304.10294433
  Solvation  Ediel_sol  =         0.00000000
  ---------------------------------------------------
  free energy    TOTEN  =      -110.83728755 eV

  energy without entropy =     -110.83728755  energy(sigma->0) =     -110.83728755


--------------------------------------------------------------------------------------------------------




--------------------------------------- Iteration      1(   7)  ---------------------------------------


    POTLOK:  cpu time      0.0318: real time      0.0460
    SETDIJ:  cpu time      0.0079: real time      0.0080
     EDDAV:  cpu time      6.0696: real time      6.1104
 BZINTS: Fermi energy:    9.473203;  156.000000 electrons
         Band energy:-0.173031E+04;  BLOECHL correction:   -0.024669
       DOS:  cpu time      0.1080: real time      0.1087
    CHARGE:  cpu time      0.1537: real time      0.1545
    MIXING:  cpu time      0.0048: real time      0.0049
    --------------------------------------------
      LOOP:  cpu time      6.3757: real time      6.4324

 eigenvalue-minimisations  : 43552
 total energy-change (2. order) : 0.3964441E+00  (-0.4613807E+02)
 number of electron     156.0000215 magnetization       3.0774139
 augmentation part       85.8581417 magnetization       1.4825453

 Broyden mixing:
  rms(total) = 0.57271E+01    rms(broyden)= 0.57268E+01
  rms(prec ) = 0.78831E+01
  weight for this iteration     100.00

 eigenvalues of (default mixing * dielectric matrix)
  average eigenvalue GAMMA=   0.3100
  0.4802  0.1398

 Free energy of the ion-electron system (eV)
  ---------------------------------------------------
  alpha Z        PSCENC =      1063.68830978
  Ewald energy   TEWEN  =    -17930.33816181
  -Hartree energ DENC   =     -5741.23784869
  -exchange      EXHF   =         0.00000000
  -V(xc)+E(xc)   XCENC  =       640.46699653
  PAW double counting   =     20672.74376451   -21389.55439601
  entropy T*S    EENTRO =         0.00000000
  eigenvalues    EBANDS =     -1730.31245203
  atomic energy  EATOM  =     24304.10294433
  Solvation  Ediel_sol  =         0.00000000
  ---------------------------------------------------
  free energy    TOTEN  =      -110.44084340 eV

  energy without entropy =     -110.44084340  energy(sigma->0) =     -110.44084340


--------------------------------------------------------------------------------------------------------




--------------------------------------- Iteration      1(   8)  ---------------------------------------


    POTLOK:  cpu time      0.0316: real time      0.0456
    SETDIJ:  cpu time      0.0078: real time      0.0079
     EDDAV:  cpu time      6.2731: real time      6.3141
 BZINTS: Fermi energy:    9.860660;  156.000000 electrons
         Band energy:-0.162853E+04;  BLOECHL correction:   -0.021432
       DOS:  cpu time      0.1076: real time      0.1083
    CHARGE:  cpu time      0.1575: real time      0.1583
    MIXING:  cpu time      0.0018: real time      0.0018
    --------------------------------------------
      LOOP:  cpu time      6.5794: real time      6.6360

 eigenvalue-minimisations  : 44256
 total energy-change (2. order) : 0.1517726E+02  (-0.7720265E+01)
 number of electron     156.0000205 magnetization       3.0587288
 augmentation part       83.8832211 magnetization       3.1595997

 Broyden mixing:
  rms(total) = 0.23956E+01    rms(broyden)= 0.23948E+01
  rms(prec ) = 0.33662E+01
  weight for this iteration     100.00

 eigenvalues of (default mixing * dielectric matrix)
  average eigenvalue GAMMA=   0.4658
  0.9356  0.3278  0.1340

 Free energy of the ion-electron system (eV)
  ---------------------------------------------------
  alpha Z        PSCENC =      1063.68830978
  Ewald energy   TEWEN  =    -17930.33816181
  -Hartree energ DENC   =     -5810.67484393
  -exchange      EXHF   =         0.00000000
  -V(xc)+E(xc)   XCENC  =       642.67281798
  PAW double counting   =     21106.21548386   -21842.40472354
  entropy T*S    EENTRO =         0.00000000
  eigenvalues    EBANDS =     -1628.52540696
  atomic energy  EATOM  =     24304.10294433
  Solvation  Ediel_sol  =         0.00000000
  ---------------------------------------------------
  free energy    TOTEN  =       -95.26358029 eV

  energy without entropy =      -95.26358029  energy(sigma->0) =      -95.26358029


--------------------------------------------------------------------------------------------------------




--------------------------------------- Iteration      1(   9)  ---------------------------------------


    POTLOK:  cpu time      0.0314: real time      0.0462
    SETDIJ:  cpu time      0.0080: real time      0.0081
     EDDAV:  cpu time      6.3378: real time      6.3799
 BZINTS: Fermi energy:    9.809240;  156.000000 electrons
         Band energy:-0.165488E+04;  BLOECHL correction:   -0.015246
       DOS:  cpu time      0.1087: real time      0.1094
    CHARGE:  cpu time      0.1574: real time      0.1582
    MIXING:  cpu time      0.0018: real time      0.0018
    --------------------------------------------
      LOOP:  cpu time      6.6451: real time      6.7036

 eigenvalue-minimisations  : 44064
 total energy-change (2. order) :-0.9110472E+01  (-0.1824372E+02)
 number of electron     156.0000219 magnetization       3.3950441
 augmentation part       84.4334810 magnetization       0.6368846

 Broyden mixing:
  rms(total) = 0.50508E+01    rms(broyden)= 0.50504E+01
  rms(prec ) = 0.74602E+01
  weight for this iteration     100.00

 eigenvalues of (default mixing * dielectric matrix)
  average eigenvalue GAMMA=   0.4385
  1.1605  0.3584  0.1349  0.1004

 Free energy of the ion-electron system (eV)
  ---------------------------------------------------
  alpha Z        PSCENC =      1063.68830978
  Ewald energy   TEWEN  =    -17930.33816181
  -Hartree energ DENC   =     -5787.03432188
  -exchange      EXHF   =         0.00000000
  -V(xc)+E(xc)   XCENC  =       642.13087590
  PAW double counting   =     21331.59011621   -22073.63555006
  entropy T*S    EENTRO =         0.00000000
  eigenvalues    EBANDS =     -1654.87826464
  atomic energy  EATOM  =     24304.10294433
  Solvation  Ediel_sol  =         0.00000000
  ---------------------------------------------------
  free energy    TOTEN  =      -104.37405218 eV

  energy without entropy =     -104.37405218  energy(sigma->0) =     -104.37405218


--------------------------------------------------------------------------------------------------------




--------------------------------------- Iteration      1(  10)  ---------------------------------------


    POTLOK:  cpu time      0.0319: real time      0.0462
    SETDIJ:  cpu time      0.0078: real time      0.0079
     EDDAV:  cpu time      6.4073: real time      6.4490
 BZINTS: Fermi energy:    9.416208;  156.000000 electrons
         Band energy:-0.166898E+04;  BLOECHL correction:   -0.021509
       DOS:  cpu time      0.1098: real time      0.1104
    CHARGE:  cpu time      0.1532: real time      0.1544
    MIXING:  cpu time      0.0020: real time      0.0024
    --------------------------------------------
      LOOP:  cpu time      6.7121: real time      6.7703

 eigenvalue-minimisations  : 45152
 total energy-change (2. order) : 0.1132654E+02  (-0.5063240E+01)
 number of electron     156.0000210 magnetization       3.4098057
 augmentation part       84.7640024 magnetization       2.6240020

 Broyden mixing:
  rms(total) = 0.16854E+01    rms(broyden)= 0.16848E+01
  rms(prec ) = 0.20176E+01
  weight for this iteration     100.00

 eigenvalues of (default mixing * dielectric matrix)
  average eigenvalue GAMMA=   0.3862
  1.1551  0.2983  0.2113  0.1155  0.1507

 Free energy of the ion-electron system (eV)
  ---------------------------------------------------
  alpha Z        PSCENC =      1063.68830978
  Ewald energy   TEWEN  =    -17930.33816181
  -Hartree energ DENC   =     -5757.21335429
  -exchange      EXHF   =         0.00000000
  -V(xc)+E(xc)   XCENC  =       641.09682351
  PAW double counting   =     21500.25196802   -22245.65604823
  entropy T*S    EENTRO =         0.00000000
  eigenvalues    EBANDS =     -1668.97999765
  atomic energy  EATOM  =     24304.10294433
  Solvation  Ediel_sol  =         0.00000000
  ---------------------------------------------------
  free energy    TOTEN  =       -93.04751634 eV

  energy without entropy =      -93.04751634  energy(sigma->0) =      -93.04751634


--------------------------------------------------------------------------------------------------------




--------------------------------------- Iteration      1(  11)  ---------------------------------------


    POTLOK:  cpu time      0.0454: real time      0.0462
    SETDIJ:  cpu time      0.0081: real time      0.0082
     EDDAV:  cpu time      5.9924: real time      6.0311
 BZINTS: Fermi energy:    9.444320;  156.000000 electrons
         Band energy:-0.167027E+04;  BLOECHL correction:   -0.022892
       DOS:  cpu time      0.1079: real time      0.1086
    CHARGE:  cpu time      0.1558: real time      0.1566
    MIXING:  cpu time      0.0020: real time      0.0021
    --------------------------------------------
      LOOP:  cpu time      6.3117: real time      6.3528

 eigenvalue-minimisations  : 42624
 total energy-change (2. order) :-0.1888763E-01  (-0.1348638E+01)
 number of electron     156.0000208 magnetization       3.4308774
 augmentation part       84.7989461 magnetization       2.5417683

 Broyden mixing:
  rms(total) = 0.11717E+01    rms(broyden)= 0.11713E+01
  rms(prec ) = 0.16203E+01
  weight for this iteration     100.00

 eigenvalues of (default mixing * dielectric matrix)
  average eigenvalue GAMMA=   0.3540
  1.1357  0.2884  0.2884  0.1532  0.1532  0.1052

 Free energy of the ion-electron system (eV)
  ---------------------------------------------------
  alpha Z        PSCENC =      1063.68830978
  Ewald energy   TEWEN  =    -17930.33816181
  -Hartree energ DENC   =     -5754.84511207
  -exchange      EXHF   =         0.00000000
  -V(xc)+E(xc)   XCENC  =       641.27579028
  PAW double counting   =     21538.84753019   -22285.52947967
  entropy T*S    EENTRO =         0.00000000
  eigenvalues    EBANDS =     -1670.26822499
  atomic energy  EATOM  =     24304.10294433
  Solvation  Ediel_sol  =         0.00000000
  ---------------------------------------------------
  free energy    TOTEN  =       -93.06640397 eV

  energy without entropy =      -93.06640397  energy(sigma->0) =      -93.06640397


--------------------------------------------------------------------------------------------------------




--------------------------------------- Iteration      1(  12)  ---------------------------------------


    POTLOK:  cpu time      0.0320: real time      0.0464
    SETDIJ:  cpu time      0.0081: real time      0.0082
     EDDAV:  cpu time      5.9232: real time      5.9634
 BZINTS: Fermi energy:    9.471390;  156.000000 electrons
         Band energy:-0.166991E+04;  BLOECHL correction:   -0.024557
       DOS:  cpu time      0.1069: real time      0.1076
    CHARGE:  cpu time      0.2234: real time      0.2244
    MIXING:  cpu time      0.0020: real time      0.0020
    --------------------------------------------
      LOOP:  cpu time      6.2955: real time      6.3521

 eigenvalue-minimisations  : 42624
 total energy-change (2. order) :-0.6750968E-02  (-0.4605327E+00)
 number of electron     156.0000207 magnetization       3.4196132
 augmentation part       84.7174430 magnetization       2.7596648

 Broyden mixing:
  rms(total) = 0.85188E+00    rms(broyden)= 0.85177E+00
  rms(prec ) = 0.10155E+01
  weight for this iteration     100.00

 eigenvalues of (default mixing * dielectric matrix)
  average eigenvalue GAMMA=   0.4378
  1.1621  0.5879  0.5879  0.3372  0.1419  0.1419  0.1057

 Free energy of the ion-electron system (eV)
  ---------------------------------------------------
  alpha Z        PSCENC =      1063.68830978
  Ewald energy   TEWEN  =    -17930.33816181
  -Hartree energ DENC   =     -5754.07967490
  -exchange      EXHF   =         0.00000000
  -V(xc)+E(xc)   XCENC  =       641.77285724
  PAW double counting   =     21582.81160625   -22331.12015639
  entropy T*S    EENTRO =         0.00000000
  eigenvalues    EBANDS =     -1669.91087943
  atomic energy  EATOM  =     24304.10294433
  Solvation  Ediel_sol  =         0.00000000
  ---------------------------------------------------
  free energy    TOTEN  =       -93.07315494 eV

  energy without entropy =      -93.07315494  energy(sigma->0) =      -93.07315494


--------------------------------------------------------------------------------------------------------




--------------------------------------- Iteration      1(  13)  ---------------------------------------


    POTLOK:  cpu time      0.0453: real time      0.0461
    SETDIJ:  cpu time      0.0077: real time      0.0077
     EDDAV:  cpu time      6.2768: real time      6.3180
 BZINTS: Fermi energy:    9.470786;  156.000000 electrons
         Band energy:-0.167164E+04;  BLOECHL correction:   -0.022441
       DOS:  cpu time      0.1084: real time      0.1092
    CHARGE:  cpu time      0.1556: real time      0.1564
    MIXING:  cpu time      0.0020: real time      0.0021
    --------------------------------------------
      LOOP:  cpu time      6.5958: real time      6.6395

 eigenvalue-minimisations  : 44640
 total energy-change (2. order) :-0.2947972E+00  (-0.4217897E+00)
 number of electron     156.0000207 magnetization       3.3597433
 augmentation part       84.7584273 magnetization       2.7040567

 Broyden mixing:
  rms(total) = 0.10111E+01    rms(broyden)= 0.10110E+01
  rms(prec ) = 0.14623E+01
  weight for this iteration     100.00

 eigenvalues of (default mixing * dielectric matrix)
  average eigenvalue GAMMA=   0.4900
  1.3151  0.8752  0.8752  0.3543  0.1449  0.1449  0.1052  0.1052

 Free energy of the ion-electron system (eV)
  ---------------------------------------------------
  alpha Z        PSCENC =      1063.68830978
  Ewald energy   TEWEN  =    -17930.33816181
  -Hartree energ DENC   =     -5751.56706938
  -exchange      EXHF   =         0.00000000
  -V(xc)+E(xc)   XCENC  =       642.01621950
  PAW double counting   =     21626.02229612   -22375.64837859
  entropy T*S    EENTRO =         0.00000000
  eigenvalues    EBANDS =     -1671.64411210
  atomic energy  EATOM  =     24304.10294433
  Solvation  Ediel_sol  =         0.00000000
  ---------------------------------------------------
  free energy    TOTEN  =       -93.36795217 eV

  energy without entropy =      -93.36795217  energy(sigma->0) =      -93.36795217


--------------------------------------------------------------------------------------------------------




--------------------------------------- Iteration      1(  14)  ---------------------------------------


    POTLOK:  cpu time      0.0312: real time      0.0459
    SETDIJ:  cpu time      0.0079: real time      0.0080
     EDDAV:  cpu time      6.4183: real time      6.4597
[...]
     81       9.6943      0.00000
     82       9.7294      0.00000
     83       9.9727      0.00000
     84      10.2302      0.00000
     85      10.2844      0.00000
     86      10.4513      0.00000
     87      10.4687      0.00000
     88      10.4949      0.00000
     89      10.8656      0.00000
     90      10.9180      0.00000
     91      10.9722      0.00000
     92      11.1078      0.00000
     93      11.1079      0.00000
     94      11.5664      0.00000
     95      11.6497      0.00000
     96      11.7670      0.00000


--------------------------------------------------------------------------------------------------------


 soft charge-density along one line, spin component           1
         0         1         2         3         4         5         6         7         8         9
 total charge-density along one line
 
 soft charge-density along one line, spin component           2
         0         1         2         3         4         5         6         7         8         9
 total charge-density along one line
 
 pseudopotential strength for first ion, spin component:           1
-43.004   0.000   0.000   6.781  -0.000  -0.000  -0.000   0.000
  0.000 -43.002   0.000  -0.000   6.779  -0.000  -0.000   0.000
  0.000   0.000 -42.941  -0.000  -0.000   6.754   0.000  -0.000
  6.781  -0.000  -0.000   5.874  -0.000  -0.000  -0.000  -0.000
 -0.000   6.779  -0.000  -0.000   5.875  -0.000   0.000  -0.000
 -0.000  -0.000   6.754  -0.000  -0.000   5.881  -0.000   0.000
 -0.000  -0.000   0.000  -0.000   0.000  -0.000  -0.498   0.000
  0.000   0.000  -0.000  -0.000  -0.000   0.000   0.000  -0.475
 -0.000   0.000   0.000   0.000  -0.000  -0.000  -0.000   0.000
 -0.000  -0.000   0.000   0.000  -0.000  -0.000   0.000   0.000
 -0.000   0.000  -0.000   0.000   0.000   0.000   0.000  -0.000
 -0.000  -0.000   0.000   0.000   0.000  -0.000  -1.037   0.000
  0.000   0.000  -0.000  -0.000  -0.000   0.000   0.000  -1.014
 -0.000   0.000   0.000   0.000  -0.000  -0.000  -0.000   0.000
 -0.000  -0.000   0.000   0.000   0.000  -0.000   0.000   0.000
 -0.000   0.000  -0.000   0.000   0.000   0.000   0.000  -0.000
 -0.000  -0.000   0.000  -0.000  -0.000  -0.000  -0.000  -0.000
 -0.000  -0.000   0.000  -0.000   0.000   0.000  -0.000  -0.000
 pseudopotential strength for first ion, spin component:           2
-45.295   0.000   0.000   7.744  -0.000  -0.000  -0.000   0.000
  0.000 -45.269   0.000  -0.000   7.733  -0.000  -0.000   0.000
  0.000   0.000 -45.118  -0.000  -0.000   7.673   0.000  -0.000
  7.744  -0.000  -0.000   5.604  -0.000  -0.000   0.000  -0.000
 -0.000   7.733  -0.000  -0.000   5.606  -0.000   0.000  -0.000
 -0.000  -0.000   7.673  -0.000  -0.000   5.618  -0.000   0.000
 -0.000  -0.000   0.000   0.000   0.000  -0.000  -2.274   0.000
  0.000   0.000  -0.000  -0.000  -0.000   0.000   0.000  -2.443
 -0.000   0.000   0.000   0.000  -0.000  -0.000  -0.000   0.000
 -0.000  -0.000   0.000   0.000   0.000  -0.000   0.000   0.000
 -0.000   0.000  -0.000   0.000  -0.000   0.000   0.000  -0.000
 -0.000  -0.000   0.000   0.000   0.000  -0.000  -2.785   0.000
  0.000   0.000  -0.000  -0.000  -0.000   0.000   0.000  -2.951
 -0.000   0.000   0.000   0.000  -0.000  -0.000  -0.000   0.000
 -0.000  -0.000   0.000   0.000   0.000  -0.000   0.000   0.000
 -0.000   0.000  -0.000   0.000  -0.000   0.000   0.000  -0.000
 -0.000  -0.000   0.000  -0.000   0.000   0.000  -0.000  -0.000
 -0.000  -0.000   0.000  -0.000   0.000   0.000  -0.000  -0.000
 total augmentation occupancy for first ion, spin component:           1
  1.992   0.000   0.000  -0.027   0.000   0.000   0.000   0.000   0.000   0.000   0.000  -0.000  -0.000   0.000   0.000  -0.000
  0.000   1.992   0.000   0.000  -0.027   0.000   0.000   0.000   0.000   0.000  -0.000  -0.000   0.000  -0.000   0.000  -0.000
  0.000   0.000   1.992   0.000   0.000  -0.026   0.000  -0.000   0.000   0.000   0.000   0.000   0.000   0.000  -0.000   0.000
 -0.027   0.000   0.000   0.166   0.000   0.000   0.000   0.000   0.000  -0.000   0.000   0.000  -0.000   0.000   0.000   0.000
  0.000  -0.027   0.000   0.000   0.169   0.000   0.000  -0.000   0.000   0.000  -0.000   0.000   0.000  -0.000   0.000  -0.000
  0.000   0.000  -0.026   0.000   0.000   0.168   0.000   0.000   0.000   0.000   0.000   0.000   0.000   0.000  -0.000   0.000
  0.000   0.000   0.000   0.000   0.000   0.000   2.751   0.000   0.000   0.000   0.000  -1.488   0.000   0.000   0.000   0.000
  0.000   0.000  -0.000   0.000  -0.000   0.000   0.000   3.019   0.000   0.000  -0.000   0.000  -1.991   0.000   0.000   0.000
  0.000   0.000   0.000   0.000   0.000   0.000   0.000   0.000   3.296   0.000   0.153   0.000   0.000  -1.864   0.000  -0.028
  0.000   0.000   0.000  -0.000   0.000   0.000   0.000   0.000   0.000   2.734  -0.000   0.000   0.000   0.000  -1.475  -0.000
  0.000  -0.000   0.000   0.000  -0.000   0.000   0.000  -0.000   0.153  -0.000   3.134   0.000   0.000  -0.029  -0.000  -1.788
 -0.000  -0.000   0.000   0.000   0.000   0.000  -1.488   0.000   0.000   0.000   0.000   1.629  -0.000   0.000  -0.000   0.000
 -0.000   0.000   0.000  -0.000   0.000   0.000   0.000  -1.991   0.000   0.000   0.000  -0.000   2.176   0.000   0.000   0.000
  0.000  -0.000   0.000   0.000  -0.000   0.000   0.000   0.000  -1.864   0.000  -0.029   0.000   0.000   1.735   0.000  -0.048
  0.000   0.000  -0.000   0.000   0.000  -0.000   0.000   0.000   0.000  -1.475  -0.000  -0.000   0.000   0.000   1.679   0.000
 -0.000  -0.000   0.000   0.000  -0.000   0.000   0.000   0.000  -0.028  -0.000  -1.788   0.000   0.000  -0.048   0.000   1.723
  0.000   0.000   0.000   0.000  -0.000   0.000   0.000   0.000  -0.070   0.000   0.103   0.000   0.000   0.053  -0.000  -0.029
 -0.000  -0.000   0.000   0.000   0.000  -0.000   0.000   0.000   0.008   0.000  -0.015   0.000   0.000  -0.005   0.000   0.007
 total augmentation occupancy for first ion, spin component:           2
  0.002   0.000   0.000   0.008  -0.000   0.000   0.000   0.000   0.000   0.000   0.000   0.000  -0.000   0.000   0.000   0.000
  0.000   0.002  -0.000   0.000   0.009   0.000   0.000  -0.000   0.000  -0.000   0.000   0.000   0.000  -0.000  -0.000  -0.000
  0.000  -0.000   0.002   0.000  -0.000   0.010   0.000  -0.000   0.000   0.000   0.000   0.000  -0.000  -0.000  -0.000   0.000
  0.008   0.000   0.000  -0.003   0.000  -0.000   0.000  -0.000   0.000   0.000   0.000   0.000  -0.000   0.000   0.000   0.000
 -0.000   0.009  -0.000   0.000   0.007   0.000  -0.000   0.000  -0.000   0.000  -0.000   0.000   0.000   0.000   0.000   0.000
  0.000   0.000   0.010  -0.000   0.000   0.007   0.000   0.000  -0.000  -0.000   0.000   0.000   0.000   0.000  -0.000   0.000
  0.000   0.000   0.000   0.000  -0.000   0.000  -2.230   0.000   0.000   0.000   0.000   0.956   0.000   0.000   0.000   0.000
  0.000  -0.000  -0.000  -0.000   0.000   0.000   0.000  -2.212   0.000   0.000   0.000   0.000   0.747   0.000   0.000   0.000
  0.000   0.000   0.000   0.000  -0.000  -0.000   0.000   0.000  -2.646   0.000  -0.079   0.000   0.000   1.129  -0.000   0.123
  0.000  -0.000   0.000   0.000   0.000  -0.000   0.000   0.000   0.000  -2.157   0.000   0.000   0.000   0.000   0.928  -0.000
  0.000   0.000   0.000   0.000  -0.000   0.000   0.000   0.000  -0.079   0.000  -2.547   0.000   0.000   0.123   0.000   1.014
  0.000   0.000   0.000   0.000   0.000   0.000   0.956   0.000   0.000   0.000   0.000  -0.207   0.000  -0.000   0.000   0.000
 -0.000   0.000  -0.000  -0.000   0.000   0.000   0.000   0.747   0.000   0.000   0.000   0.000   0.021   0.000   0.000   0.000
  0.000  -0.000  -0.000   0.000   0.000   0.000   0.000   0.000   1.129   0.000   0.123  -0.000   0.000  -0.340  -0.000  -0.140
  0.000  -0.000  -0.000   0.000   0.000  -0.000   0.000   0.000  -0.000   0.928   0.000   0.000   0.000  -0.000  -0.164   0.000
  0.000  -0.000   0.000   0.000   0.000   0.000   0.000   0.000   0.123  -0.000   1.014   0.000   0.000  -0.140   0.000  -0.214
 -0.000  -0.000   0.000   0.000  -0.000   0.000   0.000   0.000  -0.007   0.000  -0.040   0.000   0.000   0.001   0.000   0.063
  0.000  -0.000  -0.000   0.000   0.000   0.000   0.000   0.000  -0.004   0.000   0.011   0.000   0.000   0.001  -0.000  -0.004


------------------------ aborting loop because EDIFF is reached ----------------------------------------





 total charge

# of ion       s       p       d       tot
------------------------------------------
    1        0.344   6.311   6.033  12.688
    2        0.340   6.309   6.004  12.653
    3        0.340   6.309   6.004  12.652
    4        0.346   6.316   5.997  12.659
    5        0.346   6.316   5.996  12.659
    6        0.343   6.313   5.998  12.654
    7        0.344   6.311   6.033  12.688
    8        0.340   6.309   6.004  12.653
    9        0.340   6.309   6.004  12.652
   10        0.759   0.654   8.022   9.436
   11        0.759   0.654   8.022   9.435
   12        0.743   0.675   8.018   9.436
--------------------------------------------------
tot          5.345  58.786  78.134 142.266



 magnetization (x)

# of ion       s       p       d       tot
------------------------------------------
    1       -0.006   0.009  -2.639  -2.636
    2        0.011   0.003   2.617   2.630
    3        0.011   0.003   2.617   2.631
    4       -0.016  -0.026  -2.634  -2.676
    5       -0.016  -0.026  -2.635  -2.676
    6        0.005  -0.017   2.828   2.817
    7       -0.006   0.009  -2.639  -2.636
    8        0.011   0.003   2.617   2.630
    9        0.011   0.003   2.617   2.631
   10        0.008   0.019  -0.110  -0.083
   11        0.008   0.019  -0.110  -0.083
   12       -0.039  -0.090   0.369   0.240
--------------------------------------------------
tot         -0.018  -0.092   2.899   2.790
 
    CHARGE:  cpu time      0.1556: real time      0.1566
    FORLOC:  cpu time      0.0010: real time      0.0010
    FORNL :  cpu time      0.5602: real time      0.5628
    STRESS:  cpu time      4.2452: real time      4.2803
    FORCOR:  cpu time      0.0220: real time      0.0221
    FORHAR:  cpu time      0.0029: real time      0.0029
    MIXING:  cpu time      0.0038: real time      0.0038
    OFIELD:  cpu time      0.0016: real time      0.0016

  FORCE on cell =-STRESS in cart. coord.  units (eV):
  Direction    XX          YY          ZZ          XY          YZ          ZX
  --------------------------------------------------------------------------------------
  Alpha Z  1063.68831  1063.68831  1063.68831
  Ewald   -5963.28454 -5963.28454 -6003.79401    -0.00000    -0.00000     0.00000
  Hartree  1922.87571  1922.87571  1884.99155    -0.00000    -0.00000    -0.00000
  E(xc)    -942.88601  -942.88601  -942.81189     0.00000    -0.00000     0.00000
  Local    1001.31635  1001.31635  1089.58802    -0.00000     0.00000    -0.00000
  n-local  -218.94476  -233.42145  -226.55460    14.14446     0.03118    -0.00335
  augment  1441.71354  1441.71354  1435.59570    -0.00000    -0.00000    -0.00000
  Kinetic  1703.79227  1689.01716  1693.09459     2.29429     0.26928     0.51933
  Fock        0.00000     0.00000     0.00000     0.00000     0.00000     0.00000
  -------------------------------------------------------------------------------------
  Total      -6.35502    -6.35502    -6.20233     0.00000     0.00000     0.00000
  in kB     -63.63671   -63.63671   -62.10772     0.00000     0.00000     0.00000
  external pressure =      -63.13 kB  Pullay stress =        0.00 kB


 VOLUME and BASIS-vectors are now :
 -----------------------------------------------------------------------------
  energy-cutoff  :      520.00
  volume of cell :      160.00
      direct lattice vectors                 reciprocal lattice vectors
     3.741514382  0.000000000  0.000000000     0.267271457  0.000000000  0.000000000
     0.000000000  3.741514382  0.000000000     0.000000000  0.267271457  0.000000000
     0.000000000  0.000000000 11.429445070     0.000000000  0.000000000  0.087493312

  length of vectors
     3.741514382  3.741514382 11.429445070     0.267271457  0.267271457  0.087493312


 FORCES acting on ions
    electron-ion (+dipol)            ewald-force                    non-local-force                 convergence-correction
 -----------------------------------------------------------------------------------------------
   -.652E-13 0.926E-12 -.338E+00   0.171E-13 -.487E-14 0.321E+00   -.979E-21 -.945E-21 0.153E-02   -.786E-13 -.386E-13 0.176E-01
   -.418E-13 0.131E-11 -.155E+02   -.202E-13 -.130E-13 0.167E+02   -.201E-18 -.237E-17 -.119E+01   -.983E-13 -.129E-13 -.202E-01
   -.561E-13 0.277E-11 0.158E+02   -.181E-13 -.137E-13 -.170E+02   -.854E-19 0.381E-18 0.119E+01   -.850E-13 -.239E-13 0.216E-02
   0.109E-11 0.751E-11 0.118E+03   0.111E-13 0.294E-13 -.116E+03   -.419E-18 -.115E-17 -.218E+01   -.150E-12 -.126E-13 0.464E-01
   0.112E-11 -.274E-11 -.118E+03   0.200E-13 -.347E-13 0.115E+03   0.367E-18 -.786E-18 0.217E+01   -.152E-12 0.209E-13 -.291E-01
   0.113E-11 0.670E-11 -.422E+00   0.619E-13 0.209E-13 0.437E+00   0.107E-21 -.890E-21 0.228E-02   -.161E-12 0.163E-13 -.156E-01
   0.115E-11 -.614E-13 -.338E+00   -.153E-13 0.417E-13 0.321E+00   -.151E-20 0.479E-21 0.153E-02   -.119E-12 -.518E-14 0.176E-01
   0.112E-11 -.562E-13 -.155E+02   -.239E-13 0.107E-13 0.167E+02   0.483E-18 0.584E-18 -.119E+01   -.113E-12 -.983E-14 -.202E-01
   0.113E-11 -.277E-12 0.158E+02   -.305E-13 -.134E-13 -.170E+02   0.166E-18 0.273E-19 0.119E+01   -.102E-12 -.146E-13 0.216E-02
   -.394E-13 0.132E-13 0.315E+02   0.138E-13 0.218E-13 -.318E+02   0.541E-18 0.325E-18 0.287E+00   0.824E-14 -.974E-14 0.337E-01
   -.287E-13 -.823E-13 -.313E+02   -.377E-13 0.248E-14 0.316E+02   0.105E-17 -.340E-18 -.288E+00   0.841E-14 -.783E-14 -.222E-01
   -.336E-13 -.413E-13 -.301E+00   -.381E-13 0.159E-14 0.312E+00   -.500E-22 0.273E-21 0.442E-02   0.109E-13 -.770E-14 -.117E-01
 -----------------------------------------------------------------------------------------------
   0.647E-11 0.160E-10 -.230E-03   -.599E-13 0.490E-13 -.146E-12   0.190E-17 -.334E-17 -.701E-03   -.103E-11 -.106E-12 0.780E-03
 
 
 POSITION                                       TOTAL-FORCE (eV/Angst)
 -----------------------------------------------------------------------------------
      0.00000      1.87076      1.90474         0.000000     -0.000000      0.002127
      0.00000      1.87076      5.70981         0.000000      0.000000      0.000013
      0.00000      1.87076      9.52964         0.000000      0.000000     -0.003218
      1.87076      1.87076      0.09219        -0.000000     -0.000000      0.010201
      1.87076      1.87076      3.71799        -0.000000     -0.000000     -0.012382
      1.87076      1.87076      7.61941         0.000000     -0.000000      0.001809
      1.87076      0.00000      1.90474         0.000000      0.000000      0.002127
      1.87076      0.00000      5.70981         0.000000      0.000000      0.000013
      1.87076      0.00000      9.52964         0.000000      0.000000     -0.003218
      0.00000      0.00000     11.39804         0.000000      0.000000     -0.020717
      0.00000      0.00000      3.84126         0.000000      0.000000      0.019404
      0.00000      0.00000      7.61940         0.000000      0.000000      0.003842
 -----------------------------------------------------------------------------------
    total drift:                                0.000000      0.000000     -0.000152


--------------------------------------------------------------------------------------------------------



  FREE ENERGIE OF THE ION-ELECTRON SYSTEM (eV)
  ---------------------------------------------------
  free  energy   TOTEN  =       -93.28424873 eV

  energy  without entropy=      -93.28424873  energy(sigma->0) =      -93.28424873
 


--------------------------------------------------------------------------------------------------------


    POTLOK:  cpu time      0.0387: real time      0.0393


--------------------------------------------------------------------------------------------------------


     LOOP+:  cpu time    162.8226: real time    167.5215
 -----------------------------------------------------------------------------
|                                                                             |
|           W    W    AA    RRRRR   N    N  II  N    N   GGGG   !!!           |
|           W    W   A  A   R    R  NN   N  II  NN   N  G    G  !!!           |
|           W    W  A    A  R    R  N N  N  II  N N  N  G       !!!           |
|           W WW W  AAAAAA  RRRRR   N  N N  II  N  N N  G  GGG   !            |
|           WW  WW  A    A  R   R   N   NN  II  N   NN  G    G                |
|           W    W  A    A  R    R  N    N  II  N    N   GGGG   !!!           |
|                                                                             |
|     Tetrahedron method does not include variations of the Fermi             |
|     occupations, so forces and stress will be inaccurate. We suggest        |
|     using a different smearing scheme ISMEAR = 1 or 2 for metals in         |
|     relaxations.                                                            |
|                                                                             |
 -----------------------------------------------------------------------------

    4ORBIT:  cpu time      0.0000: real time      0.0000



 total charge

# of ion       s       p       d       tot
------------------------------------------
    1        0.344   6.311   6.033  12.688
    2        0.340   6.309   6.004  12.653
    3        0.340   6.309   6.004  12.652
    4        0.346   6.316   5.997  12.659
    5        0.346   6.316   5.996  12.659
    6        0.343   6.313   5.998  12.654
    7        0.344   6.311   6.033  12.688
    8        0.340   6.309   6.004  12.653
    9        0.340   6.309   6.004  12.652
   10        0.759   0.654   8.022   9.436
   11        0.759   0.654   8.022   9.435
   12        0.743   0.675   8.018   9.436
--------------------------------------------------
tot          5.345  58.786  78.134 142.266



 magnetization (x)

# of ion       s       p       d       tot
------------------------------------------
    1       -0.006   0.009  -2.639  -2.636
    2        0.011   0.003   2.617   2.630
    3        0.011   0.003   2.617   2.631
    4       -0.016  -0.026  -2.634  -2.676
    5       -0.016  -0.026  -2.635  -2.676
    6        0.005  -0.017   2.828   2.817
    7       -0.006   0.009  -2.639  -2.636
    8        0.011   0.003   2.617   2.630
    9        0.011   0.003   2.617   2.631
   10        0.008   0.019  -0.110  -0.083
   11        0.008   0.019  -0.110  -0.083
   12       -0.039  -0.090   0.369   0.240
--------------------------------------------------
tot         -0.018  -0.092   2.899   2.790
 
 BZINTS: Fermi energy:    9.507635;  156.000000 electrons
         Band energy:-0.168305E+04;  BLOECHL correction:   -0.026188

 total amount of memory used by VASP MPI-rank0   181644. kBytes
=======================================================================

   base      :      30000. kBytes
   nonl-proj :     106119. kBytes
   fftplans  :        955. kBytes
   grid      :       7297. kBytes
   one-center:        373. kBytes
   wavefun   :      36900. kBytes
 
  
  
 General timing and accounting informations for this job:
 ========================================================
  
                  Total CPU time used (sec):      182.751
                            User time (sec):      175.011
                          System time (sec):        7.740
                         Elapsed time (sec):      193.491
  
                   Maximum memory used (kb):      828652.
                   Average memory used (kb):          N/A
  
                          Minor page faults:       161615
                          Major page faults:          179
                 Voluntary context switches:         9045
