       N       E                     dE             d eps       ncg     rms          rms(c)
DAV:   1     0.173715256527E+04    0.17372E+04   -0.91225E+04130208   0.247E+03
DAV:   2     0.628412521544E+01   -0.17309E+04   -0.16987E+04131232   0.610E+02
DAV:   3    -0.102452999226E+03   -0.10874E+03   -0.10765E+03155424   0.161E+02
DAV:   4    -0.104617241830E+03   -0.21642E+01   -0.21616E+01133280   0.243E+01
DAV:   5    -0.104664938260E+03   -0.47696E-01   -0.47689E-01165664   0.353E+00    0.438E+01
DAV:   6    -0.104069064197E+03    0.59587E+00   -0.18256E+02143808   0.786E+01    0.504E+01
DAV:   7    -0.122249379081E+03   -0.18180E+02   -0.49821E+02171808   0.985E+01    0.690E+01
DAV:   8    -0.942367181289E+02    0.28013E+02   -0.69348E+01170816   0.660E+01    0.186E+01
DAV:   9    -0.928260260993E+02    0.14107E+01   -0.18361E+01166336   0.230E+01    0.177E+01
DAV:  10    -0.936403953855E+02   -0.81437E+00   -0.29467E+01176384   0.197E+01    0.207E+01
DAV:  11    -0.925458380979E+02    0.10946E+01   -0.16822E+01179840   0.143E+01    0.106E+01
DAV:  12    -0.923468127323E+02    0.19903E+00   -0.56089E+00176544   0.109E+01    0.688E+00
DAV:  13    -0.924275857960E+02   -0.80773E-01   -0.31286E+00170336   0.622E+00    0.768E+00
DAV:  14    -0.923437263584E+02    0.83859E-01   -0.56651E-01169120   0.353E+00    0.556E+00
DAV:  15    -0.923175887743E+02    0.26138E-01   -0.35433E-02154368   0.845E-01    0.566E+00
DAV:  16    -0.924138735297E+02   -0.96285E-01   -0.36876E-01177728   0.341E+00    0.659E+00
DAV:  17    -0.924277712801E+02   -0.13898E-01   -0.11261E+00176064   0.523E+00    0.430E+00
DAV:  18    -0.925547751569E+02   -0.12700E+00   -0.14921E+00175712   0.627E+00    0.217E+00
DAV:  19    -0.925933307213E+02   -0.38556E-01   -0.49174E-01167904   0.402E+00    0.311E+00
DAV:  20    -0.925669537866E+02    0.26377E-01   -0.28797E-01168064   0.309E+00    0.149E+00
DAV:  21    -0.925784997974E+02   -0.11546E-01   -0.11947E-01168704   0.228E+00    0.194E+00
DAV:  22    -0.925687431647E+02    0.97566E-02   -0.12227E-01169728   0.221E+00    0.951E-01
DAV:  23    -0.925679218808E+02    0.82128E-03   -0.23111E-02174048   0.928E-01    0.460E-01
DAV:  24    -0.925711317440E+02   -0.32099E-02   -0.36318E-02175136   0.117E+00    0.967E-01
DAV:  25    -0.925678447053E+02    0.32870E-02   -0.27247E-02171104   0.976E-01    0.234E-01
DAV:  26    -0.925679004112E+02   -0.55706E-04   -0.78124E-04160512   0.184E-01    0.126E-01
DAV:  27    -0.925679094704E+02   -0.90593E-05   -0.32266E-04176352   0.104E-01    0.606E-02
DAV:  28    -0.925679299264E+02   -0.20456E-04   -0.69155E-05153056   0.501E-02    0.325E-02
DAV:  29    -0.925679259712E+02    0.39552E-05   -0.26611E-05170752   0.305E-02    0.135E-02
DAV:  30    -0.925679293610E+02   -0.33897E-05   -0.85193E-06119040   0.156E-02    0.905E-03
DAV:  31    -0.925679317718E+02   -0.24108E-05   -0.12016E-06 69280   0.826E-03    0.599E-03
DAV:  32    -0.925679314101E+02    0.36166E-06   -0.68220E-07 68128   0.582E-03
   1 F= -.92567931E+02 E0= -.92567931E+02  d E =0.000000E+00  mag=     1.7866
