 vasp.6.4.3 19Mar24 (build Mar 26 2024 14:05:37) complex                        
  
 executed on             LinuxIFC date 2024.12.16  16:29:30
 running  128 mpi-ranks, on    1 nodes
 distrk:  each k-point on   32 cores,    4 groups
 distr:  one band on NCORE=   1 cores,   32 groups


--------------------------------------------------------------------------------------------------------


 INCAR:
   ALGO = Normal
   EDIFF = 1e-06
   EDIFFG = -0.01
   ENCUT = 520
   GGA = Pe
   IBRION = -1
   ISIF = 4
   ISMEAR = -5
   ISPIN = 2
   ISYM = 0
   KPAR = 4
   LCHARG = True
   LORBIT = 11
   LREAL = False
   LWAVE = False
   MAGMOM = 1*-2.244 1*2.118 1*2.116 1*-2.227 1*-2.228 1*2.242 1*-2.244 1*2.118 1*2.116 2*-0.081 1*0.168
   NELM = 200
   NSW = 0
   POTIM = 0.25
   PREC = Accurate
   SIGMA = 0.2

 POTCAR:    PAW_PBE Fe_pv 02Aug2007               
 POTCAR:    PAW_PBE Pt 04Feb2005                  
 -----------------------------------------------------------------------------
|                                                                             |
|           W    W    AA    RRRRR   N    N  II  N    N   GGGG   !!!           |
|           W    W   A  A   R    R  NN   N  II  NN   N  G    G  !!!           |
|           W    W  A    A  R    R  N N  N  II  N N  N  G       !!!           |
|           W WW W  AAAAAA  RRRRR   N  N N  II  N  N N  G  GGG   !            |
|           WW  WW  A    A  R   R   N   NN  II  N   NN  G    G                |
|           W    W  A    A  R    R  N    N  II  N    N   GGGG   !!!           |
|                                                                             |
|     For optimal performance we recommend to set                             |
|       NCORE = 2 up to number-of-cores-per-socket                            |
|     NCORE specifies how many cores store one orbital (NPAR=cpu/NCORE).      |
|     This setting can greatly improve the performance of VASP for DFT.       |
|     The default, NCORE=1 might be grossly inefficient on modern             |
|     multi-core architectures or massively parallel machines. Do your        |
|     own testing! More info at https://www.vasp.at/wiki/index.php/NCORE      |
|     Unfortunately you need to use the default for GW and RPA                |
|     calculations (for HF NCORE is supported but not extensively tested      |
|     yet).                                                                   |
|                                                                             |
 -----------------------------------------------------------------------------

 POTCAR:    PAW_PBE Fe_pv 02Aug2007               
   SHA256 =  5d22e414b1f82158bf2c7ecb8b97b28fd0923e48cadc1c3bf74d524558f5dd32 Fe_pv/POTCAR          
   COPYR  = (c) Copyright 02Aug2007 Georg Kresse                                                    
   COPYR  = This file is part of the software VASP. Any use, copying, and all other rights are regul
   COPYR  = If you do not have a valid VASP license, you may not use, copy or distribute this file. 
   VRHFIN =Fe:  3pd7s1                                                                              
   LEXCH  = PE                                                                                      
   EATOM  =  2457.4239 eV,  180.6156 Ry                                                             
                                                                                                    
   TITEL  = PAW_PBE Fe_pv 02Aug2007                                                                 
   LULTRA =        F    use ultrasoft PP ?                                                          
   IUNSCR =        1    unscreen: 0-lin 1-nonlin 2-no                                               
   RPACOR =    1.750    partial core radius                                                         
   POMASS =   55.847; ZVAL   =   14.000    mass and valenz                                          
   RCORE  =    2.200    outmost cutoff radius                                                       
   RWIGS  =    2.200; RWIGS  =    1.164    wigner-seitz radius (au A)                               
   ENMAX  =  293.238; ENMIN  =  219.928 eV                                                          
   ICORE  =        3    local potential                                                             
   LCOR   =        T    correct aug charges                                                         
   LPAW   =        T    paw PP                                                                      
   EAUG   =  578.342                                                                                
   DEXC   =    0.000                                                                                
   RMAX   =    2.249    core radius for proj-oper                                                   
   RAUG   =    1.300    factor for augmentation sphere                                              
   RDEP   =    2.296    radius for radial grids                                                     
   RDEPT  =    1.766    core radius for aug-charge                                                  
                                                                                                    
   Atomic configuration                                                                             
    8 entries                                                                                       
     n  l   j            E        occ.                                                              
     1  0  0.50     -6993.8440   2.0000                                                             
     2  0  0.50      -814.6047   2.0000                                                             
     2  1  1.50      -693.3689   6.0000                                                             
     3  0  0.50       -89.4732   2.0000                                                             
     3  1  1.50       -55.6373   6.0000                                                             
     3  2  2.50        -3.8151   7.0000                                                             
     4  0  0.50        -4.2551   1.0000                                                             
     4  3  2.50        -1.3606   0.0000                                                             
   Description                                                                                      
     l       E           TYP  RCUT    TYP  RCUT                                                     
     1    -55.6372668     23  2.000                                                                 
     1     -5.4423304     23  2.000                                                                 
     2     -3.8151096     23  2.200                                                                 
     2     -5.1756922     23  2.200                                                                 
     0     -4.2550951     23  2.200                                                                 
     0     27.2116520     23  2.200                                                                 
     3     -1.3605826     23  2.200                                                                 
  local pseudopotential read in
  partial core-charges read in
  partial kinetic energy density read in
  atomic valenz-charges read in
  non local Contribution for L=           1  read in
    real space projection operators read in
  non local Contribution for L=           1  read in
    real space projection operators read in
  non local Contribution for L=           2  read in
    real space projection operators read in
  non local Contribution for L=           2  read in
    real space projection operators read in
  non local Contribution for L=           0  read in
    real space projection operators read in
  non local Contribution for L=           0  read in
    real space projection operators read in
    PAW grid and wavefunctions read in
 
   number of l-projection  operators is LMAX  =           6
   number of lm-projection operators is LMMAX =          18
 
 POTCAR:    PAW_PBE Pt 04Feb2005                  
   SHA256 =  3ed90460adef76debcff1cfb73ee1349b515b1a3db03439735b44de3a8db7dc8 Pt/POTCAR             
   COPYR  = (c) Copyright 04Feb2005 Georg Kresse                                                    
   COPYR  = This file is part of the software VASP. Any use, copying, and all other rights are regul
   COPYR  = If you do not have a valid VASP license, you may not use, copy or distribute this file. 
   VRHFIN =Pt: s1d9                                                                                 
   LEXCH  = PE                                                                                      
   EATOM  =   729.1176 eV,   53.5886 Ry                                                             
                                                                                                    
   TITEL  = PAW_PBE Pt 04Feb2005                                                                    
   LULTRA =        F    use ultrasoft PP ?                                                          
   IUNSCR =        1    unscreen: 0-lin 1-nonlin 2-no                                               
   RPACOR =    2.330    partial core radius                                                         
   POMASS =  195.080; ZVAL   =   10.000    mass and valenz                                          
   RCORE  =    2.600    outmost cutoff radius                                                       
   RWIGS  =    2.750; RWIGS  =    1.455    wigner-seitz radius (au A)                               
   ENMAX  =  230.283; ENMIN  =  172.712 eV                                                          
   ICORE  =        3    local potential                                                             
   LCOR   =        T    correct aug charges                                                         
   LPAW   =        T    paw PP                                                                      
   EAUG   =  358.966                                                                                
   DEXC   =    0.000                                                                                
   RMAX   =    2.658    core radius for proj-oper                                                   
   RAUG   =    1.300    factor for augmentation sphere                                              
   RDEP   =    2.761    radius for radial grids                                                     
   RDEPT  =    2.203    core radius for aug-charge                                                  
                                                                                                    
   Atomic configuration                                                                             
   16 entries                                                                                       
     n  l   j            E        occ.                                                              
     1  0  0.50    -78401.1885   2.0000                                                             
     2  0  0.50    -13770.7750   2.0000                                                             
     2  1  1.50    -11931.0468   6.0000                                                             
     3  0  0.50     -3234.7234   2.0000                                                             
     3  1  1.50     -2699.2216   6.0000                                                             
     3  2  2.50     -2119.5714  10.0000                                                             
     4  0  0.50      -695.1528   2.0000                                                             
     4  1  1.50      -519.6034   6.0000                                                             
     4  2  2.50      -306.6786  10.0000                                                             
     4  3  3.50       -70.1041  14.0000                                                             
     5  0  0.50      -101.7747   2.0000                                                             
     5  1  1.50       -55.9873   6.0000                                                             
     5  2  2.50        -6.1423   9.0000                                                             
     6  0  0.50        -5.6573   1.0000                                                             
     6  1  1.50        -6.8029   0.0000                                                             
     5  3  2.50        -1.3606   0.0000                                                             
   Description                                                                                      
     l       E           TYP  RCUT    TYP  RCUT                                                     
     2     -6.1423404     23  2.500                                                                 
     2     -7.5029230     23  2.500                                                                 
     0     -5.6573207     23  2.500                                                                 
     0      0.7416693     23  2.500                                                                 
     1     -2.7211652     23  2.600                                                                 
     1     20.4087390     23  2.600                                                                 
     3     -1.3605826     23  2.500                                                                 
  local pseudopotential read in
  partial core-charges read in
  partial kinetic energy density read in
  atomic valenz-charges read in
  non local Contribution for L=           2  read in
    real space projection operators read in
  non local Contribution for L=           2  read in
    real space projection operators read in
  non local Contribution for L=           0  read in
    real space projection operators read in
  non local Contribution for L=           0  read in
    real space projection operators read in
  non local Contribution for L=           1  read in
    real space projection operators read in
  non local Contribution for L=           1  read in
    real space projection operators read in
    PAW grid and wavefunctions read in
 
   number of l-projection  operators is LMAX  =           6
   number of lm-projection operators is LMMAX =          18
 
  PAW_PBE Fe_pv 02Aug2007               :
 energy of atom  1       EATOM=-2457.4239
 kinetic energy error for atom=    0.0062 (will be added to EATOM!!)
  PAW_PBE Pt 04Feb2005                  :
 energy of atom  2       EATOM= -729.1176
 kinetic energy error for atom=    0.0032 (will be added to EATOM!!)
 
 
 POSCAR: Fe9 Pt3
  positions in direct lattice
  velocities in cartesian coordinates


 exchange-correlation table for PE
   RHO(1)=    0.500       N(1)  =     2000
   RHO(2)=  100.500       N(2)  =     4000
 


--------------------------------------------------------------------------------------------------------


 ion  position               nearest neighbor table
   1  1.000  0.500  0.167-   4 2.53   4 2.53   5 2.53   5 2.53   7 2.53   7 2.53   7 2.53   7 2.53
                            10 2.56  10 2.56  11 2.56  11 2.56
   2  0.000  0.500  0.500-  11 2.53  11 2.53   8 2.53   8 2.53   8 2.53   8 2.53  12 2.55  12 2.55
                             6 2.55   6 2.55   5 2.55   5 2.55
   3  0.000  0.500  0.834-  10 2.52  10 2.52   9 2.53   9 2.53   9 2.53   9 2.53   6 2.55   6 2.55
                            12 2.55  12 2.55   4 2.55   4 2.55
   4  0.500  0.500  0.001-   7 2.53   1 2.53   7 2.53   1 2.53  10 2.53  10 2.53  10 2.53  10 2.53
                             9 2.55   3 2.55   3 2.55   9 2.55
   5  0.500  0.500  0.332-   1 2.53   7 2.53   7 2.53   1 2.53  11 2.53  11 2.53  11 2.53  11 2.53
                             8 2.55   2 2.55   2 2.55   8 2.55
   6  0.500  0.500  0.667-  12 2.53  12 2.53  12 2.53  12 2.53   9 2.55   9 2.55   3 2.55   3 2.55
                             8 2.55   8 2.55   2 2.55   2 2.55
   7  0.500  1.000  0.167-   4 2.53   4 2.53   5 2.53   5 2.53   1 2.53   1 2.53   1 2.53   1 2.53
                            10 2.56  10 2.56  11 2.56  11 2.56
   8  0.500  0.000  0.500-  11 2.53  11 2.53   2 2.53   2 2.53   2 2.53   2 2.53  12 2.55  12 2.55
                             6 2.55   6 2.55   5 2.55   5 2.55
   9  0.500  0.000  0.834-  10 2.52  10 2.52   3 2.53   3 2.53   3 2.53   3 2.53   6 2.55   6 2.55
                            12 2.55  12 2.55   4 2.55   4 2.55
  10  0.000  1.000  0.998-   3 2.52   9 2.52   3 2.52   9 2.52   4 2.53   4 2.53   4 2.53   4 2.53
                             1 2.56   7 2.56   7 2.56   1 2.56
  11  1.000  0.000  0.335-   2 2.53   8 2.53   2 2.53   8 2.53   5 2.53   5 2.53   5 2.53   5 2.53
                             1 2.56   1 2.56   7 2.56   7 2.56
  12  1.000  1.000  0.667-   6 2.53   6 2.53   6 2.53   6 2.53   8 2.55   2 2.55   8 2.55   2 2.55
                             9 2.55   9 2.55   3 2.55   3 2.55
 

IMPORTANT INFORMATION: All symmetrisations will be switched off!
NOSYMM: (Re-)initialisation of all symmetry stuff for point group C_1.


----------------------------------------------------------------------------------------

                                     Primitive cell                                     

  volume of cell :     139.0000

  direct lattice vectors                    reciprocal lattice vectors
     3.583254790  0.000000016  0.000000002     0.279075885 -0.000000001 -0.000000001
     0.000000017  3.583254685  0.000000000    -0.000000001  0.279075893  0.000000001
     0.000000030 -0.000000025 10.825785874    -0.000000000 -0.000000000  0.092372047

  length of vectors
     3.583254790  3.583254685 10.825785874     0.279075885  0.279075893  0.092372047

  position of ions in fractional coordinates (direct lattice)
     0.999999983  0.499999998  0.166637968
     0.000000030  0.499999989  0.499684532
     0.000000003  0.500000006  0.833677593
     0.499999971  0.499999965  0.001434108
     0.500000032  0.500000034  0.331868887
     0.500000002  0.499999998  0.666697543
     0.499999987  0.999999995  0.166637965
     0.500000009  0.000000010  0.499684541
     0.499999994  0.000000021  0.833677583
     0.000000003  0.999999973  0.997990630
     0.999999988  0.000000016  0.335330034
     0.999999997  0.999999996  0.666678616

  ion indices of the primitive-cell ions
   primitive index   ion index
                 1           1
                 2           2
                 3           3
                 4           4
                 5           5
                 6           6
                 7           7
                 8           8
                 9           9
                10          10
                11          11
                12          12

----------------------------------------------------------------------------------------

 
 
 KPOINTS: pymatgen with grid density = 8800 / numb

Automatic generation of k-mesh.
 Grid dimensions read from file:
 generate k-points for:   13   13    4

 Generating k-lattice:

  Cartesian coordinates                     Fractional coordinates (reciprocal lattice)
     0.021467376 -0.000000000 -0.000000000     0.076923077  0.000000000  0.000000000
    -0.000000000  0.021467376  0.000000000    -0.000000000  0.076923077  0.000000000
    -0.000000000 -0.000000000  0.023093012    -0.000000000  0.000000000  0.250000000

  Length of vectors
     0.021467376  0.021467376  0.023093012

  Shift w.r.t. Gamma in fractional coordinates (k-lattice)
     0.000000000  0.000000000  0.000000000

 TETIRR: Found   2026 inequivalent tetrahedra from     4056
 
 Subroutine IBZKPT returns following result:
 ===========================================
 
 Found    339 irreducible k-points:
 
 Following reciprocal coordinates:
            Coordinates               Weight
  0.000000  0.000000  0.000000      1.000000
  0.076923  0.000000  0.000000      2.000000
 -0.000000  0.076923  0.000000      2.000000
  0.153846  0.000000  0.000000      2.000000
  0.000000  0.153846  0.000000      2.000000
  0.230769  0.000000  0.000000      2.000000
  0.000000  0.230769  0.000000      2.000000
  0.307692  0.000000  0.000000      2.000000
 -0.000000  0.307692  0.000000      2.000000
  0.384615  0.000000  0.000000      2.000000
  0.000000  0.384615  0.000000      2.000000
  0.461538  0.000000  0.000000      2.000000
  0.000000  0.461538  0.000000      2.000000
  0.076923  0.076923  0.000000      2.000000
 -0.076923  0.076923  0.000000      2.000000
  0.153846  0.076923  0.000000      2.000000
 -0.076923  0.153846  0.000000      2.000000
 -0.153846  0.076923  0.000000      2.000000
  0.076923  0.153846  0.000000      2.000000
  0.230769  0.076923  0.000000      2.000000
 -0.076923  0.230769  0.000000      2.000000
 -0.230769  0.076923  0.000000      2.000000
  0.076923  0.230769  0.000000      2.000000
  0.307692  0.076923  0.000000      2.000000
 -0.076923  0.307692  0.000000      2.000000
 -0.307692  0.076923  0.000000      2.000000
  0.076923  0.307692 -0.000000      2.000000
  0.384615  0.076923  0.000000      2.000000
 -0.076923  0.384615  0.000000      2.000000
 -0.384615  0.076923  0.000000      2.000000
  0.076923  0.384615  0.000000      2.000000
  0.461538  0.076923  0.000000      2.000000
 -0.076923  0.461538  0.000000      2.000000
 -0.461538  0.076923  0.000000      2.000000
  0.076923  0.461538  0.000000      2.000000
  0.153846  0.153846  0.000000      2.000000
 -0.153846  0.153846  0.000000      2.000000
  0.230769  0.153846  0.000000      2.000000
 -0.153846  0.230769  0.000000      2.000000
 -0.230769  0.153846  0.000000      2.000000
  0.153846  0.230769  0.000000      2.000000
  0.307692  0.153846  0.000000      2.000000
 -0.153846  0.307692  0.000000      2.000000
 -0.307692  0.153846  0.000000      2.000000
  0.153846  0.307692 -0.000000      2.000000
  0.384615  0.153846  0.000000      2.000000
 -0.153846  0.384615  0.000000      2.000000
 -0.384615  0.153846  0.000000      2.000000
  0.153846  0.384615 -0.000000      2.000000
  0.461538  0.153846  0.000000      2.000000
 -0.153846  0.461538  0.000000      2.000000
 -0.461538  0.153846  0.000000      2.000000
  0.153846  0.461538  0.000000      2.000000
  0.230769  0.230769  0.000000      2.000000
 -0.230769  0.230769  0.000000      2.000000
  0.307692  0.230769  0.000000      2.000000
 -0.230769  0.307692  0.000000      2.000000
 -0.307692  0.230769  0.000000      2.000000
  0.230769  0.307692 -0.000000      2.000000
  0.384615  0.230769  0.000000      2.000000
 -0.230769  0.384615  0.000000      2.000000
 -0.384615  0.230769  0.000000      2.000000
  0.230769  0.384615 -0.000000      2.000000
  0.461538  0.230769  0.000000      2.000000
 -0.230769  0.461538  0.000000      2.000000
 -0.461538  0.230769  0.000000      2.000000
  0.230769  0.461538  0.000000      2.000000
  0.307692  0.307692 -0.000000      2.000000
 -0.307692  0.307692 -0.000000      2.000000
  0.384615  0.307692 -0.000000      2.000000
 -0.307692  0.384615 -0.000000      2.000000
 -0.384615  0.307692  0.000000      2.000000
  0.307692  0.384615  0.000000      2.000000
  0.461538  0.307692 -0.000000      2.000000
 -0.307692  0.461538 -0.000000      2.000000
 -0.461538  0.307692  0.000000      2.000000
  0.307692  0.461538  0.000000      2.000000
  0.384615  0.384615 -0.000000      2.000000
 -0.384615  0.384615 -0.000000      2.000000
  0.461538  0.384615 -0.000000      2.000000
 -0.384615  0.461538 -0.000000      2.000000
 -0.461538  0.384615  0.000000      2.000000
  0.384615  0.461538  0.000000      2.000000
  0.461538  0.461538  0.000000      2.000000
 -0.461538  0.461538  0.000000      2.000000
  0.000000  0.000000  0.250000      2.000000
  0.076923  0.000000  0.250000      2.000000
 -0.000000  0.076923  0.250000      2.000000
 -0.076923  0.000000  0.250000      2.000000
  0.000000 -0.076923  0.250000      2.000000
  0.153846  0.000000  0.250000      2.000000
  0.000000  0.153846  0.250000      2.000000
 -0.153846  0.000000  0.250000      2.000000
  0.000000 -0.153846  0.250000      2.000000
  0.230769  0.000000  0.250000      2.000000
  0.000000  0.230769  0.250000      2.000000
 -0.230769  0.000000  0.250000      2.000000
  0.000000 -0.230769  0.250000      2.000000
  0.307692  0.000000  0.250000      2.000000
 -0.000000  0.307692  0.250000      2.000000
 -0.307692  0.000000  0.250000      2.000000
  0.000000 -0.307692  0.250000      2.000000
  0.384615  0.000000  0.250000      2.000000
 -0.000000  0.384615  0.250000      2.000000
 -0.384615 -0.000000  0.250000      2.000000
  0.000000 -0.384615  0.250000      2.000000
  0.461538  0.000000  0.250000      2.000000
  0.000000  0.461538  0.250000      2.000000
 -0.461538  0.000000  0.250000      2.000000
  0.000000 -0.461538  0.250000      2.000000
  0.076923  0.076923  0.250000      2.000000
 -0.076923  0.076923  0.250000      2.000000
 -0.076923 -0.076923  0.250000      2.000000
  0.076923 -0.076923  0.250000      2.000000
  0.153846  0.076923  0.250000      2.000000
 -0.076923  0.153846  0.250000      2.000000
 -0.153846 -0.076923  0.250000      2.000000
  0.076923 -0.153846  0.250000      2.000000
 -0.153846  0.076923 -0.250000      2.000000
  0.076923  0.153846 -0.250000      2.000000
  0.153846 -0.076923 -0.250000      2.000000
 -0.076923 -0.153846 -0.250000      2.000000
  0.230769  0.076923  0.250000      2.000000
 -0.076923  0.230769  0.250000      2.000000
 -0.230769 -0.076923  0.250000      2.000000
  0.076923 -0.230769  0.250000      2.000000
 -0.230769  0.076923 -0.250000      2.000000
  0.076923  0.230769 -0.250000      2.000000
  0.230769 -0.076923 -0.250000      2.000000
 -0.076923 -0.230769 -0.250000      2.000000
  0.307692  0.076923  0.250000      2.000000
 -0.076923  0.307692  0.250000      2.000000
 -0.307692 -0.076923  0.250000      2.000000
  0.076923 -0.307692  0.250000      2.000000
 -0.307692  0.076923 -0.250000      2.000000
  0.076923  0.307692 -0.250000      2.000000
  0.307692 -0.076923 -0.250000      2.000000
 -0.076923 -0.307692 -0.250000      2.000000
  0.384615  0.076923  0.250000      2.000000
 -0.076923  0.384615  0.250000      2.000000
 -0.384615 -0.076923  0.250000      2.000000
  0.076923 -0.384615  0.250000      2.000000
 -0.384615  0.076923 -0.250000      2.000000
  0.076923  0.384615 -0.250000      2.000000
  0.384615 -0.076923 -0.250000      2.000000
 -0.076923 -0.384615 -0.250000      2.000000
  0.461538  0.076923  0.250000      2.000000
 -0.076923  0.461538  0.250000      2.000000
 -0.461538 -0.076923  0.250000      2.000000
  0.076923 -0.461538  0.250000      2.000000
 -0.461538  0.076923 -0.250000      2.000000
  0.076923  0.461538 -0.250000      2.000000
  0.461538 -0.076923 -0.250000      2.000000
 -0.076923 -0.461538 -0.250000      2.000000
  0.153846  0.153846  0.250000      2.000000
 -0.153846  0.153846  0.250000      2.000000
 -0.153846 -0.153846  0.250000      2.000000
  0.153846 -0.153846  0.250000      2.000000
  0.230769  0.153846  0.250000      2.000000
 -0.153846  0.230769  0.250000      2.000000
 -0.230769 -0.153846  0.250000      2.000000
  0.153846 -0.230769  0.250000      2.000000
 -0.230769  0.153846 -0.250000      2.000000
  0.153846  0.230769 -0.250000      2.000000
  0.230769 -0.153846 -0.250000      2.000000
 -0.153846 -0.230769 -0.250000      2.000000
  0.307692  0.153846  0.250000      2.000000
 -0.153846  0.307692  0.250000      2.000000
 -0.307692 -0.153846  0.250000      2.000000
  0.153846 -0.307692  0.250000      2.000000
 -0.307692  0.153846 -0.250000      2.000000
  0.153846  0.307692 -0.250000      2.000000
  0.307692 -0.153846 -0.250000      2.000000
 -0.153846 -0.307692 -0.250000      2.000000
  0.384615  0.153846  0.250000      2.000000
 -0.153846  0.384615  0.250000      2.000000
 -0.384615 -0.153846  0.250000      2.000000
  0.153846 -0.384615  0.250000      2.000000
 -0.384615  0.153846 -0.250000      2.000000
  0.153846  0.384615 -0.250000      2.000000
  0.384615 -0.153846 -0.250000      2.000000
 -0.153846 -0.384615 -0.250000      2.000000
  0.461538  0.153846  0.250000      2.000000
 -0.153846  0.461538  0.250000      2.000000
 -0.461538 -0.153846  0.250000      2.000000
  0.153846 -0.461538  0.250000      2.000000
 -0.461538  0.153846 -0.250000      2.000000
  0.153846  0.461538 -0.250000      2.000000
  0.461538 -0.153846 -0.250000      2.000000
 -0.153846 -0.461538 -0.250000      2.000000
  0.230769  0.230769  0.250000      2.000000
 -0.230769  0.230769  0.250000      2.000000
 -0.230769 -0.230769  0.250000      2.000000
  0.230769 -0.230769  0.250000      2.000000
  0.307692  0.230769  0.250000      2.000000
 -0.230769  0.307692  0.250000      2.000000
 -0.307692 -0.230769  0.250000      2.000000
  0.230769 -0.307692  0.250000      2.000000
 -0.307692  0.230769 -0.250000      2.000000
  0.230769  0.307692 -0.250000      2.000000
  0.307692 -0.230769 -0.250000      2.000000
 -0.230769 -0.307692 -0.250000      2.000000
  0.384615  0.230769  0.250000      2.000000
 -0.230769  0.384615  0.250000      2.000000
 -0.384615 -0.230769  0.250000      2.000000
  0.230769 -0.384615  0.250000      2.000000
 -0.384615  0.230769 -0.250000      2.000000
  0.230769  0.384615 -0.250000      2.000000
  0.384615 -0.230769 -0.250000      2.000000
 -0.230769 -0.384615 -0.250000      2.000000
  0.461538  0.230769  0.250000      2.000000
 -0.230769  0.461538  0.250000      2.000000
 -0.461538 -0.230769  0.250000      2.000000
  0.230769 -0.461538  0.250000      2.000000
 -0.461538  0.230769 -0.250000      2.000000
  0.230769  0.461538 -0.250000      2.000000
  0.461538 -0.230769 -0.250000      2.000000
 -0.230769 -0.461538 -0.250000      2.000000
  0.307692  0.307692  0.250000      2.000000
 -0.307692  0.307692  0.250000      2.000000
 -0.307692 -0.307692  0.250000      2.000000
  0.307692 -0.307692  0.250000      2.000000
  0.384615  0.307692  0.250000      2.000000
 -0.307692  0.384615  0.250000      2.000000
 -0.384615 -0.307692  0.250000      2.000000
  0.307692 -0.384615  0.250000      2.000000
 -0.384615  0.307692 -0.250000      2.000000
  0.307692  0.384615 -0.250000      2.000000
  0.384615 -0.307692 -0.250000      2.000000
 -0.307692 -0.384615 -0.250000      2.000000
  0.461538  0.307692  0.250000      2.000000
 -0.307692  0.461538  0.250000      2.000000
 -0.461538 -0.307692  0.250000      2.000000
  0.307692 -0.461538  0.250000      2.000000
 -0.461538  0.307692 -0.250000      2.000000
  0.307692  0.461538 -0.250000      2.000000
  0.461538 -0.307692 -0.250000      2.000000
 -0.307692 -0.461538 -0.250000      2.000000
  0.384615  0.384615  0.250000      2.000000
 -0.384615  0.384615  0.250000      2.000000
 -0.384615 -0.384615  0.250000      2.000000
  0.384615 -0.384615  0.250000      2.000000
  0.461538  0.384615  0.250000      2.000000
 -0.384615  0.461538  0.250000      2.000000
 -0.461538 -0.384615  0.250000      2.000000
  0.384615 -0.461538  0.250000      2.000000
 -0.461538  0.384615 -0.250000      2.000000
  0.384615  0.461538 -0.250000      2.000000
  0.461538 -0.384615 -0.250000      2.000000
 -0.384615 -0.461538 -0.250000      2.000000
  0.461538  0.461538  0.250000      2.000000
 -0.461538  0.461538  0.250000      2.000000
 -0.461538 -0.461538  0.250000      2.000000
  0.461538 -0.461538  0.250000      2.000000
  0.000000  0.000000  0.500000      1.000000
  0.076923  0.000000  0.500000      2.000000
 -0.000000  0.076923  0.500000      2.000000
  0.153846  0.000000  0.500000      2.000000
  0.000000  0.153846  0.500000      2.000000
  0.230769  0.000000  0.500000      2.000000
 -0.000000  0.230769  0.500000      2.000000
  0.307692  0.000000  0.500000      2.000000
 -0.000000  0.307692  0.500000      2.000000
  0.384615  0.000000  0.500000      2.000000
 -0.000000  0.384615  0.500000      2.000000
  0.461538  0.000000  0.500000      2.000000
 -0.000000  0.461538  0.500000      2.000000
  0.076923  0.076923  0.500000      2.000000
 -0.076923  0.076923  0.500000      2.000000
  0.153846  0.076923  0.500000      2.000000
 -0.076923  0.153846  0.500000      2.000000
 -0.153846  0.076923  0.500000      2.000000
  0.076923  0.153846  0.500000      2.000000
  0.230769  0.076923  0.500000      2.000000
 -0.076923  0.230769  0.500000      2.000000
 -0.230769  0.076923  0.500000      2.000000
  0.076923  0.230769  0.500000      2.000000
  0.307692  0.076923  0.500000      2.000000
 -0.076923  0.307692  0.500000      2.000000
 -0.307692  0.076923  0.500000      2.000000
  0.076923  0.307692  0.500000      2.000000
  0.384615  0.076923  0.500000      2.000000
 -0.076923  0.384615  0.500000      2.000000
 -0.384615  0.076923  0.500000      2.000000
  0.076923  0.384615  0.500000      2.000000
  0.461538  0.076923  0.500000      2.000000
 -0.076923  0.461538  0.500000      2.000000
 -0.461538  0.076923  0.500000      2.000000
  0.076923  0.461538  0.500000      2.000000
  0.153846  0.153846  0.500000      2.000000
 -0.153846  0.153846  0.500000      2.000000
  0.230769  0.153846  0.500000      2.000000
 -0.153846  0.230769  0.500000      2.000000
 -0.230769  0.153846  0.500000      2.000000
  0.153846  0.230769  0.500000      2.000000
  0.307692  0.153846  0.500000      2.000000
 -0.153846  0.307692  0.500000      2.000000
 -0.307692  0.153846  0.500000      2.000000
  0.153846  0.307692  0.500000      2.000000
  0.384615  0.153846  0.500000      2.000000
 -0.153846  0.384615  0.500000      2.000000
 -0.384615  0.153846  0.500000      2.000000
  0.153846  0.384615  0.500000      2.000000
  0.461538  0.153846  0.500000      2.000000
 -0.153846  0.461538  0.500000      2.000000
 -0.461538  0.153846  0.500000      2.000000
  0.153846  0.461538  0.500000      2.000000
  0.230769  0.230769  0.500000      2.000000
 -0.230769  0.230769  0.500000      2.000000
  0.307692  0.230769  0.500000      2.000000
 -0.230769  0.307692  0.500000      2.000000
 -0.307692  0.230769  0.500000      2.000000
  0.230769  0.307692  0.500000      2.000000
  0.384615  0.230769  0.500000      2.000000
 -0.230769  0.384615  0.500000      2.000000
 -0.384615  0.230769  0.500000      2.000000
  0.230769  0.384615  0.500000      2.000000
  0.461538  0.230769  0.500000      2.000000
 -0.230769  0.461538  0.500000      2.000000
 -0.461538  0.230769  0.500000      2.000000
  0.230769  0.461538  0.500000      2.000000
  0.307692  0.307692  0.500000      2.000000
 -0.307692  0.307692  0.500000      2.000000
  0.384615  0.307692  0.500000      2.000000
 -0.307692  0.384615  0.500000      2.000000
 -0.384615  0.307692  0.500000      2.000000
  0.307692  0.384615  0.500000      2.000000
  0.461538  0.307692  0.500000      2.000000
 -0.307692  0.461538  0.500000      2.000000
 -0.461538  0.307692  0.500000      2.000000
  0.307692  0.461538  0.500000      2.000000
  0.384615  0.384615  0.500000      2.000000
 -0.384615  0.384615  0.500000      2.000000
  0.461538  0.384615  0.500000      2.000000
 -0.384615  0.461538  0.500000      2.000000
 -0.461538  0.384615  0.500000      2.000000
  0.384615  0.461538  0.500000      2.000000
  0.461538  0.461538  0.500000      2.000000
 -0.461538  0.461538  0.500000      2.000000
 
 Following cartesian coordinates:
            Coordinates               Weight
  0.000000  0.000000  0.000000      1.000000
  0.021467 -0.000000 -0.000000      2.000000
 -0.000000  0.021467  0.000000      2.000000
  0.042935 -0.000000 -0.000000      2.000000
 -0.000000  0.042935  0.000000      2.000000
  0.064402 -0.000000 -0.000000      2.000000
 -0.000000  0.064402  0.000000      2.000000
  0.085870 -0.000000 -0.000000      2.000000
 -0.000000  0.085870  0.000000      2.000000
  0.107337 -0.000000 -0.000000      2.000000
 -0.000000  0.107337  0.000000      2.000000
  0.128804 -0.000000 -0.000000      2.000000
 -0.000000  0.128804  0.000000      2.000000
  0.021467  0.021467 -0.000000      2.000000
 -0.021467  0.021467  0.000000      2.000000
  0.042935  0.021467 -0.000000      2.000000
 -0.021467  0.042935  0.000000      2.000000
 -0.042935  0.021467  0.000000      2.000000
  0.021467  0.042935  0.000000      2.000000
  0.064402  0.021467 -0.000000      2.000000
 -0.021467  0.064402  0.000000      2.000000
 -0.064402  0.021467  0.000000      2.000000
  0.021467  0.064402  0.000000      2.000000
  0.085870  0.021467 -0.000000      2.000000
 -0.021467  0.085870  0.000000      2.000000
 -0.085870  0.021467  0.000000      2.000000
  0.021467  0.085870  0.000000      2.000000
  0.107337  0.021467 -0.000000      2.000000
 -0.021467  0.107337  0.000000      2.000000
 -0.107337  0.021467  0.000000      2.000000
  0.021467  0.107337  0.000000      2.000000
  0.128804  0.021467 -0.000000      2.000000
 -0.021467  0.128804  0.000000      2.000000
 -0.128804  0.021467  0.000000      2.000000
  0.021467  0.128804  0.000000      2.000000
  0.042935  0.042935 -0.000000      2.000000
 -0.042935  0.042935  0.000000      2.000000
  0.064402  0.042935 -0.000000      2.000000
 -0.042935  0.064402  0.000000      2.000000
 -0.064402  0.042935  0.000000      2.000000
  0.042935  0.064402  0.000000      2.000000
  0.085870  0.042935 -0.000000      2.000000
 -0.042935  0.085870  0.000000      2.000000
 -0.085870  0.042935  0.000000      2.000000
  0.042935  0.085870  0.000000      2.000000
  0.107337  0.042935 -0.000000      2.000000
 -0.042935  0.107337  0.000000      2.000000
 -0.107337  0.042935  0.000000      2.000000
  0.042935  0.107337  0.000000      2.000000
  0.128804  0.042935 -0.000000      2.000000
 -0.042935  0.128804  0.000000      2.000000
 -0.128804  0.042935  0.000000      2.000000
  0.042935  0.128804  0.000000      2.000000
  0.064402  0.064402 -0.000000      2.000000
 -0.064402  0.064402  0.000000      2.000000
  0.085870  0.064402 -0.000000      2.000000
 -0.064402  0.085870  0.000000      2.000000
 -0.085870  0.064402  0.000000      2.000000
  0.064402  0.085870  0.000000      2.000000
  0.107337  0.064402 -0.000000      2.000000
 -0.064402  0.107337  0.000000      2.000000
 -0.107337  0.064402  0.000000      2.000000
  0.064402  0.107337  0.000000      2.000000
  0.128804  0.064402 -0.000000      2.000000
 -0.064402  0.128804  0.000000      2.000000
 -0.128804  0.064402  0.000000      2.000000
  0.064402  0.128804  0.000000      2.000000
  0.085870  0.085870 -0.000000      2.000000
 -0.085870  0.085870  0.000000      2.000000
  0.107337  0.085870 -0.000000      2.000000
 -0.085870  0.107337  0.000000      2.000000
 -0.107337  0.085870  0.000000      2.000000
  0.085870  0.107337  0.000000      2.000000
  0.128804  0.085870 -0.000000      2.000000
 -0.085870  0.128804  0.000000      2.000000
 -0.128804  0.085870  0.000000      2.000000
  0.085870  0.128804  0.000000      2.000000
  0.107337  0.107337 -0.000000      2.000000
 -0.107337  0.107337  0.000000      2.000000
  0.128804  0.107337 -0.000000      2.000000
 -0.107337  0.128804  0.000000      2.000000
 -0.128804  0.107337  0.000000      2.000000
  0.107337  0.128804 -0.000000      2.000000
  0.128804  0.128804 -0.000000      2.000000
 -0.128804  0.128804  0.000000      2.000000
 -0.000000 -0.000000  0.023093      2.000000
  0.021467 -0.000000  0.023093      2.000000
 -0.000000  0.021467  0.023093      2.000000
 -0.021467  0.000000  0.023093      2.000000
  0.000000 -0.021467  0.023093      2.000000
  0.042935 -0.000000  0.023093      2.000000
 -0.000000  0.042935  0.023093      2.000000
 -0.042935  0.000000  0.023093      2.000000
  0.000000 -0.042935  0.023093      2.000000
  0.064402 -0.000000  0.023093      2.000000
 -0.000000  0.064402  0.023093      2.000000
 -0.064402  0.000000  0.023093      2.000000
  0.000000 -0.064402  0.023093      2.000000
  0.085870 -0.000000  0.023093      2.000000
 -0.000000  0.085870  0.023093      2.000000
 -0.085870  0.000000  0.023093      2.000000
  0.000000 -0.085870  0.023093      2.000000
  0.107337 -0.000000  0.023093      2.000000
 -0.000000  0.107337  0.023093      2.000000
 -0.107337  0.000000  0.023093      2.000000
  0.000000 -0.107337  0.023093      2.000000
  0.128804 -0.000000  0.023093      2.000000
 -0.000000  0.128804  0.023093      2.000000
 -0.128804  0.000000  0.023093      2.000000
  0.000000 -0.128804  0.023093      2.000000
  0.021467  0.021467  0.023093      2.000000
 -0.021467  0.021467  0.023093      2.000000
 -0.021467 -0.021467  0.023093      2.000000
  0.021467 -0.021467  0.023093      2.000000
  0.042935  0.021467  0.023093      2.000000
 -0.021467  0.042935  0.023093      2.000000
 -0.042935 -0.021467  0.023093      2.000000
  0.021467 -0.042935  0.023093      2.000000
 -0.042935  0.021467 -0.023093      2.000000
  0.021467  0.042935 -0.023093      2.000000
  0.042935 -0.021467 -0.023093      2.000000
 -0.021467 -0.042935 -0.023093      2.000000
  0.064402  0.021467  0.023093      2.000000
 -0.021467  0.064402  0.023093      2.000000
 -0.064402 -0.021467  0.023093      2.000000
  0.021467 -0.064402  0.023093      2.000000
 -0.064402  0.021467 -0.023093      2.000000
  0.021467  0.064402 -0.023093      2.000000
  0.064402 -0.021467 -0.023093      2.000000
 -0.021467 -0.064402 -0.023093      2.000000
  0.085870  0.021467  0.023093      2.000000
 -0.021467  0.085870  0.023093      2.000000
 -0.085870 -0.021467  0.023093      2.000000
  0.021467 -0.085870  0.023093      2.000000
 -0.085870  0.021467 -0.023093      2.000000
  0.021467  0.085870 -0.023093      2.000000
  0.085870 -0.021467 -0.023093      2.000000
 -0.021467 -0.085870 -0.023093      2.000000
  0.107337  0.021467  0.023093      2.000000
 -0.021467  0.107337  0.023093      2.000000
 -0.107337 -0.021467  0.023093      2.000000
  0.021467 -0.107337  0.023093      2.000000
 -0.107337  0.021467 -0.023093      2.000000
  0.021467  0.107337 -0.023093      2.000000
  0.107337 -0.021467 -0.023093      2.000000
 -0.021467 -0.107337 -0.023093      2.000000
  0.128804  0.021467  0.023093      2.000000
 -0.021467  0.128804  0.023093      2.000000
 -0.128804 -0.021467  0.023093      2.000000
  0.021467 -0.128804  0.023093      2.000000
 -0.128804  0.021467 -0.023093      2.000000
  0.021467  0.128804 -0.023093      2.000000
  0.128804 -0.021467 -0.023093      2.000000
 -0.021467 -0.128804 -0.023093      2.000000
  0.042935  0.042935  0.023093      2.000000
 -0.042935  0.042935  0.023093      2.000000
 -0.042935 -0.042935  0.023093      2.000000
  0.042935 -0.042935  0.023093      2.000000
  0.064402  0.042935  0.023093      2.000000
 -0.042935  0.064402  0.023093      2.000000
 -0.064402 -0.042935  0.023093      2.000000
  0.042935 -0.064402  0.023093      2.000000
 -0.064402  0.042935 -0.023093      2.000000
  0.042935  0.064402 -0.023093      2.000000
  0.064402 -0.042935 -0.023093      2.000000
 -0.042935 -0.064402 -0.023093      2.000000
  0.085870  0.042935  0.023093      2.000000
 -0.042935  0.085870  0.023093      2.000000
 -0.085870 -0.042935  0.023093      2.000000
  0.042935 -0.085870  0.023093      2.000000
 -0.085870  0.042935 -0.023093      2.000000
  0.042935  0.085870 -0.023093      2.000000
  0.085870 -0.042935 -0.023093      2.000000
 -0.042935 -0.085870 -0.023093      2.000000
  0.107337  0.042935  0.023093      2.000000
 -0.042935  0.107337  0.023093      2.000000
 -0.107337 -0.042935  0.023093      2.000000
  0.042935 -0.107337  0.023093      2.000000
 -0.107337  0.042935 -0.023093      2.000000
  0.042935  0.107337 -0.023093      2.000000
  0.107337 -0.042935 -0.023093      2.000000
 -0.042935 -0.107337 -0.023093      2.000000
  0.128804  0.042935  0.023093      2.000000
 -0.042935  0.128804  0.023093      2.000000
 -0.128804 -0.042935  0.023093      2.000000
  0.042935 -0.128804  0.023093      2.000000
 -0.128804  0.042935 -0.023093      2.000000
  0.042935  0.128804 -0.023093      2.000000
  0.128804 -0.042935 -0.023093      2.000000
 -0.042935 -0.128804 -0.023093      2.000000
  0.064402  0.064402  0.023093      2.000000
 -0.064402  0.064402  0.023093      2.000000
 -0.064402 -0.064402  0.023093      2.000000
  0.064402 -0.064402  0.023093      2.000000
  0.085870  0.064402  0.023093      2.000000
 -0.064402  0.085870  0.023093      2.000000
 -0.085870 -0.064402  0.023093      2.000000
  0.064402 -0.085870  0.023093      2.000000
 -0.085870  0.064402 -0.023093      2.000000
  0.064402  0.085870 -0.023093      2.000000
  0.085870 -0.064402 -0.023093      2.000000
 -0.064402 -0.085870 -0.023093      2.000000
  0.107337  0.064402  0.023093      2.000000
 -0.064402  0.107337  0.023093      2.000000
 -0.107337 -0.064402  0.023093      2.000000
  0.064402 -0.107337  0.023093      2.000000
 -0.107337  0.064402 -0.023093      2.000000
  0.064402  0.107337 -0.023093      2.000000
  0.107337 -0.064402 -0.023093      2.000000
 -0.064402 -0.107337 -0.023093      2.000000
  0.128804  0.064402  0.023093      2.000000
 -0.064402  0.128804  0.023093      2.000000
 -0.128804 -0.064402  0.023093      2.000000
  0.064402 -0.128804  0.023093      2.000000
 -0.128804  0.064402 -0.023093      2.000000
  0.064402  0.128804 -0.023093      2.000000
  0.128804 -0.064402 -0.023093      2.000000
 -0.064402 -0.128804 -0.023093      2.000000
  0.085870  0.085870  0.023093      2.000000
 -0.085870  0.085870  0.023093      2.000000
 -0.085870 -0.085870  0.023093      2.000000
  0.085870 -0.085870  0.023093      2.000000
  0.107337  0.085870  0.023093      2.000000
 -0.085870  0.107337  0.023093      2.000000
 -0.107337 -0.085870  0.023093      2.000000
  0.085870 -0.107337  0.023093      2.000000
 -0.107337  0.085870 -0.023093      2.000000
  0.085870  0.107337 -0.023093      2.000000
  0.107337 -0.085870 -0.023093      2.000000
 -0.085870 -0.107337 -0.023093      2.000000
  0.128804  0.085870  0.023093      2.000000
 -0.085870  0.128804  0.023093      2.000000
 -0.128804 -0.085870  0.023093      2.000000
  0.085870 -0.128804  0.023093      2.000000
 -0.128804  0.085870 -0.023093      2.000000
  0.085870  0.128804 -0.023093      2.000000
  0.128804 -0.085870 -0.023093      2.000000
 -0.085870 -0.128804 -0.023093      2.000000
  0.107337  0.107337  0.023093      2.000000
 -0.107337  0.107337  0.023093      2.000000
 -0.107337 -0.107337  0.023093      2.000000
  0.107337 -0.107337  0.023093      2.000000
  0.128804  0.107337  0.023093      2.000000
 -0.107337  0.128804  0.023093      2.000000
 -0.128804 -0.107337  0.023093      2.000000
  0.107337 -0.128804  0.023093      2.000000
 -0.128804  0.107337 -0.023093      2.000000
  0.107337  0.128804 -0.023093      2.000000
  0.128804 -0.107337 -0.023093      2.000000
 -0.107337 -0.128804 -0.023093      2.000000
  0.128804  0.128804  0.023093      2.000000
 -0.128804  0.128804  0.023093      2.000000
 -0.128804 -0.128804  0.023093      2.000000
  0.128804 -0.128804  0.023093      2.000000
 -0.000000 -0.000000  0.046186      1.000000
  0.021467 -0.000000  0.046186      2.000000
 -0.000000  0.021467  0.046186      2.000000
  0.042935 -0.000000  0.046186      2.000000
 -0.000000  0.042935  0.046186      2.000000
  0.064402 -0.000000  0.046186      2.000000
 -0.000000  0.064402  0.046186      2.000000
  0.085870 -0.000000  0.046186      2.000000
 -0.000000  0.085870  0.046186      2.000000
  0.107337 -0.000000  0.046186      2.000000
 -0.000000  0.107337  0.046186      2.000000
  0.128804 -0.000000  0.046186      2.000000
 -0.000000  0.128804  0.046186      2.000000
  0.021467  0.021467  0.046186      2.000000
 -0.021467  0.021467  0.046186      2.000000
  0.042935  0.021467  0.046186      2.000000
 -0.021467  0.042935  0.046186      2.000000
 -0.042935  0.021467  0.046186      2.000000
  0.021467  0.042935  0.046186      2.000000
  0.064402  0.021467  0.046186      2.000000
 -0.021467  0.064402  0.046186      2.000000
 -0.064402  0.021467  0.046186      2.000000
  0.021467  0.064402  0.046186      2.000000
  0.085870  0.021467  0.046186      2.000000
 -0.021467  0.085870  0.046186      2.000000
 -0.085870  0.021467  0.046186      2.000000
  0.021467  0.085870  0.046186      2.000000
  0.107337  0.021467  0.046186      2.000000
 -0.021467  0.107337  0.046186      2.000000
 -0.107337  0.021467  0.046186      2.000000
  0.021467  0.107337  0.046186      2.000000
  0.128804  0.021467  0.046186      2.000000
 -0.021467  0.128804  0.046186      2.000000
 -0.128804  0.021467  0.046186      2.000000
  0.021467  0.128804  0.046186      2.000000
  0.042935  0.042935  0.046186      2.000000
 -0.042935  0.042935  0.046186      2.000000
  0.064402  0.042935  0.046186      2.000000
 -0.042935  0.064402  0.046186      2.000000
 -0.064402  0.042935  0.046186      2.000000
  0.042935  0.064402  0.046186      2.000000
  0.085870  0.042935  0.046186      2.000000
 -0.042935  0.085870  0.046186      2.000000
 -0.085870  0.042935  0.046186      2.000000
  0.042935  0.085870  0.046186      2.000000
  0.107337  0.042935  0.046186      2.000000
 -0.042935  0.107337  0.046186      2.000000
 -0.107337  0.042935  0.046186      2.000000
  0.042935  0.107337  0.046186      2.000000
  0.128804  0.042935  0.046186      2.000000
 -0.042935  0.128804  0.046186      2.000000
 -0.128804  0.042935  0.046186      2.000000
  0.042935  0.128804  0.046186      2.000000
  0.064402  0.064402  0.046186      2.000000
 -0.064402  0.064402  0.046186      2.000000
  0.085870  0.064402  0.046186      2.000000
 -0.064402  0.085870  0.046186      2.000000
 -0.085870  0.064402  0.046186      2.000000
  0.064402  0.085870  0.046186      2.000000
  0.107337  0.064402  0.046186      2.000000
 -0.064402  0.107337  0.046186      2.000000
 -0.107337  0.064402  0.046186      2.000000
  0.064402  0.107337  0.046186      2.000000
  0.128804  0.064402  0.046186      2.000000
 -0.064402  0.128804  0.046186      2.000000
 -0.128804  0.064402  0.046186      2.000000
  0.064402  0.128804  0.046186      2.000000
  0.085870  0.085870  0.046186      2.000000
 -0.085870  0.085870  0.046186      2.000000
  0.107337  0.085870  0.046186      2.000000
 -0.085870  0.107337  0.046186      2.000000
 -0.107337  0.085870  0.046186      2.000000
  0.085870  0.107337  0.046186      2.000000
  0.128804  0.085870  0.046186      2.000000
 -0.085870  0.128804  0.046186      2.000000
 -0.128804  0.085870  0.046186      2.000000
  0.085870  0.128804  0.046186      2.000000
  0.107337  0.107337  0.046186      2.000000
 -0.107337  0.107337  0.046186      2.000000
  0.128804  0.107337  0.046186      2.000000
 -0.107337  0.128804  0.046186      2.000000
 -0.128804  0.107337  0.046186      2.000000
  0.107337  0.128804  0.046186      2.000000
  0.128804  0.128804  0.046186      2.000000
 -0.128804  0.128804  0.046186      2.000000
 


--------------------------------------------------------------------------------------------------------




 Dimension of arrays:
   k-points           NKPTS =    339   k-points in BZ     NKDIM =    339   number of bands    NBANDS=     96
   number of dos      NEDOS =    301   number of ions     NIONS =     12
   non local maximal  LDIM  =      6   non local SUM 2l+1 LMDIM =     18
   total plane-waves  NPLWV =  65856
   max r-space proj   IRMAX =      1   max aug-charges    IRDMAX=  28892
   dimension x,y,z NGX =    28 NGY =   28 NGZ =   84
   dimension x,y,z NGXF=    56 NGYF=   56 NGZF=  168
   support grid    NGXF=    56 NGYF=   56 NGZF=  168
   ions per type =               9   3
   NGX,Y,Z   is equivalent  to a cutoff of  12.99, 12.99, 12.90 a.u.
   NGXF,Y,Z  is equivalent  to a cutoff of  25.98, 25.98, 25.80 a.u.

 SYSTEM =  unknown system                          
 POSCAR =  Fe9 Pt3                                 

 Startparameter for this run:
   NWRITE =      2    write-flag & timer
   PREC   = accura    normal or accurate (medium, high low for compatibility)
   ISTART =      0    job   : 0-new  1-cont  2-samecut
   ICHARG =      2    charge: 1-file 2-atom 10-const
   ISPIN  =      2    spin polarized calculation?
   LNONCOLLINEAR =      F non collinear calculations
   LSORBIT =      F    spin-orbit coupling
   INIWAV =      1    electr: 0-lowe 1-rand  2-diag
   LASPH  =      F    aspherical Exc in radial PAW
 Electronic Relaxation 1
   ENCUT  =  520.0 eV  38.22 Ry    6.18 a.u.   6.66  6.66 20.13*2*pi/ulx,y,z
   ENINI  =  520.0     initial cutoff
   ENAUG  =  578.3 eV  augmentation charge cutoff
   NELM   =    200;   NELMIN=  2; NELMDL=  0     # of ELM steps 
   EDIFF  = 0.1E-05   stopping-criterion for ELM
   LREAL  =      F    real-space projection
   NLSPLINE    = F    spline interpolate recip. space projectors
   LCOMPAT=      F    compatible to vasp.4.4
   GGA_COMPAT  = T    GGA compatible to vasp.4.4-vasp.4.6
   LMAXPAW     = -100 max onsite density
   LMAXMIX     =    2 max onsite mixed and CHGCAR
   VOSKOWN=      0    Vosko Wilk Nusair interpolation
   ROPT   =    0.00000   0.00000
 Ionic relaxation
   EDIFFG = -.1E-01   stopping-criterion for IOM
   NSW    =      0    number of steps for IOM
   NBLOCK =      1;   KBLOCK =      1    inner block; outer block 
   IBRION =     -1    ionic relax: 0-MD 1-quasi-New 2-CG
   NFREE  =      0    steps in history (QN), initial steepest desc. (CG)
   ISIF   =      4    stress and relaxation
   IWAVPR =     10    prediction:  0-non 1-charg 2-wave 3-comb
   ISYM   =      0    0-nonsym 1-usesym 2-fastsym
   LCORR  =      T    Harris-Foulkes like correction to forces

   POTIM  = 0.2500    time-step for ionic-motion
   TEIN   =    0.0    initial temperature
   TEBEG  =    0.0;   TEEND  =   0.0 temperature during run
   SMASS  =  -3.00    Nose mass-parameter (am)
   estimated Nose-frequenzy (Omega)   =  0.10E-29 period in steps = 0.25E+47 mass=  -0.293E-27a.u.
   SCALEE = 1.0000    scale energy and forces
   NPACO  =    256;   APACO  = 10.0  distance and # of slots for P.C.
   PSTRESS=    0.0 pullay stress

  Mass of Ions in am
   POMASS =  55.85195.08
  Ionic Valenz
   ZVAL   =  14.00 10.00
  Atomic Wigner-Seitz radii
   RWIGS  =  -1.00 -1.00
  virtual crystal weights 
   VCA    =   1.00  1.00
   NELECT =     156.0000    total number of electrons
   NUPDOWN=      -1.0000    fix difference up-down

 DOS related values:
   EMIN   =  10.00;   EMAX   =-10.00  energy-range for DOS
   EFERMI =   0.00;   METHOD = LEGACY      
   ISMEAR =    -5;   SIGMA  =   0.20  broadening in eV -4-tet -1-fermi 0-gaus

 Electronic relaxation 2 (details)
   IALGO  =     38    algorithm
   LDIAG  =      T    sub-space diagonalisation (order eigenvalues)
   LSUBROT=      F    optimize rotation matrix (better conditioning)
   TURBO    =      0    0=normal 1=particle mesh
   IRESTART =      0    0=no restart 2=restart with 2 vectors
   NREBOOT  =      0    no. of reboots
   NMIN     =      0    reboot dimension
   EREF     =   0.00    reference energy to select bands
   IMIX   =      4    mixing-type and parameters
     AMIX     =   0.40;   BMIX     =  1.00
     AMIX_MAG =   1.60;   BMIX_MAG =  1.00
     AMIN     =   0.10
     WC   =   100.;   INIMIX=   1;  MIXPRE=   1;  MAXMIX= -45

 Intra band minimization:
   WEIMIN = 0.0000     energy-eigenvalue tresh-hold
   EBREAK =  0.26E-08  absolut break condition
   DEPER  =   0.30     relativ break condition  

   TIME   =   0.40     timestep for ELM

  volume/ion in A,a.u.               =      11.58        78.17
  Fermi-wavevector in a.u.,A,eV,Ry     =   1.701289  3.214970 39.380489  2.894384
  Thomas-Fermi vector in A             =   2.781269
 
 Write flags
   LWAVE        =      F    write WAVECAR
   LDOWNSAMPLE  =      F    k-point downsampling of WAVECAR
   LCHARG       =      T    write CHGCAR
   LVTOT        =      F    write LOCPOT, total local potential
   LVHAR        =      F    write LOCPOT, Hartree potential only
   WRT_POTENTIAL= false  ! write potential to hdf5 file
   LELF         =      F    write electronic localiz. function (ELF)
   LORBIT       =     11    0 simple, 1 ext, 2 COOP (PROOUT), +10 PAW based schemes


 Dipole corrections
   LMONO      =      F    monopole corrections only (constant potential shift)
   LDIPOL     =      F    correct potential (dipole corrections)
   IDIPOL     =      0    1-x, 2-y, 3-z, 4-all directions 
   EPSILON    =  1.0000000 bulk dielectric constant
   LVACPOTAV  =      F  vacuum potentials using an averaging scheme for the charge density
   VACPOTFLAT =  0.1000000 required flatness to determine vacuum potential
 Exchange correlation treatment:
   GGA     = PE    functional components
   XC_C    = 1    coefficients multiplying the functional components
   LIBXC   =     F    Libxc                    
   VOSKOWN =     0    Vosko Wilk Nusair interpolation
   LHFCALC =     F    Hartree Fock is set to
   LHFONE  =     F    Hartree Fock one center treatment
   AEXX    =    0.0000 exact exchange contribution

 Parameters of functionals:
   PE:
     No parameter
 
 Van der Waals corrections
   IVDW    =     0    specifies the selected vdW correction

 Linear response parameters
   LEPSILON=     F    determine dielectric tensor
   LRPA    =     F    only Hartree local field effects (RPA)
   LNABLA  =     F    use nabla operator in PAW spheres
   LVEL    =     F    velocity operator in full k-point grid
   CSHIFT  =0.1000    complex shift for real part using Kramers Kronig
   OMEGAMAX=  -1.0    maximum frequency
   DEG_THRESHOLD= 0.2000000E-02 threshold for treating states as degnerate
   RTIME   =   -0.100 relaxation time in fs
  (WPLASMAI=    0.000 imaginary part of plasma frequency in eV, 0.658/RTIME)
   DFIELD  = 0.0000000 0.0000000 0.0000000 field for delta impulse in time
 
  Optional k-point grid parameters
   LKPOINTS_OPT  =     F    use optional k-point grid
   KPOINTS_OPT_MODE=     1    mode for optional k-point grid
 
 Orbital magnetization related:
   ORBITALMAG=     F  switch on orbital magnetization
   LCHIMAG   =     F  perturbation theory with respect to B field
   DQ        =  0.001000  dq finite difference perturbation B field
   LLRAUG    =     F  two centre corrections for induced B field
   LBONE     =     F  B-component reconstruction in AE one-centre
   LVGVCALC  =     T  calculate vGv susceptibility
   LVGVAPPL  =     F  apply vGv susceptibility instead of pGv for G=0

 Random number generation:
   RANDOM_GENERATOR = DEFAULT
   PCG_SEED         = not used


--------------------------------------------------------------------------------------------------------


 Static calculation
 charge density and potential will be updated during run
 spin polarized calculation
 Variant of blocked Davidson
 Davidson routine will perform the subspace rotation
 perform sub-space diagonalisation
    after iterative eigenvector-optimisation
 modified Broyden-mixing scheme, WC =      100.0
 initial mixing is a Kerker type mixing with AMIX =  0.4000 and BMIX =      1.0000
 Hartree-type preconditioning will be used
 using additional bands           18
 reciprocal scheme for non local part
 use partial core corrections
 calculate Harris-corrections to forces 
   (improved forces if not selfconsistent)
 use gradient corrections 
 use of overlap-Matrix (Vanderbilt PP)
 Fermi weights with tetrahedron method with Bloechl corrections


--------------------------------------------------------------------------------------------------------


  energy-cutoff  :      520.00
  volume of cell :      139.00
      direct lattice vectors                 reciprocal lattice vectors
     3.583254790  0.000000016  0.000000002     0.279075885 -0.000000001 -0.000000001
     0.000000017  3.583254685  0.000000000    -0.000000001  0.279075893  0.000000001
     0.000000030 -0.000000025 10.825785874    -0.000000000 -0.000000000  0.092372047

  length of vectors
     3.583254790  3.583254685 10.825785874     0.279075885  0.279075893  0.092372047


 
 k-points in units of 2pi/SCALE and weight: pymatgen with grid density = 8800 / numb
   0.00000000  0.00000000  0.00000000       0.001
   0.02146738 -0.00000000 -0.00000000       0.003
  -0.00000000  0.02146738  0.00000000       0.003
   0.04293475 -0.00000000 -0.00000000       0.003
  -0.00000000  0.04293475  0.00000000       0.003
   0.06440213 -0.00000000 -0.00000000       0.003
  -0.00000000  0.06440213  0.00000000       0.003
   0.08586950 -0.00000000 -0.00000000       0.003
  -0.00000000  0.08586951  0.00000000       0.003
   0.10733688 -0.00000000 -0.00000000       0.003
  -0.00000000  0.10733688  0.00000000       0.003
   0.12880425 -0.00000000 -0.00000000       0.003
  -0.00000000  0.12880426  0.00000000       0.003
   0.02146738  0.02146738 -0.00000000       0.003
  -0.02146738  0.02146738  0.00000000       0.003
   0.04293475  0.02146738 -0.00000000       0.003
  -0.02146738  0.04293475  0.00000000       0.003
  -0.04293475  0.02146738  0.00000000       0.003
   0.02146738  0.04293475  0.00000000       0.003
   0.06440213  0.02146738 -0.00000000       0.003
  -0.02146738  0.06440213  0.00000000       0.003
  -0.06440213  0.02146738  0.00000000       0.003
   0.02146738  0.06440213  0.00000000       0.003
   0.08586950  0.02146738 -0.00000000       0.003
  -0.02146738  0.08586951  0.00000000       0.003
  -0.08586950  0.02146738  0.00000000       0.003
   0.02146738  0.08586951  0.00000000       0.003
   0.10733688  0.02146738 -0.00000000       0.003
  -0.02146738  0.10733688  0.00000000       0.003
  -0.10733688  0.02146738  0.00000000       0.003
   0.02146738  0.10733688  0.00000000       0.003
   0.12880425  0.02146738 -0.00000000       0.003
  -0.02146738  0.12880426  0.00000000       0.003
  -0.12880425  0.02146738  0.00000000       0.003
   0.02146738  0.12880426  0.00000000       0.003
   0.04293475  0.04293475 -0.00000000       0.003
  -0.04293475  0.04293475  0.00000000       0.003
   0.06440213  0.04293475 -0.00000000       0.003
  -0.04293475  0.06440213  0.00000000       0.003
  -0.06440213  0.04293475  0.00000000       0.003
   0.04293475  0.06440213  0.00000000       0.003
   0.08586950  0.04293475 -0.00000000       0.003
  -0.04293475  0.08586951  0.00000000       0.003
  -0.08586950  0.04293475  0.00000000       0.003
   0.04293475  0.08586951  0.00000000       0.003
   0.10733688  0.04293475 -0.00000000       0.003
  -0.04293475  0.10733688  0.00000000       0.003
  -0.10733688  0.04293475  0.00000000       0.003
   0.04293475  0.10733688  0.00000000       0.003
   0.12880425  0.04293475 -0.00000000       0.003
  -0.04293475  0.12880426  0.00000000       0.003
  -0.12880425  0.04293475  0.00000000       0.003
   0.04293475  0.12880426  0.00000000       0.003
   0.06440213  0.06440213 -0.00000000       0.003
  -0.06440213  0.06440213  0.00000000       0.003
   0.08586950  0.06440213 -0.00000000       0.003
  -0.06440213  0.08586951  0.00000000       0.003
  -0.08586950  0.06440213  0.00000000       0.003
   0.06440213  0.08586951  0.00000000       0.003
   0.10733688  0.06440213 -0.00000000       0.003
  -0.06440213  0.10733688  0.00000000       0.003
  -0.10733688  0.06440213  0.00000000       0.003
   0.06440213  0.10733688  0.00000000       0.003
   0.12880425  0.06440213 -0.00000000       0.003
  -0.06440213  0.12880426  0.00000000       0.003
  -0.12880425  0.06440213  0.00000000       0.003
   0.06440213  0.12880426  0.00000000       0.003
   0.08586950  0.08586951 -0.00000000       0.003
  -0.08586950  0.08586951  0.00000000       0.003
   0.10733688  0.08586950 -0.00000000       0.003
  -0.08586950  0.10733688  0.00000000       0.003
  -0.10733688  0.08586951  0.00000000       0.003
   0.08586950  0.10733688  0.00000000       0.003
   0.12880425  0.08586950 -0.00000000       0.003
  -0.08586950  0.12880426  0.00000000       0.003
  -0.12880425  0.08586951  0.00000000       0.003
   0.08586950  0.12880426  0.00000000       0.003
   0.10733688  0.10733688 -0.00000000       0.003
  -0.10733688  0.10733688  0.00000000       0.003
   0.12880425  0.10733688 -0.00000000       0.003
  -0.10733688  0.12880426  0.00000000       0.003
  -0.12880425  0.10733688  0.00000000       0.003
   0.10733688  0.12880426 -0.00000000       0.003
   0.12880425  0.12880426 -0.00000000       0.003
  -0.12880426  0.12880426  0.00000000       0.003
  -0.00000000 -0.00000000  0.02309301       0.003
   0.02146738 -0.00000000  0.02309301       0.003
  -0.00000000  0.02146738  0.02309301       0.003
  -0.02146738  0.00000000  0.02309301       0.003
   0.00000000 -0.02146738  0.02309301       0.003
   0.04293475 -0.00000000  0.02309301       0.003
  -0.00000000  0.04293475  0.02309301       0.003
  -0.04293475  0.00000000  0.02309301       0.003
   0.00000000 -0.04293475  0.02309301       0.003
   0.06440213 -0.00000000  0.02309301       0.003
  -0.00000000  0.06440213  0.02309301       0.003
  -0.06440213  0.00000000  0.02309301       0.003
   0.00000000 -0.06440213  0.02309301       0.003
   0.08586950 -0.00000000  0.02309301       0.003
  -0.00000000  0.08586951  0.02309301       0.003
  -0.08586950  0.00000000  0.02309301       0.003
   0.00000000 -0.08586951  0.02309301       0.003
   0.10733688 -0.00000000  0.02309301       0.003
  -0.00000000  0.10733688  0.02309301       0.003
  -0.10733688  0.00000000  0.02309301       0.003
   0.00000000 -0.10733688  0.02309301       0.003
   0.12880425 -0.00000000  0.02309301       0.003
  -0.00000000  0.12880426  0.02309301       0.003
  -0.12880425  0.00000000  0.02309301       0.003
   0.00000000 -0.12880426  0.02309301       0.003
   0.02146738  0.02146738  0.02309301       0.003
  -0.02146738  0.02146738  0.02309301       0.003
  -0.02146738 -0.02146738  0.02309301       0.003
   0.02146738 -0.02146738  0.02309301       0.003
   0.04293475  0.02146738  0.02309301       0.003
  -0.02146738  0.04293475  0.02309301       0.003
  -0.04293475 -0.02146738  0.02309301       0.003
   0.02146738 -0.04293475  0.02309301       0.003
  -0.04293475  0.02146738 -0.02309301       0.003
   0.02146738  0.04293475 -0.02309301       0.003
   0.04293475 -0.02146738 -0.02309301       0.003
  -0.02146738 -0.04293475 -0.02309301       0.003
   0.06440213  0.02146738  0.02309301       0.003
  -0.02146738  0.06440213  0.02309301       0.003
  -0.06440213 -0.02146738  0.02309301       0.003
   0.02146738 -0.06440213  0.02309301       0.003
  -0.06440213  0.02146738 -0.02309301       0.003
   0.02146738  0.06440213 -0.02309301       0.003
   0.06440213 -0.02146738 -0.02309301       0.003
  -0.02146738 -0.06440213 -0.02309301       0.003
   0.08586950  0.02146738  0.02309301       0.003
  -0.02146738  0.08586951  0.02309301       0.003
  -0.08586950 -0.02146738  0.02309301       0.003
   0.02146738 -0.08586951  0.02309301       0.003
  -0.08586950  0.02146738 -0.02309301       0.003
   0.02146738  0.08586951 -0.02309301       0.003
   0.08586950 -0.02146738 -0.02309301       0.003
  -0.02146738 -0.08586951 -0.02309301       0.003
   0.10733688  0.02146738  0.02309301       0.003
  -0.02146738  0.10733688  0.02309301       0.003
  -0.10733688 -0.02146738  0.02309301       0.003
   0.02146738 -0.10733688  0.02309301       0.003
  -0.10733688  0.02146738 -0.02309301       0.003
   0.02146738  0.10733688 -0.02309301       0.003
   0.10733688 -0.02146738 -0.02309301       0.003
  -0.02146738 -0.10733688 -0.02309301       0.003
   0.12880425  0.02146738  0.02309301       0.003
  -0.02146738  0.12880426  0.02309301       0.003
  -0.12880425 -0.02146738  0.02309301       0.003
   0.02146738 -0.12880426  0.02309301       0.003
  -0.12880425  0.02146738 -0.02309301       0.003
   0.02146738  0.12880426 -0.02309301       0.003
   0.12880425 -0.02146738 -0.02309301       0.003
  -0.02146738 -0.12880426 -0.02309301       0.003
   0.04293475  0.04293475  0.02309301       0.003
  -0.04293475  0.04293475  0.02309301       0.003
  -0.04293475 -0.04293475  0.02309301       0.003
   0.04293475 -0.04293475  0.02309301       0.003
   0.06440213  0.04293475  0.02309301       0.003
  -0.04293475  0.06440213  0.02309301       0.003
  -0.06440213 -0.04293475  0.02309301       0.003
   0.04293475 -0.06440213  0.02309301       0.003
  -0.06440213  0.04293475 -0.02309301       0.003
   0.04293475  0.06440213 -0.02309301       0.003
   0.06440213 -0.04293475 -0.02309301       0.003
  -0.04293475 -0.06440213 -0.02309301       0.003
   0.08586950  0.04293475  0.02309301       0.003
  -0.04293475  0.08586951  0.02309301       0.003
  -0.08586950 -0.04293475  0.02309301       0.003
   0.04293475 -0.08586951  0.02309301       0.003
  -0.08586950  0.04293475 -0.02309301       0.003
   0.04293475  0.08586951 -0.02309301       0.003
   0.08586950 -0.04293475 -0.02309301       0.003
  -0.04293475 -0.08586951 -0.02309301       0.003
   0.10733688  0.04293475  0.02309301       0.003
  -0.04293475  0.10733688  0.02309301       0.003
  -0.10733688 -0.04293475  0.02309301       0.003
   0.04293475 -0.10733688  0.02309301       0.003
  -0.10733688  0.04293475 -0.02309301       0.003
   0.04293475  0.10733688 -0.02309301       0.003
   0.10733688 -0.04293475 -0.02309301       0.003
  -0.04293475 -0.10733688 -0.02309301       0.003
   0.12880425  0.04293475  0.02309301       0.003
  -0.04293475  0.12880426  0.02309301       0.003
  -0.12880425 -0.04293475  0.02309301       0.003
   0.04293475 -0.12880426  0.02309301       0.003
  -0.12880425  0.04293475 -0.02309301       0.003
   0.04293475  0.12880426 -0.02309301       0.003
   0.12880425 -0.04293475 -0.02309301       0.003
  -0.04293475 -0.12880426 -0.02309301       0.003
   0.06440213  0.06440213  0.02309301       0.003
  -0.06440213  0.06440213  0.02309301       0.003
  -0.06440213 -0.06440213  0.02309301       0.003
   0.06440213 -0.06440213  0.02309301       0.003
   0.08586950  0.06440213  0.02309301       0.003
  -0.06440213  0.08586951  0.02309301       0.003
  -0.08586950 -0.06440213  0.02309301       0.003
   0.06440213 -0.08586951  0.02309301       0.003
  -0.08586950  0.06440213 -0.02309301       0.003
   0.06440213  0.08586951 -0.02309301       0.003
   0.08586950 -0.06440213 -0.02309301       0.003
  -0.06440213 -0.08586951 -0.02309301       0.003
   0.10733688  0.06440213  0.02309301       0.003
  -0.06440213  0.10733688  0.02309301       0.003
  -0.10733688 -0.06440213  0.02309301       0.003
   0.06440213 -0.10733688  0.02309301       0.003
  -0.10733688  0.06440213 -0.02309301       0.003
   0.06440213  0.10733688 -0.02309301       0.003
   0.10733688 -0.06440213 -0.02309301       0.003
  -0.06440213 -0.10733688 -0.02309301       0.003
   0.12880425  0.06440213  0.02309301       0.003
  -0.06440213  0.12880426  0.02309301       0.003
  -0.12880425 -0.06440213  0.02309301       0.003
   0.06440213 -0.12880426  0.02309301       0.003
  -0.12880425  0.06440213 -0.02309301       0.003
   0.06440213  0.12880426 -0.02309301       0.003
   0.12880425 -0.06440213 -0.02309301       0.003
  -0.06440213 -0.12880426 -0.02309301       0.003
   0.08586950  0.08586951  0.02309301       0.003
  -0.08586950  0.08586951  0.02309301       0.003
  -0.08586950 -0.08586951  0.02309301       0.003
   0.08586950 -0.08586951  0.02309301       0.003
   0.10733688  0.08586950  0.02309301       0.003
  -0.08586950  0.10733688  0.02309301       0.003
  -0.10733688 -0.08586950  0.02309301       0.003
   0.08586950 -0.10733688  0.02309301       0.003
  -0.10733688  0.08586951 -0.02309301       0.003
   0.08586950  0.10733688 -0.02309301       0.003
   0.10733688 -0.08586951 -0.02309301       0.003
  -0.08586950 -0.10733688 -0.02309301       0.003
   0.12880425  0.08586950  0.02309301       0.003
  -0.08586950  0.12880426  0.02309301       0.003
  -0.12880425 -0.08586950  0.02309301       0.003
   0.08586950 -0.12880426  0.02309301       0.003
  -0.12880425  0.08586951 -0.02309301       0.003
   0.08586950  0.12880426 -0.02309301       0.003
   0.12880425 -0.08586951 -0.02309301       0.003
  -0.08586950 -0.12880426 -0.02309301       0.003
   0.10733688  0.10733688  0.02309301       0.003
  -0.10733688  0.10733688  0.02309301       0.003
  -0.10733688 -0.10733688  0.02309301       0.003
   0.10733688 -0.10733688  0.02309301       0.003
   0.12880425  0.10733688  0.02309301       0.003
  -0.10733688  0.12880426  0.02309301       0.003
  -0.12880425 -0.10733688  0.02309301       0.003
   0.10733688 -0.12880426  0.02309301       0.003
  -0.12880425  0.10733688 -0.02309301       0.003
   0.10733688  0.12880426 -0.02309301       0.003
   0.12880425 -0.10733688 -0.02309301       0.003
  -0.10733688 -0.12880426 -0.02309301       0.003
   0.12880425  0.12880426  0.02309301       0.003
  -0.12880426  0.12880426  0.02309301       0.003
  -0.12880425 -0.12880426  0.02309301       0.003
   0.12880425 -0.12880426  0.02309301       0.003
  -0.00000000 -0.00000000  0.04618602       0.001
   0.02146738 -0.00000000  0.04618602       0.003
  -0.00000000  0.02146738  0.04618602       0.003
   0.04293475 -0.00000000  0.04618602       0.003
  -0.00000000  0.04293475  0.04618602       0.003
   0.06440213 -0.00000000  0.04618602       0.003
  -0.00000000  0.06440213  0.04618602       0.003
   0.08586950 -0.00000000  0.04618602       0.003
  -0.00000000  0.08586951  0.04618602       0.003
   0.10733688 -0.00000000  0.04618602       0.003
  -0.00000000  0.10733688  0.04618602       0.003
   0.12880425 -0.00000000  0.04618602       0.003
  -0.00000000  0.12880426  0.04618602       0.003
   0.02146738  0.02146738  0.04618602       0.003
  -0.02146738  0.02146738  0.04618602       0.003
   0.04293475  0.02146738  0.04618602       0.003
  -0.02146738  0.04293475  0.04618602       0.003
  -0.04293475  0.02146738  0.04618602       0.003
   0.02146738  0.04293475  0.04618602       0.003
   0.06440213  0.02146738  0.04618602       0.003
  -0.02146738  0.06440213  0.04618602       0.003
  -0.06440213  0.02146738  0.04618602       0.003
   0.02146738  0.06440213  0.04618602       0.003
   0.08586950  0.02146738  0.04618602       0.003
  -0.02146738  0.08586951  0.04618602       0.003
  -0.08586950  0.02146738  0.04618602       0.003
   0.02146738  0.08586951  0.04618602       0.003
   0.10733688  0.02146738  0.04618602       0.003
  -0.02146738  0.10733688  0.04618602       0.003
  -0.10733688  0.02146738  0.04618602       0.003
   0.02146738  0.10733688  0.04618602       0.003
   0.12880425  0.02146738  0.04618602       0.003
  -0.02146738  0.12880426  0.04618602       0.003
  -0.12880425  0.02146738  0.04618602       0.003
   0.02146738  0.12880426  0.04618602       0.003
   0.04293475  0.04293475  0.04618602       0.003
  -0.04293475  0.04293475  0.04618602       0.003
   0.06440213  0.04293475  0.04618602       0.003
  -0.04293475  0.06440213  0.04618602       0.003
  -0.06440213  0.04293475  0.04618602       0.003
   0.04293475  0.06440213  0.04618602       0.003
   0.08586950  0.04293475  0.04618602       0.003
  -0.04293475  0.08586951  0.04618602       0.003
  -0.08586950  0.04293475  0.04618602       0.003
   0.04293475  0.08586951  0.04618602       0.003
   0.10733688  0.04293475  0.04618602       0.003
  -0.04293475  0.10733688  0.04618602       0.003
  -0.10733688  0.04293475  0.04618602       0.003
   0.04293475  0.10733688  0.04618602       0.003
   0.12880425  0.04293475  0.04618602       0.003
  -0.04293475  0.12880426  0.04618602       0.003
  -0.12880425  0.04293475  0.04618602       0.003
   0.04293475  0.12880426  0.04618602       0.003
   0.06440213  0.06440213  0.04618602       0.003
  -0.06440213  0.06440213  0.04618602       0.003
   0.08586950  0.06440213  0.04618602       0.003
  -0.06440213  0.08586951  0.04618602       0.003
  -0.08586950  0.06440213  0.04618602       0.003
   0.06440213  0.08586951  0.04618602       0.003
   0.10733688  0.06440213  0.04618602       0.003
  -0.06440213  0.10733688  0.04618602       0.003
  -0.10733688  0.06440213  0.04618602       0.003
   0.06440213  0.10733688  0.04618602       0.003
   0.12880425  0.06440213  0.04618602       0.003
  -0.06440213  0.12880426  0.04618602       0.003
  -0.12880425  0.06440213  0.04618602       0.003
   0.06440213  0.12880426  0.04618602       0.003
   0.08586950  0.08586951  0.04618602       0.003
  -0.08586950  0.08586951  0.04618602       0.003
   0.10733688  0.08586950  0.04618602       0.003
  -0.08586950  0.10733688  0.04618602       0.003
  -0.10733688  0.08586951  0.04618602       0.003
   0.08586950  0.10733688  0.04618602       0.003
   0.12880425  0.08586950  0.04618602       0.003
  -0.08586950  0.12880426  0.04618602       0.003
  -0.12880425  0.08586951  0.04618602       0.003
   0.08586950  0.12880426  0.04618602       0.003
   0.10733688  0.10733688  0.04618602       0.003
  -0.10733688  0.10733688  0.04618602       0.003
   0.12880425  0.10733688  0.04618602       0.003
  -0.10733688  0.12880426  0.04618602       0.003
  -0.12880425  0.10733688  0.04618602       0.003
   0.10733688  0.12880426  0.04618602       0.003
   0.12880425  0.12880426  0.04618602       0.003
  -0.12880426  0.12880426  0.04618602       0.003
 
 k-points in reciprocal lattice and weights: pymatgen with grid density = 8800 / numb
   0.00000000  0.00000000  0.00000000       0.001
   0.07692308  0.00000000  0.00000000       0.003
  -0.00000000  0.07692308  0.00000000       0.003
   0.15384615  0.00000000  0.00000000       0.003
   0.00000000  0.15384615  0.00000000       0.003
   0.23076923  0.00000000  0.00000000       0.003
   0.00000000  0.23076923  0.00000000       0.003
   0.30769231  0.00000000  0.00000000       0.003
  -0.00000000  0.30769231  0.00000000       0.003
   0.38461538  0.00000000  0.00000000       0.003
   0.00000000  0.38461538  0.00000000       0.003
   0.46153846  0.00000000  0.00000000       0.003
   0.00000000  0.46153846  0.00000000       0.003
   0.07692308  0.07692308  0.00000000       0.003
  -0.07692308  0.07692308  0.00000000       0.003
   0.15384615  0.07692308  0.00000000       0.003
  -0.07692308  0.15384615  0.00000000       0.003
  -0.15384615  0.07692308  0.00000000       0.003
   0.07692308  0.15384615  0.00000000       0.003
   0.23076923  0.07692308  0.00000000       0.003
  -0.07692308  0.23076923  0.00000000       0.003
  -0.23076923  0.07692308  0.00000000       0.003
   0.07692308  0.23076923  0.00000000       0.003
   0.30769231  0.07692308  0.00000000       0.003
  -0.07692308  0.30769231  0.00000000       0.003
  -0.30769231  0.07692308  0.00000000       0.003
   0.07692308  0.30769231 -0.00000000       0.003
   0.38461538  0.07692308  0.00000000       0.003
  -0.07692308  0.38461538  0.00000000       0.003
  -0.38461538  0.07692308  0.00000000       0.003
   0.07692308  0.38461538  0.00000000       0.003
   0.46153846  0.07692308  0.00000000       0.003
  -0.07692308  0.46153846  0.00000000       0.003
  -0.46153846  0.07692308  0.00000000       0.003
   0.07692308  0.46153846  0.00000000       0.003
   0.15384615  0.15384615  0.00000000       0.003
  -0.15384615  0.15384615  0.00000000       0.003
   0.23076923  0.15384615  0.00000000       0.003
  -0.15384615  0.23076923  0.00000000       0.003
  -0.23076923  0.15384615  0.00000000       0.003
   0.15384615  0.23076923  0.00000000       0.003
   0.30769231  0.15384615  0.00000000       0.003
  -0.15384615  0.30769231  0.00000000       0.003
  -0.30769231  0.15384615  0.00000000       0.003
   0.15384615  0.30769231 -0.00000000       0.003
   0.38461538  0.15384615  0.00000000       0.003
  -0.15384615  0.38461538  0.00000000       0.003
  -0.38461538  0.15384615  0.00000000       0.003
   0.15384615  0.38461538 -0.00000000       0.003
   0.46153846  0.15384615  0.00000000       0.003
  -0.15384615  0.46153846  0.00000000       0.003
  -0.46153846  0.15384615  0.00000000       0.003
   0.15384615  0.46153846  0.00000000       0.003
   0.23076923  0.23076923  0.00000000       0.003
  -0.23076923  0.23076923  0.00000000       0.003
   0.30769231  0.23076923  0.00000000       0.003
  -0.23076923  0.30769231  0.00000000       0.003
  -0.30769231  0.23076923  0.00000000       0.003
   0.23076923  0.30769231 -0.00000000       0.003
   0.38461538  0.23076923  0.00000000       0.003
  -0.23076923  0.38461538  0.00000000       0.003
  -0.38461538  0.23076923  0.00000000       0.003
   0.23076923  0.38461538 -0.00000000       0.003
   0.46153846  0.23076923  0.00000000       0.003
[...]
     81      11.9932      0.00000
     82      12.0365      0.00000
     83      12.0559      0.00000
     84      12.0692      0.00000
     85      12.2622      0.00000
     86      12.3190      0.00000
     87      12.3828      0.00000
     88      12.8876      0.00000
     89      12.8890      0.00000
     90      13.0195      0.00000
     91      13.1071      0.00000
     92      13.1195      0.00000
     93      13.4505      0.00000
     94      13.7985      0.00000
     95      13.9019      0.00000
     96      14.1989      0.00000


--------------------------------------------------------------------------------------------------------


 soft charge-density along one line, spin component           1
         0         1         2         3         4         5         6         7         8         9
 total charge-density along one line
 
 soft charge-density along one line, spin component           2
         0         1         2         3         4         5         6         7         8         9
 total charge-density along one line
 
 pseudopotential strength for first ion, spin component:           1
-41.690  -0.000  -0.000   6.241   0.000   0.000   0.000   0.000
 -0.000 -41.681  -0.000   0.000   6.238   0.000   0.000  -0.000
 -0.000  -0.000 -41.630   0.000   0.000   6.216   0.000   0.000
  6.241   0.000   0.000   5.986  -0.000  -0.000  -0.000  -0.000
  0.000   6.238   0.000  -0.000   5.987  -0.000  -0.000   0.000
  0.000   0.000   6.216  -0.000  -0.000   5.990  -0.000  -0.000
  0.000   0.000   0.000  -0.000  -0.000  -0.000   0.554  -0.000
  0.000  -0.000   0.000  -0.000   0.000  -0.000  -0.000   0.585
 -0.000   0.000  -0.000   0.000  -0.000   0.000   0.000  -0.000
  0.000   0.000   0.000  -0.000  -0.000  -0.000  -0.000  -0.000
  0.000  -0.000   0.000  -0.000   0.000  -0.000  -0.000   0.000
  0.000   0.000   0.000  -0.000  -0.000  -0.000  -0.003  -0.000
  0.000  -0.000   0.000  -0.000   0.000  -0.000  -0.000   0.028
 -0.000   0.000  -0.000   0.000  -0.000   0.000   0.000  -0.000
  0.000   0.000   0.000  -0.000  -0.000  -0.000  -0.000  -0.000
  0.000  -0.000   0.000  -0.000   0.000  -0.000  -0.000   0.000
  0.000  -0.000  -0.000   0.000  -0.000   0.000   0.000   0.000
  0.000  -0.000  -0.000   0.000  -0.000   0.000   0.000   0.000
 pseudopotential strength for first ion, spin component:           2
-43.636  -0.000  -0.000   7.063   0.000   0.000   0.000   0.000
 -0.000 -43.625  -0.000   0.000   7.058   0.000   0.000   0.000
 -0.000  -0.000 -43.508   0.000   0.000   7.011   0.000   0.000
  7.063   0.000   0.000   5.761  -0.000  -0.000  -0.000  -0.000
  0.000   7.058   0.000  -0.000   5.762  -0.000   0.000  -0.000
  0.000   0.000   7.011  -0.000  -0.000   5.770  -0.000   0.000
  0.000   0.000   0.000  -0.000   0.000  -0.000  -0.928  -0.000
  0.000   0.000   0.000  -0.000  -0.000   0.000  -0.000  -1.083
 -0.000   0.000  -0.000   0.000  -0.000   0.000   0.000  -0.000
  0.000   0.000   0.000   0.000  -0.000  -0.000  -0.000  -0.000
 -0.000  -0.000   0.000   0.000   0.000  -0.000   0.000   0.000
  0.000   0.000   0.000  -0.000   0.000  -0.000  -1.459  -0.000
  0.000   0.000   0.000  -0.000  -0.000   0.000  -0.000  -1.612
 -0.000   0.000  -0.000   0.000  -0.000   0.000   0.000  -0.000
  0.000   0.000   0.000   0.000  -0.000  -0.000  -0.000  -0.000
 -0.000  -0.000   0.000   0.000   0.000  -0.000   0.000   0.000
 -0.000  -0.000  -0.000   0.000  -0.000   0.000   0.000   0.000
 -0.000  -0.000  -0.000   0.000  -0.000   0.000   0.000   0.000
 total augmentation occupancy for first ion, spin component:           1
  1.992  -0.000  -0.000  -0.023  -0.000  -0.000  -0.000   0.000   0.000  -0.000  -0.000   0.000  -0.000  -0.000   0.000   0.000
 -0.000   1.992  -0.000  -0.000  -0.023  -0.000  -0.000  -0.000   0.000  -0.000  -0.000   0.000   0.000  -0.000   0.000   0.000
 -0.000  -0.000   1.992  -0.000  -0.000  -0.023  -0.000  -0.000  -0.000   0.000  -0.000   0.000   0.000   0.000  -0.000   0.000
 -0.023  -0.000  -0.000   0.211  -0.000   0.000  -0.000   0.000   0.000  -0.000  -0.000   0.000  -0.000  -0.000   0.000   0.000
 -0.000  -0.023  -0.000  -0.000   0.212  -0.000  -0.000   0.000   0.000  -0.000  -0.000   0.000  -0.000  -0.000  -0.000   0.000
 -0.000  -0.000  -0.023   0.000  -0.000   0.199  -0.000  -0.000   0.000   0.000  -0.000   0.000   0.000  -0.000  -0.000  -0.000
 -0.000  -0.000  -0.000  -0.000  -0.000  -0.000   2.557  -0.001  -0.000  -0.001  -0.001  -1.583   0.000   0.000   0.000   0.001
  0.000  -0.000  -0.000   0.000   0.000  -0.000  -0.001   3.171   0.000  -0.001  -0.000   0.000  -2.448  -0.000   0.000   0.000
  0.000   0.000  -0.000   0.000   0.000   0.000  -0.000   0.000   3.282  -0.000   0.202   0.000  -0.000  -2.073  -0.000  -0.075
 -0.000  -0.000   0.000  -0.000  -0.000   0.000  -0.001  -0.001  -0.000   2.807  -0.000   0.000   0.000  -0.000  -1.751  -0.000
 -0.000  -0.000  -0.000  -0.000  -0.000  -0.000  -0.001  -0.000   0.202  -0.000   3.275   0.001   0.000  -0.076  -0.000  -2.106
  0.000   0.000   0.000   0.000   0.000   0.000  -1.583   0.000   0.000   0.000   0.001   2.001  -0.000  -0.000  -0.000  -0.000
 -0.000   0.000   0.000  -0.000  -0.000   0.000   0.000  -2.448  -0.000   0.000   0.000  -0.000   2.959   0.000  -0.000  -0.000
 -0.000  -0.000   0.000  -0.000  -0.000  -0.000   0.000  -0.000  -2.073  -0.000  -0.076  -0.000   0.000   2.179   0.000   0.000
  0.000   0.000  -0.000   0.000  -0.000  -0.000   0.000   0.000  -0.000  -1.751  -0.000  -0.000  -0.000   0.000   2.141  -0.000
  0.000   0.000   0.000   0.000   0.000  -0.000   0.001   0.000  -0.075  -0.000  -2.106  -0.000  -0.000   0.000  -0.000   2.234
 -0.000   0.000  -0.000   0.000  -0.000  -0.000   0.000  -0.000  -0.098  -0.000   0.178  -0.000   0.000   0.081   0.000  -0.124
  0.000  -0.000   0.000  -0.000   0.000  -0.000   0.000   0.000   0.010   0.000  -0.016  -0.000   0.000  -0.008   0.000   0.010
 total augmentation occupancy for first ion, spin component:           2
  0.002   0.000   0.000   0.007  -0.000  -0.000  -0.000   0.000  -0.000  -0.000  -0.000   0.000  -0.000   0.000   0.000   0.000
  0.000   0.002  -0.000  -0.000   0.008  -0.000  -0.000  -0.000   0.000  -0.000  -0.000   0.000   0.000  -0.000   0.000   0.000
  0.000  -0.000   0.002  -0.000  -0.000   0.008  -0.000  -0.000  -0.000   0.000  -0.000   0.000   0.000   0.000  -0.000   0.000
  0.007  -0.000  -0.000  -0.002  -0.000  -0.000   0.000  -0.000  -0.000   0.000   0.000  -0.000  -0.000   0.000  -0.000  -0.000
 -0.000   0.008  -0.000  -0.000   0.009  -0.000   0.000  -0.000  -0.000   0.000  -0.000  -0.000   0.000   0.000  -0.000   0.000
 -0.000  -0.000   0.008  -0.000  -0.000   0.005   0.000   0.000  -0.000  -0.000  -0.000  -0.000  -0.000   0.000   0.000  -0.000
 -0.000  -0.000  -0.000   0.000   0.000   0.000  -1.772   0.001   0.000   0.000   0.001   0.726  -0.000  -0.000  -0.000  -0.001
  0.000  -0.000  -0.000  -0.000  -0.000   0.000   0.001  -1.883  -0.000   0.000   0.000  -0.000   0.584   0.000  -0.000  -0.000
 -0.000   0.000  -0.000  -0.000  -0.000  -0.000   0.000  -0.000  -2.282  -0.000  -0.076  -0.000   0.000   0.937   0.000   0.119
 -0.000  -0.000   0.000   0.000   0.000  -0.000   0.000   0.000  -0.000  -1.947  -0.000  -0.000  -0.000   0.000   0.831   0.000
 -0.000  -0.000  -0.000   0.000  -0.000  -0.000   0.001   0.000  -0.076  -0.000  -2.364  -0.001  -0.000   0.118   0.000   0.934
  0.000   0.000   0.000  -0.000  -0.000  -0.000   0.726  -0.000  -0.000  -0.000  -0.001  -0.091   0.000   0.000   0.000   0.000
 -0.000   0.000   0.000  -0.000   0.000  -0.000  -0.000   0.584   0.000  -0.000  -0.000   0.000   0.131  -0.000   0.000   0.000
  0.000  -0.000   0.000   0.000   0.000   0.000  -0.000   0.000   0.937   0.000   0.118   0.000  -0.000  -0.220  -0.000  -0.133
  0.000   0.000  -0.000  -0.000  -0.000   0.000  -0.000  -0.000   0.000   0.831   0.000   0.000   0.000  -0.000  -0.127  -0.000
  0.000   0.000   0.000  -0.000   0.000  -0.000  -0.001  -0.000   0.119   0.000   0.934   0.000   0.000  -0.133  -0.000  -0.165
  0.000  -0.000   0.000  -0.000  -0.000   0.000   0.000   0.000  -0.024   0.000  -0.023   0.000  -0.000   0.013  -0.000   0.041
 -0.000   0.000  -0.000   0.000   0.000   0.000  -0.000  -0.000  -0.004  -0.000   0.007   0.000   0.000   0.001   0.000  -0.002


------------------------ aborting loop because EDIFF is reached ----------------------------------------





 total charge

# of ion       s       p       d       tot
------------------------------------------
    1        0.379   6.390   6.127  12.897
    2        0.383   6.400   6.112  12.894
    3        0.383   6.400   6.112  12.895
    4        0.386   6.403   6.095  12.884
    5        0.386   6.403   6.094  12.883
    6        0.382   6.396   6.121  12.898
    7        0.379   6.390   6.127  12.897
    8        0.383   6.400   6.112  12.894
    9        0.383   6.400   6.112  12.895
   10        0.833   0.840   8.076   9.748
   11        0.833   0.839   8.076   9.748
   12        0.822   0.852   8.074   9.748
--------------------------------------------------
tot          5.931  60.111  79.239 145.281



 magnetization (x)

# of ion       s       p       d       tot
------------------------------------------
    1       -0.004   0.010  -2.247  -2.241
    2        0.007   0.005   2.110   2.122
    3        0.007   0.005   2.108   2.120
    4       -0.013  -0.024  -2.195  -2.232
    5       -0.013  -0.024  -2.196  -2.233
    6        0.001  -0.016   2.270   2.256
    7       -0.004   0.010  -2.247  -2.241
    8        0.007   0.005   2.110   2.122
    9        0.007   0.005   2.108   2.121
   10        0.009   0.022  -0.111  -0.080
   11        0.009   0.022  -0.111  -0.080
   12       -0.032  -0.081   0.282   0.168
--------------------------------------------------
tot         -0.017  -0.063   1.881   1.802
 
    CHARGE:  cpu time      0.5032: real time      0.5060
    FORLOC:  cpu time      0.0022: real time      0.0023
    FORNL :  cpu time      1.9655: real time      1.9757
    STRESS:  cpu time     14.5125: real time     14.6346
    FORCOR:  cpu time      0.0211: real time      0.0212
    FORHAR:  cpu time      0.0028: real time      0.0031
    MIXING:  cpu time      0.0030: real time      0.0031
    OFIELD:  cpu time      0.0016: real time      0.0019

  FORCE on cell =-STRESS in cart. coord.  units (eV):
  Direction    XX          YY          ZZ          XY          YZ          ZX
  --------------------------------------------------------------------------------------
  Alpha Z  1224.38942  1224.38942  1224.38942
  Ewald   -6264.13832 -6264.13829 -6272.99031    -0.00004     0.00001    -0.00001
  Hartree  1770.47026  1770.47118  1760.45869    -0.03268    -0.00972    -0.00973
  E(xc)    -946.52341  -946.52342  -946.47093     0.00054     0.00012     0.00012
  Local    1277.80676  1277.80519  1303.21181     0.09586     0.02426     0.02429
  n-local  -198.85029  -198.85015  -198.04638     0.01531    -0.00233    -0.00233
  augment  1436.36966  1436.36981  1431.54557    -0.04350    -0.00717    -0.00717
  Kinetic  1717.78555  1717.78597  1715.12462    -0.04156    -0.00728    -0.00728
  Fock        0.00000     0.00000     0.00000     0.00000     0.00000     0.00000
  -------------------------------------------------------------------------------------
  Total      17.30963    17.30971    17.22250    -0.00607    -0.00211    -0.00211
  in kB     199.51871   199.51965   198.51442    -0.07000    -0.02432    -0.02433
  external pressure =      199.18 kB  Pullay stress =        0.00 kB


 VOLUME and BASIS-vectors are now :
 -----------------------------------------------------------------------------
  energy-cutoff  :      520.00
  volume of cell :      139.00
      direct lattice vectors                 reciprocal lattice vectors
     3.583254790  0.000000016  0.000000002     0.279075885 -0.000000001 -0.000000001
     0.000000017  3.583254685  0.000000000    -0.000000001  0.279075893  0.000000001
     0.000000030 -0.000000025 10.825785874    -0.000000000 -0.000000000  0.092372047

  length of vectors
     3.583254790  3.583254685 10.825785874     0.279075885  0.279075893  0.092372047


 FORCES acting on ions
    electron-ion (+dipol)            ewald-force                    non-local-force                 convergence-correction
 -----------------------------------------------------------------------------------------------
   -.327E-04 0.105E-04 -.821E+00   0.319E-04 -.105E-04 0.811E+00   0.552E-06 0.227E-06 0.218E-03   0.161E-06 -.171E-06 0.125E-01
   0.319E-03 -.117E-02 -.715E+01   -.362E-04 0.362E-04 0.826E+01   -.378E-04 0.650E-03 -.109E+01   -.278E-05 0.967E-06 -.210E-02
   -.237E-03 0.111E-02 0.797E+01   -.462E-04 0.224E-04 -.907E+01   0.365E-04 -.651E-03 0.109E+01   0.228E-05 -.143E-06 -.104E-01
   -.851E-04 -.751E-04 0.126E+02   0.623E-04 0.509E-04 -.113E+02   0.700E-03 0.699E-03 -.129E+01   -.847E-07 0.840E-06 -.213E-02
   0.946E-04 0.650E-04 -.133E+02   -.689E-04 -.397E-04 0.120E+02   -.701E-03 -.701E-03 0.129E+01   -.109E-05 -.416E-06 0.863E-02
   -.192E-04 -.292E-04 0.732E+00   0.199E-04 0.299E-04 -.725E+00   -.538E-06 -.216E-06 -.130E-02   0.191E-06 0.125E-06 -.634E-02
   0.104E-04 -.132E-04 -.821E+00   -.100E-04 0.125E-04 0.811E+00   0.715E-06 0.583E-07 0.205E-03   -.574E-06 0.195E-06 0.125E-01
   -.115E-02 0.309E-03 -.715E+01   0.961E-05 -.266E-04 0.826E+01   0.650E-03 -.374E-04 -.109E+01   0.134E-05 -.229E-05 -.195E-02
   0.110E-02 -.210E-03 0.797E+01   0.334E-04 -.725E-04 -.907E+01   -.651E-03 0.358E-04 0.109E+01   -.602E-06 0.201E-05 -.105E-01
   -.582E-03 -.638E-03 -.944E+01   -.518E-04 0.414E-05 0.939E+01   0.570E-04 0.589E-04 0.279E-01   -.139E-06 -.210E-06 -.174E-02
   0.576E-03 0.630E-03 0.903E+01   0.564E-04 0.251E-05 -.898E+01   -.558E-04 -.574E-04 -.289E-01   0.222E-06 0.254E-07 0.592E-02
   0.475E-07 0.888E-05 0.422E+00   -.375E-06 -.914E-05 -.417E+00   0.968E-06 0.768E-06 0.407E-03   0.816E-07 0.112E-07 -.431E-02
 -----------------------------------------------------------------------------------------------
   0.864E-06 -.960E-06 -.776E-04   -.493E-13 -.231E-13 -.467E-12   -.229E-06 -.155E-05 0.243E-04   -.992E-06 0.946E-06 0.131E-03
 
 
 POSITION                                       TOTAL-FORCE (eV/Angst)
 -----------------------------------------------------------------------------------
      3.58325      1.79163      1.80399        -0.000000      0.000000      0.002963
      0.00000      1.79163      5.40948         0.000243     -0.000484      0.013361
      0.00000      1.79163      9.02522        -0.000244      0.000484     -0.016658
      1.79163      1.79163      0.01553         0.000677      0.000676      0.017459
      1.79163      1.79163      3.59274        -0.000677     -0.000676     -0.016563
      1.79163      1.79163      7.21752         0.000000      0.000001     -0.000512
      1.79163      3.58325      1.80399         0.000001     -0.000000      0.002967
      1.79163      0.00000      5.40948        -0.000485      0.000243      0.013359
      1.79163      0.00000      9.02522         0.000485     -0.000244     -0.016659
      0.00000      3.58325     10.80403        -0.000577     -0.000575     -0.028970
      3.58325      0.00000      3.63021         0.000577      0.000575      0.028793
      3.58325      3.58325      7.21732         0.000001      0.000001      0.000458
 -----------------------------------------------------------------------------------
    total drift:                               -0.000000     -0.000002      0.000078


--------------------------------------------------------------------------------------------------------



  FREE ENERGIE OF THE ION-ELECTRON SYSTEM (eV)
  ---------------------------------------------------
  free  energy   TOTEN  =       -92.56793141 eV

  energy  without entropy=      -92.56793141  energy(sigma->0) =      -92.56793141
 


--------------------------------------------------------------------------------------------------------


    POTLOK:  cpu time      0.0362: real time      0.0365


--------------------------------------------------------------------------------------------------------


     LOOP+:  cpu time    688.3909: real time    693.3396
 -----------------------------------------------------------------------------
|                                                                             |
|           W    W    AA    RRRRR   N    N  II  N    N   GGGG   !!!           |
|           W    W   A  A   R    R  NN   N  II  NN   N  G    G  !!!           |
|           W    W  A    A  R    R  N N  N  II  N N  N  G       !!!           |
|           W WW W  AAAAAA  RRRRR   N  N N  II  N  N N  G  GGG   !            |
|           WW  WW  A    A  R   R   N   NN  II  N   NN  G    G                |
|           W    W  A    A  R    R  N    N  II  N    N   GGGG   !!!           |
|                                                                             |
|     Tetrahedron method does not include variations of the Fermi             |
|     occupations, so forces and stress will be inaccurate. We suggest        |
|     using a different smearing scheme ISMEAR = 1 or 2 for metals in         |
|     relaxations.                                                            |
|                                                                             |
 -----------------------------------------------------------------------------

    4ORBIT:  cpu time      0.0000: real time      0.0000



 total charge

# of ion       s       p       d       tot
------------------------------------------
    1        0.379   6.390   6.127  12.897
    2        0.383   6.400   6.112  12.894
    3        0.383   6.400   6.112  12.895
    4        0.386   6.403   6.095  12.884
    5        0.386   6.403   6.094  12.883
    6        0.382   6.396   6.121  12.898
    7        0.379   6.390   6.127  12.897
    8        0.383   6.400   6.112  12.894
    9        0.383   6.400   6.112  12.895
   10        0.833   0.840   8.076   9.748
   11        0.833   0.839   8.076   9.748
   12        0.822   0.852   8.074   9.748
--------------------------------------------------
tot          5.931  60.111  79.239 145.281



 magnetization (x)

# of ion       s       p       d       tot
------------------------------------------
    1       -0.004   0.010  -2.247  -2.241
    2        0.007   0.005   2.110   2.122
    3        0.007   0.005   2.108   2.120
    4       -0.013  -0.024  -2.195  -2.232
    5       -0.013  -0.024  -2.196  -2.233
    6        0.001  -0.016   2.270   2.256
    7       -0.004   0.010  -2.247  -2.241
    8        0.007   0.005   2.110   2.122
    9        0.007   0.005   2.108   2.121
   10        0.009   0.022  -0.111  -0.080
   11        0.009   0.022  -0.111  -0.080
   12       -0.032  -0.081   0.282   0.168
--------------------------------------------------
tot         -0.017  -0.063   1.881   1.802
 
 BZINTS: Fermi energy:   11.483887;  156.000000 electrons
         Band energy:-0.140097E+04;  BLOECHL correction:   -0.033198

 total amount of memory used by VASP MPI-rank0   537633. kBytes
=======================================================================

   base      :      30000. kBytes
   nonl-proj :     369383. kBytes
   fftplans  :        888. kBytes
   grid      :       6813. kBytes
   one-center:        373. kBytes
   wavefun   :     130176. kBytes
 
  
  
 General timing and accounting informations for this job:
 ========================================================
  
                  Total CPU time used (sec):      729.044
                            User time (sec):      717.045
                          System time (sec):       12.000
                         Elapsed time (sec):      740.689
  
                   Maximum memory used (kb):     1373716.
                   Average memory used (kb):          N/A
  
                          Minor page faults:       263915
                          Major page faults:          508
                 Voluntary context switches:         8400
