  16  16   1   0
  0.1906250E+02  0.7088612E-09  0.6778764E-09  0.6822151E-09  0.5000000E-15
  1.000000000000000E-004
  CAR 
 unknown system                          
      9.26511901    -52.52854566  301      3.71305273      1.00000000
    -52.529  0.0000E+00  0.0000E+00  0.0000E+00  0.0000E+00
    -52.323  0.0000E+00  0.0000E+00  0.0000E+00  0.0000E+00
    -52.117  0.0000E+00  0.0000E+00  0.0000E+00  0.0000E+00
    -51.911  0.0000E+00  0.0000E+00  0.0000E+00  0.0000E+00
    -51.705  0.0000E+00  0.0000E+00  0.0000E+00  0.0000E+00
    -51.499  0.0000E+00  0.0000E+00  0.0000E+00  0.0000E+00
    -51.293  0.0000E+00  0.0000E+00  0.0000E+00  0.0000E+00
    -51.087  0.0000E+00  0.0000E+00  0.0000E+00  0.0000E+00
    -50.881  0.0000E+00  0.0000E+00  0.0000E+00  0.0000E+00
    -50.675  0.0000E+00  0.0000E+00  0.0000E+00  0.0000E+00
    -50.469  0.0000E+00  0.0000E+00  0.0000E+00  0.0000E+00
    -50.263  0.0000E+00  0.0000E+00  0.0000E+00  0.0000E+00
    -50.057  0.0000E+00  0.0000E+00  0.0000E+00  0.0000E+00
    -49.851  0.2021E-05  0.2021E-05  0.4163E-06  0.4163E-06
    -49.645  0.1644E+00  0.1644E+00  0.3386E-01  0.3386E-01
    -49.439  0.3365E-01  0.3365E-01  0.4080E-01  0.4080E-01
    -49.233  0.3281E+00  0.3281E+00  0.1084E+00  0.1084E+00
    -49.027  0.5748E+00  0.5748E+00  0.2268E+00  0.2268E+00
    -48.821  0.7599E-01  0.7599E-01  0.2424E+00  0.2424E+00
    -48.615  0.7056E-07  0.7056E-07  0.2424E+00  0.2424E+00
    -48.409  0.0000E+00  0.0000E+00  0.2424E+00  0.2424E+00
    -48.203  0.0000E+00  0.0000E+00  0.2424E+00  0.2424E+00
    -47.997  0.0000E+00  0.0000E+00  0.2424E+00  0.2424E+00
    -47.791  0.0000E+00  0.0000E+00  0.2424E+00  0.2424E+00
    -47.585  0.0000E+00  0.0000E+00  0.2424E+00  0.2424E+00
    -47.379  0.0000E+00  0.0000E+00  0.2424E+00  0.2424E+00
    -47.173  0.0000E+00  0.0000E+00  0.2424E+00  0.2424E+00
    -46.967  0.0000E+00  0.0000E+00  0.2424E+00  0.2424E+00
    -46.761  0.0000E+00  0.0000E+00  0.2424E+00  0.2424E+00
    -46.555  0.0000E+00  0.0000E+00  0.2424E+00  0.2424E+00
    -46.349  0.0000E+00  0.0000E+00  0.2424E+00  0.2424E+00
    -46.143  0.0000E+00  0.0000E+00  0.2424E+00  0.2424E+00
    -45.937  0.0000E+00  0.0000E+00  0.2424E+00  0.2424E+00
    -45.731  0.0000E+00  0.0000E+00  0.2424E+00  0.2424E+00
    -45.525  0.0000E+00  0.0000E+00  0.2424E+00  0.2424E+00
    -45.319  0.0000E+00  0.0000E+00  0.2424E+00  0.2424E+00
    -45.113  0.0000E+00  0.0000E+00  0.2424E+00  0.2424E+00
    -44.907  0.0000E+00  0.0000E+00  0.2424E+00  0.2424E+00
    -44.701  0.0000E+00  0.0000E+00  0.2424E+00  0.2424E+00
    -44.495  0.0000E+00  0.0000E+00  0.2424E+00  0.2424E+00
    -44.289  0.0000E+00  0.0000E+00  0.2424E+00  0.2424E+00
    -44.083  0.0000E+00  0.0000E+00  0.2424E+00  0.2424E+00
    -43.877  0.0000E+00  0.0000E+00  0.2424E+00  0.2424E+00
    -43.671  0.0000E+00  0.0000E+00  0.2424E+00  0.2424E+00
    -43.465  0.0000E+00  0.0000E+00  0.2424E+00  0.2424E+00
    -43.259  0.0000E+00  0.0000E+00  0.2424E+00  0.2424E+00
    -43.054  0.0000E+00  0.0000E+00  0.2424E+00  0.2424E+00
    -42.848  0.0000E+00  0.0000E+00  0.2424E+00  0.2424E+00
    -42.642  0.0000E+00  0.0000E+00  0.2424E+00  0.2424E+00
    -42.436  0.0000E+00  0.0000E+00  0.2424E+00  0.2424E+00
    -42.230  0.0000E+00  0.0000E+00  0.2424E+00  0.2424E+00
    -42.024  0.0000E+00  0.0000E+00  0.2424E+00  0.2424E+00
    -41.818  0.0000E+00  0.0000E+00  0.2424E+00  0.2424E+00
    -41.612  0.0000E+00  0.0000E+00  0.2424E+00  0.2424E+00
    -41.406  0.0000E+00  0.0000E+00  0.2424E+00  0.2424E+00
    -41.200  0.0000E+00  0.0000E+00  0.2424E+00  0.2424E+00
    -40.994  0.0000E+00  0.0000E+00  0.2424E+00  0.2424E+00
    -40.788  0.0000E+00  0.0000E+00  0.2424E+00  0.2424E+00
    -40.582  0.0000E+00  0.0000E+00  0.2424E+00  0.2424E+00
    -40.376  0.0000E+00  0.0000E+00  0.2424E+00  0.2424E+00
    -40.170  0.0000E+00  0.0000E+00  0.2424E+00  0.2424E+00
    -39.964  0.0000E+00  0.0000E+00  0.2424E+00  0.2424E+00
    -39.758  0.0000E+00  0.0000E+00  0.2424E+00  0.2424E+00
    -39.552  0.0000E+00  0.0000E+00  0.2424E+00  0.2424E+00
    -39.346  0.0000E+00  0.0000E+00  0.2424E+00  0.2424E+00
    -39.140  0.0000E+00  0.0000E+00  0.2424E+00  0.2424E+00
    -38.934  0.0000E+00  0.0000E+00  0.2424E+00  0.2424E+00
    -38.728  0.0000E+00  0.0000E+00  0.2424E+00  0.2424E+00
    -38.522  0.0000E+00  0.0000E+00  0.2424E+00  0.2424E+00
    -38.316  0.0000E+00  0.0000E+00  0.2424E+00  0.2424E+00
    -38.110  0.0000E+00  0.0000E+00  0.2424E+00  0.2424E+00
    -37.904  0.0000E+00  0.0000E+00  0.2424E+00  0.2424E+00
    -37.698  0.0000E+00  0.0000E+00  0.2424E+00  0.2424E+00
    -37.492  0.0000E+00  0.0000E+00  0.2424E+00  0.2424E+00
    -37.286  0.0000E+00  0.0000E+00  0.2424E+00  0.2424E+00
    -37.080  0.0000E+00  0.0000E+00  0.2424E+00  0.2424E+00
    -36.874  0.0000E+00  0.0000E+00  0.2424E+00  0.2424E+00
    -36.668  0.0000E+00  0.0000E+00  0.2424E+00  0.2424E+00
    -36.462  0.0000E+00  0.0000E+00  0.2424E+00  0.2424E+00
    -36.256  0.0000E+00  0.0000E+00  0.2424E+00  0.2424E+00
    -36.050  0.0000E+00  0.0000E+00  0.2424E+00  0.2424E+00
    -35.844  0.0000E+00  0.0000E+00  0.2424E+00  0.2424E+00
    -35.638  0.0000E+00  0.0000E+00  0.2424E+00  0.2424E+00
    -35.432  0.0000E+00  0.0000E+00  0.2424E+00  0.2424E+00
    -35.226  0.0000E+00  0.0000E+00  0.2424E+00  0.2424E+00
    -35.020  0.0000E+00  0.0000E+00  0.2424E+00  0.2424E+00
    -34.814  0.0000E+00  0.0000E+00  0.2424E+00  0.2424E+00
    -34.608  0.0000E+00  0.0000E+00  0.2424E+00  0.2424E+00
    -34.402  0.0000E+00  0.0000E+00  0.2424E+00  0.2424E+00
    -34.196  0.0000E+00  0.0000E+00  0.2424E+00  0.2424E+00
    -33.990  0.0000E+00  0.0000E+00  0.2424E+00  0.2424E+00
    -33.784  0.0000E+00  0.0000E+00  0.2424E+00  0.2424E+00
    -33.578  0.0000E+00  0.0000E+00  0.2424E+00  0.2424E+00
    -33.373  0.0000E+00  0.0000E+00  0.2424E+00  0.2424E+00
    -33.167  0.0000E+00  0.0000E+00  0.2424E+00  0.2424E+00
    -32.961  0.0000E+00  0.0000E+00  0.2424E+00  0.2424E+00
    -32.755  0.0000E+00  0.0000E+00  0.2424E+00  0.2424E+00
    -32.549  0.0000E+00  0.0000E+00  0.2424E+00  0.2424E+00
    -32.343  0.0000E+00  0.0000E+00  0.2424E+00  0.2424E+00
    -32.137  0.0000E+00  0.0000E+00  0.2424E+00  0.2424E+00
    -31.931  0.0000E+00  0.0000E+00  0.2424E+00  0.2424E+00
    -31.725  0.0000E+00  0.0000E+00  0.2424E+00  0.2424E+00
    -31.519  0.0000E+00  0.0000E+00  0.2424E+00  0.2424E+00
    -31.313  0.0000E+00  0.0000E+00  0.2424E+00  0.2424E+00
    -31.107  0.0000E+00  0.0000E+00  0.2424E+00  0.2424E+00
    -30.901  0.0000E+00  0.0000E+00  0.2424E+00  0.2424E+00
    -30.695  0.0000E+00  0.0000E+00  0.2424E+00  0.2424E+00
    -30.489  0.0000E+00  0.0000E+00  0.2424E+00  0.2424E+00
    -30.283  0.0000E+00  0.0000E+00  0.2424E+00  0.2424E+00
    -30.077  0.0000E+00  0.0000E+00  0.2424E+00  0.2424E+00
    -29.871  0.0000E+00  0.0000E+00  0.2424E+00  0.2424E+00
    -29.665  0.0000E+00  0.0000E+00  0.2424E+00  0.2424E+00
    -29.459  0.0000E+00  0.0000E+00  0.2424E+00  0.2424E+00
    -29.253  0.0000E+00  0.0000E+00  0.2424E+00  0.2424E+00
    -29.047  0.0000E+00  0.0000E+00  0.2424E+00  0.2424E+00
    -28.841  0.0000E+00  0.0000E+00  0.2424E+00  0.2424E+00
    -28.635  0.0000E+00  0.0000E+00  0.2424E+00  0.2424E+00
    -28.429  0.0000E+00  0.0000E+00  0.2424E+00  0.2424E+00
    -28.223  0.0000E+00  0.0000E+00  0.2424E+00  0.2424E+00
    -28.017  0.0000E+00  0.0000E+00  0.2424E+00  0.2424E+00
    -27.811  0.0000E+00  0.0000E+00  0.2424E+00  0.2424E+00
    -27.605  0.0000E+00  0.0000E+00  0.2424E+00  0.2424E+00
    -27.399  0.0000E+00  0.0000E+00  0.2424E+00  0.2424E+00
    -27.193  0.0000E+00  0.0000E+00  0.2424E+00  0.2424E+00
    -26.987  0.0000E+00  0.0000E+00  0.2424E+00  0.2424E+00
    -26.781  0.0000E+00  0.0000E+00  0.2424E+00  0.2424E+00
    -26.575  0.0000E+00  0.0000E+00  0.2424E+00  0.2424E+00
    -26.369  0.0000E+00  0.0000E+00  0.2424E+00  0.2424E+00
    -26.163  0.0000E+00  0.0000E+00  0.2424E+00  0.2424E+00
    -25.957  0.0000E+00  0.0000E+00  0.2424E+00  0.2424E+00
    -25.751  0.0000E+00  0.0000E+00  0.2424E+00  0.2424E+00
    -25.545  0.0000E+00  0.0000E+00  0.2424E+00  0.2424E+00
    -25.339  0.0000E+00  0.0000E+00  0.2424E+00  0.2424E+00
    -25.133  0.0000E+00  0.0000E+00  0.2424E+00  0.2424E+00
    -24.927  0.0000E+00  0.0000E+00  0.2424E+00  0.2424E+00
    -24.721  0.0000E+00  0.0000E+00  0.2424E+00  0.2424E+00
    -24.515  0.0000E+00  0.0000E+00  0.2424E+00  0.2424E+00
    -24.309  0.0000E+00  0.0000E+00  0.2424E+00  0.2424E+00
    -24.103  0.0000E+00  0.0000E+00  0.2424E+00  0.2424E+00
    -23.897  0.0000E+00  0.0000E+00  0.2424E+00  0.2424E+00
    -23.692  0.0000E+00  0.0000E+00  0.2424E+00  0.2424E+00
    -23.486  0.0000E+00  0.0000E+00  0.2424E+00  0.2424E+00
    -23.280  0.0000E+00  0.0000E+00  0.2424E+00  0.2424E+00
    -23.074  0.0000E+00  0.0000E+00  0.2424E+00  0.2424E+00
    -22.868  0.0000E+00  0.0000E+00  0.2424E+00  0.2424E+00
    -22.662  0.0000E+00  0.0000E+00  0.2424E+00  0.2424E+00
    -22.456  0.0000E+00  0.0000E+00  0.2424E+00  0.2424E+00
    -22.250  0.0000E+00  0.0000E+00  0.2424E+00  0.2424E+00
    -22.044  0.0000E+00  0.0000E+00  0.2424E+00  0.2424E+00
    -21.838  0.0000E+00  0.0000E+00  0.2424E+00  0.2424E+00
    -21.632  0.0000E+00  0.0000E+00  0.2424E+00  0.2424E+00
    -21.426  0.0000E+00  0.0000E+00  0.2424E+00  0.2424E+00
    -21.220  0.0000E+00  0.0000E+00  0.2424E+00  0.2424E+00
    -21.014  0.0000E+00  0.0000E+00  0.2424E+00  0.2424E+00
    -20.808  0.0000E+00  0.0000E+00  0.2424E+00  0.2424E+00
    -20.602  0.0000E+00  0.0000E+00  0.2424E+00  0.2424E+00
    -20.396  0.0000E+00  0.0000E+00  0.2424E+00  0.2424E+00
    -20.190  0.0000E+00  0.0000E+00  0.2424E+00  0.2424E+00
    -19.984  0.0000E+00  0.0000E+00  0.2424E+00  0.2424E+00
    -19.778  0.0000E+00  0.0000E+00  0.2424E+00  0.2424E+00
    -19.572  0.0000E+00  0.0000E+00  0.2424E+00  0.2424E+00
    -19.366  0.0000E+00  0.0000E+00  0.2424E+00  0.2424E+00
    -19.160  0.0000E+00  0.0000E+00  0.2424E+00  0.2424E+00
    -18.954  0.0000E+00  0.0000E+00  0.2424E+00  0.2424E+00
    -18.748  0.0000E+00  0.0000E+00  0.2424E+00  0.2424E+00
    -18.542  0.0000E+00  0.0000E+00  0.2424E+00  0.2424E+00
    -18.336  0.0000E+00  0.0000E+00  0.2424E+00  0.2424E+00
    -18.130  0.0000E+00  0.0000E+00  0.2424E+00  0.2424E+00
    -17.924  0.0000E+00  0.0000E+00  0.2424E+00  0.2424E+00
    -17.718  0.0000E+00  0.0000E+00  0.2424E+00  0.2424E+00
    -17.512  0.0000E+00  0.0000E+00  0.2424E+00  0.2424E+00
    -17.306  0.0000E+00  0.0000E+00  0.2424E+00  0.2424E+00
    -17.100  0.0000E+00  0.0000E+00  0.2424E+00  0.2424E+00
    -16.894  0.0000E+00  0.0000E+00  0.2424E+00  0.2424E+00
    -16.688  0.0000E+00  0.0000E+00  0.2424E+00  0.2424E+00
    -16.482  0.0000E+00  0.0000E+00  0.2424E+00  0.2424E+00
    -16.276  0.0000E+00  0.0000E+00  0.2424E+00  0.2424E+00
    -16.070  0.0000E+00  0.0000E+00  0.2424E+00  0.2424E+00
    -15.864  0.0000E+00  0.0000E+00  0.2424E+00  0.2424E+00
    -15.658  0.0000E+00  0.0000E+00  0.2424E+00  0.2424E+00
    -15.452  0.0000E+00  0.0000E+00  0.2424E+00  0.2424E+00
    -15.246  0.0000E+00  0.0000E+00  0.2424E+00  0.2424E+00
    -15.040  0.0000E+00  0.0000E+00  0.2424E+00  0.2424E+00
    -14.834  0.0000E+00  0.0000E+00  0.2424E+00  0.2424E+00
    -14.628  0.0000E+00  0.0000E+00  0.2424E+00  0.2424E+00
    -14.422  0.0000E+00  0.0000E+00  0.2424E+00  0.2424E+00
    -14.216  0.0000E+00  0.0000E+00  0.2424E+00  0.2424E+00
    -14.010  0.0000E+00  0.0000E+00  0.2424E+00  0.2424E+00
    -13.805  0.0000E+00  0.0000E+00  0.2424E+00  0.2424E+00
    -13.599  0.0000E+00  0.0000E+00  0.2424E+00  0.2424E+00
    -13.393  0.0000E+00  0.0000E+00  0.2424E+00  0.2424E+00
    -13.187  0.0000E+00  0.0000E+00  0.2424E+00  0.2424E+00
    -12.981  0.0000E+00  0.0000E+00  0.2424E+00  0.2424E+00
    -12.775  0.0000E+00  0.0000E+00  0.2424E+00  0.2424E+00
    -12.569  0.0000E+00  0.0000E+00  0.2424E+00  0.2424E+00
    -12.363  0.0000E+00  0.0000E+00  0.2424E+00  0.2424E+00
    -12.157  0.0000E+00  0.0000E+00  0.2424E+00  0.2424E+00
    -11.951  0.0000E+00  0.0000E+00  0.2424E+00  0.2424E+00
    -11.745  0.0000E+00  0.0000E+00  0.2424E+00  0.2424E+00
    -11.539  0.0000E+00  0.0000E+00  0.2424E+00  0.2424E+00
    -11.333  0.7778E-18  0.7778E-18  0.2424E+00  0.2424E+00
    -11.127  0.6393E-05  0.6393E-05  0.2424E+00  0.2424E+00
    -10.921  0.5462E-02  0.5462E-02  0.2436E+00  0.2436E+00
    -10.715  0.1920E-01  0.1920E-01  0.2475E+00  0.2475E+00
    -10.509  0.2307E-01  0.2307E-01  0.2523E+00  0.2523E+00
    -10.303  0.2895E-01  0.2895E-01  0.2582E+00  0.2582E+00
    -10.097  0.4497E-01  0.4497E-01  0.2675E+00  0.2675E+00
     -9.891  0.3442E-01  0.3442E-01  0.2746E+00  0.2746E+00
     -9.685  0.3453E-01  0.3453E-01  0.2817E+00  0.2817E+00
     -9.479  0.5726E-01  0.5726E-01  0.2935E+00  0.2935E+00
     -9.273  0.9618E-01  0.9618E-01  0.3133E+00  0.3133E+00
     -9.067  0.4820E-01  0.4820E-01  0.3232E+00  0.3232E+00
     -8.861  0.4814E-04  0.4814E-04  0.3232E+00  0.3232E+00
     -8.655  0.0000E+00  0.0000E+00  0.3232E+00  0.3232E+00
     -8.449  0.0000E+00  0.0000E+00  0.3232E+00  0.3232E+00
     -8.243  0.0000E+00  0.0000E+00  0.3232E+00  0.3232E+00
     -8.037  0.0000E+00  0.0000E+00  0.3232E+00  0.3232E+00
     -7.831  0.0000E+00  0.0000E+00  0.3232E+00  0.3232E+00
     -7.625  0.0000E+00  0.0000E+00  0.3232E+00  0.3232E+00
     -7.419  0.0000E+00  0.0000E+00  0.3232E+00  0.3232E+00
     -7.213  0.0000E+00  0.0000E+00  0.3232E+00  0.3232E+00
     -7.007  0.0000E+00  0.0000E+00  0.3232E+00  0.3232E+00
     -6.801  0.0000E+00  0.0000E+00  0.3232E+00  0.3232E+00
     -6.595  0.0000E+00  0.0000E+00  0.3232E+00  0.3232E+00
     -6.389  0.0000E+00  0.0000E+00  0.3232E+00  0.3232E+00
     -6.183  0.0000E+00  0.0000E+00  0.3232E+00  0.3232E+00
     -5.977  0.0000E+00  0.0000E+00  0.3232E+00  0.3232E+00
     -5.771  0.0000E+00  0.0000E+00  0.3232E+00  0.3232E+00
     -5.565  0.0000E+00  0.0000E+00  0.3232E+00  0.3232E+00
     -5.359  0.0000E+00  0.0000E+00  0.3232E+00  0.3232E+00
     -5.153  0.0000E+00  0.0000E+00  0.3232E+00  0.3232E+00
     -4.947  0.0000E+00  0.0000E+00  0.3232E+00  0.3232E+00
     -4.741  0.0000E+00  0.0000E+00  0.3232E+00  0.3232E+00
     -4.535  0.0000E+00  0.0000E+00  0.3232E+00  0.3232E+00
     -4.329  0.0000E+00  0.0000E+00  0.3232E+00  0.3232E+00
     -4.124  0.0000E+00  0.0000E+00  0.3232E+00  0.3232E+00
     -3.918  0.0000E+00  0.0000E+00  0.3232E+00  0.3232E+00
     -3.712  0.0000E+00  0.0000E+00  0.3232E+00  0.3232E+00
     -3.506  0.0000E+00  0.0000E+00  0.3232E+00  0.3232E+00
     -3.300  0.0000E+00  0.0000E+00  0.3232E+00  0.3232E+00
     -3.094  0.5748E-06  0.5748E-06  0.3232E+00  0.3232E+00
     -2.888  0.1398E-02  0.1398E-02  0.3235E+00  0.3235E+00
     -2.682  0.4883E-02  0.4883E-02  0.3245E+00  0.3245E+00
     -2.476  0.7575E-02  0.7575E-02  0.3261E+00  0.3261E+00
     -2.270  0.1764E-01  0.1764E-01  0.3297E+00  0.3297E+00
     -2.064  0.4784E-01  0.4784E-01  0.3396E+00  0.3396E+00
     -1.858  0.5698E-01  0.5698E-01  0.3513E+00  0.3513E+00
     -1.652  0.4860E-01  0.4860E-01  0.3613E+00  0.3613E+00
     -1.446  0.4931E-01  0.4931E-01  0.3715E+00  0.3715E+00
     -1.240  0.3983E-01  0.3983E-01  0.3797E+00  0.3797E+00
     -1.034  0.5519E-01  0.5519E-01  0.3910E+00  0.3910E+00
     -0.828  0.6672E-01  0.6672E-01  0.4048E+00  0.4048E+00
     -0.622  0.8367E-01  0.8367E-01  0.4220E+00  0.4220E+00
     -0.416  0.8547E-01  0.8547E-01  0.4396E+00  0.4396E+00
     -0.210  0.5332E-01  0.5332E-01  0.4506E+00  0.4506E+00
     -0.004  0.1069E+00  0.1069E+00  0.4726E+00  0.4726E+00
      0.202  0.1177E+00  0.1177E+00  0.4969E+00  0.4969E+00
      0.408  0.5051E-01  0.5051E-01  0.5073E+00  0.5073E+00
      0.614  0.6334E-01  0.6334E-01  0.5203E+00  0.5203E+00
      0.820  0.4714E-01  0.4714E-01  0.5300E+00  0.5300E+00
      1.026  0.8511E-01  0.8511E-01  0.5475E+00  0.5475E+00
      1.232  0.1595E+00  0.1595E+00  0.5804E+00  0.5804E+00
      1.438  0.7386E-01  0.7386E-01  0.5956E+00  0.5956E+00
      1.644  0.8107E-01  0.8107E-01  0.6123E+00  0.6123E+00
      1.850  0.6717E-01  0.6717E-01  0.6262E+00  0.6262E+00
      2.056  0.6388E-01  0.6388E-01  0.6393E+00  0.6393E+00
      2.262  0.8483E-01  0.8483E-01  0.6568E+00  0.6568E+00
      2.468  0.1012E+00  0.1012E+00  0.6776E+00  0.6776E+00
      2.674  0.9202E-01  0.9202E-01  0.6966E+00  0.6966E+00
      2.880  0.1139E+00  0.1139E+00  0.7201E+00  0.7201E+00
      3.086  0.1315E+00  0.1315E+00  0.7471E+00  0.7471E+00
      3.292  0.1336E+00  0.1336E+00  0.7746E+00  0.7746E+00
      3.498  0.9098E-01  0.9098E-01  0.7934E+00  0.7934E+00
      3.704  0.6630E-01  0.6630E-01  0.8070E+00  0.8070E+00
      3.910  0.1330E+00  0.1330E+00  0.8344E+00  0.8344E+00
      4.116  0.9076E-01  0.9076E-01  0.8531E+00  0.8531E+00
      4.322  0.5683E-01  0.5683E-01  0.8648E+00  0.8648E+00
      4.528  0.5083E-01  0.5083E-01  0.8753E+00  0.8753E+00
      4.734  0.6809E-01  0.6809E-01  0.8893E+00  0.8893E+00
      4.940  0.1169E+00  0.1169E+00  0.9134E+00  0.9134E+00
      5.146  0.6223E-01  0.6223E-01  0.9262E+00  0.9262E+00
      5.352  0.2423E-01  0.2423E-01  0.9312E+00  0.9312E+00
      5.557  0.3505E-01  0.3505E-01  0.9385E+00  0.9385E+00
      5.763  0.7408E-01  0.7408E-01  0.9537E+00  0.9537E+00
      5.969  0.4635E-01  0.4635E-01  0.9633E+00  0.9633E+00
      6.175  0.2297E-01  0.2297E-01  0.9680E+00  0.9680E+00
      6.381  0.7876E-02  0.7797E-02  0.9696E+00  0.9696E+00
      6.587  0.3834E-03  0.4628E-03  0.9697E+00  0.9697E+00
      6.793  0.0000E+00  0.2328E-07  0.9697E+00  0.9697E+00
      6.999  0.0000E+00  0.0000E+00  0.9697E+00  0.9697E+00
      7.205  0.0000E+00  0.0000E+00  0.9697E+00  0.9697E+00
      7.411  0.0000E+00  0.0000E+00  0.9697E+00  0.9697E+00
      7.617  0.0000E+00  0.0000E+00  0.9697E+00  0.9697E+00
      7.823  0.0000E+00  0.0000E+00  0.9697E+00  0.9697E+00
      8.029  0.0000E+00  0.0000E+00  0.9697E+00  0.9697E+00
      8.235  0.0000E+00  0.0000E+00  0.9697E+00  0.9697E+00
      8.441  0.0000E+00  0.0000E+00  0.9697E+00  0.9697E+00
      8.647  0.0000E+00  0.0000E+00  0.9697E+00  0.9697E+00
      8.853  0.0000E+00  0.0000E+00  0.9697E+00  0.9697E+00
      9.059  0.0000E+00  0.0000E+00  0.9697E+00  0.9697E+00
      9.265  0.0000E+00  0.0000E+00  0.9697E+00  0.9697E+00
      9.26511901    -52.52854566  301      3.71305273      1.00000000
    -52.529  0.0000E+00  0.0000E+00  0.0000E+00  0.0000E+00  0.0000E+00  0.0000E+00  0.0000E+00  0.0000E+00  0.0000E+00  0.0000E+00  0.0000E+00  0.0000E+00  0.0000E+00  0.0000E+00  0.0000E+00  0.0000E+00  0.0000E+00  0.0000E+00
    -52.323  0.0000E+00  0.0000E+00  0.0000E+00  0.0000E+00  0.0000E+00  0.0000E+00  0.0000E+00  0.0000E+00  0.0000E+00  0.0000E+00  0.0000E+00  0.0000E+00  0.0000E+00  0.0000E+00  0.0000E+00  0.0000E+00  0.0000E+00  0.0000E+00
    -52.117  0.0000E+00  0.0000E+00  0.0000E+00  0.0000E+00  0.0000E+00  0.0000E+00  0.0000E+00  0.0000E+00  0.0000E+00  0.0000E+00  0.0000E+00  0.0000E+00  0.0000E+00  0.0000E+00  0.0000E+00  0.0000E+00  0.0000E+00  0.0000E+00
    -51.911  0.0000E+00  0.0000E+00  0.0000E+00  0.0000E+00  0.0000E+00  0.0000E+00  0.0000E+00  0.0000E+00  0.0000E+00  0.0000E+00  0.0000E+00  0.0000E+00  0.0000E+00  0.0000E+00  0.0000E+00  0.0000E+00  0.0000E+00  0.0000E+00
    -51.705  0.0000E+00  0.0000E+00  0.0000E+00  0.0000E+00  0.0000E+00  0.0000E+00  0.0000E+00  0.0000E+00  0.0000E+00  0.0000E+00  0.0000E+00  0.0000E+00  0.0000E+00  0.0000E+00  0.0000E+00  0.0000E+00  0.0000E+00  0.0000E+00
    -51.499  0.0000E+00  0.0000E+00  0.0000E+00  0.0000E+00  0.0000E+00  0.0000E+00  0.0000E+00  0.0000E+00  0.0000E+00  0.0000E+00  0.0000E+00  0.0000E+00  0.0000E+00  0.0000E+00  0.0000E+00  0.0000E+00  0.0000E+00  0.0000E+00
    -51.293  0.0000E+00  0.0000E+00  0.0000E+00  0.0000E+00  0.0000E+00  0.0000E+00  0.0000E+00  0.0000E+00  0.0000E+00  0.0000E+00  0.0000E+00  0.0000E+00  0.0000E+00  0.0000E+00  0.0000E+00  0.0000E+00  0.0000E+00  0.0000E+00
    -51.087  0.0000E+00  0.0000E+00  0.0000E+00  0.0000E+00  0.0000E+00  0.0000E+00  0.0000E+00  0.0000E+00  0.0000E+00  0.0000E+00  0.0000E+00  0.0000E+00  0.0000E+00  0.0000E+00  0.0000E+00  0.0000E+00  0.0000E+00  0.0000E+00
    -50.881  0.0000E+00  0.0000E+00  0.0000E+00  0.0000E+00  0.0000E+00  0.0000E+00  0.0000E+00  0.0000E+00  0.0000E+00  0.0000E+00  0.0000E+00  0.0000E+00  0.0000E+00  0.0000E+00  0.0000E+00  0.0000E+00  0.0000E+00  0.0000E+00
    -50.675  0.0000E+00  0.0000E+00  0.0000E+00  0.0000E+00  0.0000E+00  0.0000E+00  0.0000E+00  0.0000E+00  0.0000E+00  0.0000E+00  0.0000E+00  0.0000E+00  0.0000E+00  0.0000E+00  0.0000E+00  0.0000E+00  0.0000E+00  0.0000E+00
    -50.469  0.0000E+00  0.0000E+00  0.0000E+00  0.0000E+00  0.0000E+00  0.0000E+00  0.0000E+00  0.0000E+00  0.0000E+00  0.0000E+00  0.0000E+00  0.0000E+00  0.0000E+00  0.0000E+00  0.0000E+00  0.0000E+00  0.0000E+00  0.0000E+00
    -50.263  0.0000E+00  0.0000E+00  0.0000E+00  0.0000E+00  0.0000E+00  0.0000E+00  0.0000E+00  0.0000E+00  0.0000E+00  0.0000E+00  0.0000E+00  0.0000E+00  0.0000E+00  0.0000E+00  0.0000E+00  0.0000E+00  0.0000E+00  0.0000E+00
    -50.057  0.0000E+00  0.0000E+00  0.0000E+00  0.0000E+00  0.0000E+00  0.0000E+00  0.0000E+00  0.0000E+00  0.0000E+00  0.0000E+00  0.0000E+00  0.0000E+00  0.0000E+00  0.0000E+00  0.0000E+00  0.0000E+00  0.0000E+00  0.0000E+00
    -49.851  0.6773E-08  0.5905E-08  0.4900E-05  0.8822E-05  0.4770E-06  0.2271E-06  0.9412E-05  0.4179E-05  0.1601E-09  0.1330E-09  0.3765E-11  0.1795E-11  0.3270E-08  0.3109E-08  0.8778E-09  0.2491E-09  0.1894E-08  0.2022E-08
    -49.645  0.3581E-03  0.3527E-03  0.4899E+00  0.5026E+00  0.2381E-01  0.2309E-01  0.4824E+00  0.4654E+00  0.6672E-05  0.6444E-05  0.2111E-06  0.2017E-06  0.1773E-03  0.1786E-03  0.5299E-04  0.4379E-04  0.5121E-03  0.5020E-03
    -49.439  0.3896E-04  0.4276E-04  0.1396E+00  0.7194E-01  0.3201E-02  0.7226E-02  0.6505E-01  0.1504E+00  0.6612E-06  0.9090E-06  0.3179E-07  0.5726E-07  0.2123E-04  0.1985E-04  0.6087E-05  0.1384E-04  0.1444E-03  0.1532E-03
    -49.233  0.8837E-04  0.8919E-04  0.1890E+01  0.1862E+01  0.2269E+01  0.2312E+01  0.1913E+01  0.1932E+01  0.4265E-05  0.4110E-05  0.6527E-05  0.3516E-05  0.2027E-04  0.2049E-04  0.8009E-05  0.1068E-04  0.5954E-04  0.6014E-04
    -49.027  0.9437E-04  0.9502E-04  0.1757E+01  0.1841E+01  0.2515E+01  0.2471E+01  0.1852E+01  0.1763E+01  0.4181E-04  0.4143E-04  0.1817E-04  0.2113E-04  0.3485E-04  0.3478E-04  0.2456E-04  0.2275E-04  0.6730E-04  0.6762E-04
    -48.821  0.1587E-04  0.1645E-04  0.5583E+00  0.5579E+00  0.2349E-01  0.2204E-01  0.5228E+00  0.5245E+00  0.3725E-05  0.4244E-05  0.1358E-06  0.1806E-06  0.6084E-05  0.5946E-05  0.2191E-05  0.2925E-05  0.3859E-04  0.3893E-04
    -48.615  0.3762E-11  0.3998E-11  0.5047E-06  0.5104E-06  0.2028E-07  0.2067E-07  0.4568E-06  0.4931E-06  0.6304E-12  0.8845E-12  0.1730E-13  0.5446E-13  0.1537E-11  0.1463E-11  0.1373E-11  0.1796E-11  0.2942E-10  0.3226E-10
    -48.409  0.0000E+00  0.0000E+00  0.0000E+00  0.0000E+00  0.0000E+00  0.0000E+00  0.0000E+00  0.0000E+00  0.0000E+00  0.0000E+00  0.0000E+00  0.0000E+00  0.0000E+00  0.0000E+00  0.0000E+00  0.0000E+00  0.0000E+00  0.0000E+00
    -48.203  0.0000E+00  0.0000E+00  0.0000E+00  0.0000E+00  0.0000E+00  0.0000E+00  0.0000E+00  0.0000E+00  0.0000E+00  0.0000E+00  0.0000E+00  0.0000E+00  0.0000E+00  0.0000E+00  0.0000E+00  0.0000E+00  0.0000E+00  0.0000E+00
    -47.997  0.0000E+00  0.0000E+00  0.0000E+00  0.0000E+00  0.0000E+00  0.0000E+00  0.0000E+00  0.0000E+00  0.0000E+00  0.0000E+00  0.0000E+00  0.0000E+00  0.0000E+00  0.0000E+00  0.0000E+00  0.0000E+00  0.0000E+00  0.0000E+00
    -47.791  0.0000E+00  0.0000E+00  0.0000E+00  0.0000E+00  0.0000E+00  0.0000E+00  0.0000E+00  0.0000E+00  0.0000E+00  0.0000E+00  0.0000E+00  0.0000E+00  0.0000E+00  0.0000E+00  0.0000E+00  0.0000E+00  0.0000E+00  0.0000E+00
    -47.585  0.0000E+00  0.0000E+00  0.0000E+00  0.0000E+00  0.0000E+00  0.0000E+00  0.0000E+00  0.0000E+00  0.0000E+00  0.0000E+00  0.0000E+00  0.0000E+00  0.0000E+00  0.0000E+00  0.0000E+00  0.0000E+00  0.0000E+00  0.0000E+00
    -47.379  0.0000E+00  0.0000E+00  0.0000E+00  0.0000E+00  0.0000E+00  0.0000E+00  0.0000E+00  0.0000E+00  0.0000E+00  0.0000E+00  0.0000E+00  0.0000E+00  0.0000E+00  0.0000E+00  0.0000E+00  0.0000E+00  0.0000E+00  0.0000E+00
    -47.173  0.0000E+00  0.0000E+00  0.0000E+00  0.0000E+00  0.0000E+00  0.0000E+00  0.0000E+00  0.0000E+00  0.0000E+00  0.0000E+00  0.0000E+00  0.0000E+00  0.0000E+00  0.0000E+00  0.0000E+00  0.0000E+00  0.0000E+00  0.0000E+00
    -46.967  0.0000E+00  0.0000E+00  0.0000E+00  0.0000E+00  0.0000E+00  0.0000E+00  0.0000E+00  0.0000E+00  0.0000E+00  0.0000E+00  0.0000E+00  0.0000E+00  0.0000E+00  0.0000E+00  0.0000E+00  0.0000E+00  0.0000E+00  0.0000E+00
    -46.761  0.0000E+00  0.0000E+00  0.0000E+00  0.0000E+00  0.0000E+00  0.0000E+00  0.0000E+00  0.0000E+00  0.0000E+00  0.0000E+00  0.0000E+00  0.0000E+00  0.0000E+00  0.0000E+00  0.0000E+00  0.0000E+00  0.0000E+00  0.0000E+00
    -46.555  0.0000E+00  0.0000E+00  0.0000E+00  0.0000E+00  0.0000E+00  0.0000E+00  0.0000E+00  0.0000E+00  0.0000E+00  0.0000E+00  0.0000E+00  0.0000E+00  0.0000E+00  0.0000E+00  0.0000E+00  0.0000E+00  0.0000E+00  0.0000E+00
    -46.349  0.0000E+00  0.0000E+00  0.0000E+00  0.0000E+00  0.0000E+00  0.0000E+00  0.0000E+00  0.0000E+00  0.0000E+00  0.0000E+00  0.0000E+00  0.0000E+00  0.0000E+00  0.0000E+00  0.0000E+00  0.0000E+00  0.0000E+00  0.0000E+00
    -46.143  0.0000E+00  0.0000E+00  0.0000E+00  0.0000E+00  0.0000E+00  0.0000E+00  0.0000E+00  0.0000E+00  0.0000E+00  0.0000E+00  0.0000E+00  0.0000E+00  0.0000E+00  0.0000E+00  0.0000E+00  0.0000E+00  0.0000E+00  0.0000E+00
    -45.937  0.0000E+00  0.0000E+00  0.0000E+00  0.0000E+00  0.0000E+00  0.0000E+00  0.0000E+00  0.0000E+00  0.0000E+00  0.0000E+00  0.0000E+00  0.0000E+00  0.0000E+00  0.0000E+00  0.0000E+00  0.0000E+00  0.0000E+00  0.0000E+00
    -45.731  0.0000E+00  0.0000E+00  0.0000E+00  0.0000E+00  0.0000E+00  0.0000E+00  0.0000E+00  0.0000E+00  0.0000E+00  0.0000E+00  0.0000E+00  0.0000E+00  0.0000E+00  0.0000E+00  0.0000E+00  0.0000E+00  0.0000E+00  0.0000E+00
    -45.525  0.0000E+00  0.0000E+00  0.0000E+00  0.0000E+00  0.0000E+00  0.0000E+00  0.0000E+00  0.0000E+00  0.0000E+00  0.0000E+00  0.0000E+00  0.0000E+00  0.0000E+00  0.0000E+00  0.0000E+00  0.0000E+00  0.0000E+00  0.0000E+00
    -45.319  0.0000E+00  0.0000E+00  0.0000E+00  0.0000E+00  0.0000E+00  0.0000E+00  0.0000E+00  0.0000E+00  0.0000E+00  0.0000E+00  0.0000E+00  0.0000E+00  0.0000E+00  0.0000E+00  0.0000E+00  0.0000E+00  0.0000E+00  0.0000E+00
    -45.113  0.0000E+00  0.0000E+00  0.0000E+00  0.0000E+00  0.0000E+00  0.0000E+00  0.0000E+00  0.0000E+00  0.0000E+00  0.0000E+00  0.0000E+00  0.0000E+00  0.0000E+00  0.0000E+00  0.0000E+00  0.0000E+00  0.0000E+00  0.0000E+00
    -44.907  0.0000E+00  0.0000E+00  0.0000E+00  0.0000E+00  0.0000E+00  0.0000E+00  0.0000E+00  0.0000E+00  0.0000E+00  0.0000E+00  0.0000E+00  0.0000E+00  0.0000E+00  0.0000E+00  0.0000E+00  0.0000E+00  0.0000E+00  0.0000E+00
    -44.701  0.0000E+00  0.0000E+00  0.0000E+00  0.0000E+00  0.0000E+00  0.0000E+00  0.0000E+00  0.0000E+00  0.0000E+00  0.0000E+00  0.0000E+00  0.0000E+00  0.0000E+00  0.0000E+00  0.0000E+00  0.0000E+00  0.0000E+00  0.0000E+00
    -44.495  0.0000E+00  0.0000E+00  0.0000E+00  0.0000E+00  0.0000E+00  0.0000E+00  0.0000E+00  0.0000E+00  0.0000E+00  0.0000E+00  0.0000E+00  0.0000E+00  0.0000E+00  0.0000E+00  0.0000E+00  0.0000E+00  0.0000E+00  0.0000E+00
    -44.289  0.0000E+00  0.0000E+00  0.0000E+00  0.0000E+00  0.0000E+00  0.0000E+00  0.0000E+00  0.0000E+00  0.0000E+00  0.0000E+00  0.0000E+00  0.0000E+00  0.0000E+00  0.0000E+00  0.0000E+00  0.0000E+00  0.0000E+00  0.0000E+00
    -44.083  0.0000E+00  0.0000E+00  0.0000E+00  0.0000E+00  0.0000E+00  0.0000E+00  0.0000E+00  0.0000E+00  0.0000E+00  0.0000E+00  0.0000E+00  0.0000E+00  0.0000E+00  0.0000E+00  0.0000E+00  0.0000E+00  0.0000E+00  0.0000E+00
    -43.877  0.0000E+00  0.0000E+00  0.0000E+00  0.0000E+00  0.0000E+00  0.0000E+00  0.0000E+00  0.0000E+00  0.0000E+00  0.0000E+00  0.0000E+00  0.0000E+00  0.0000E+00  0.0000E+00  0.0000E+00  0.0000E+00  0.0000E+00  0.0000E+00
    -43.671  0.0000E+00  0.0000E+00  0.0000E+00  0.0000E+00  0.0000E+00  0.0000E+00  0.0000E+00  0.0000E+00  0.0000E+00  0.0000E+00  0.0000E+00  0.0000E+00  0.0000E+00  0.0000E+00  0.0000E+00  0.0000E+00  0.0000E+00  0.0000E+00
    -43.465  0.0000E+00  0.0000E+00  0.0000E+00  0.0000E+00  0.0000E+00  0.0000E+00  0.0000E+00  0.0000E+00  0.0000E+00  0.0000E+00  0.0000E+00  0.0000E+00  0.0000E+00  0.0000E+00  0.0000E+00  0.0000E+00  0.0000E+00  0.0000E+00
    -43.259  0.0000E+00  0.0000E+00  0.0000E+00  0.0000E+00  0.0000E+00  0.0000E+00  0.0000E+00  0.0000E+00  0.0000E+00  0.0000E+00  0.0000E+00  0.0000E+00  0.0000E+00  0.0000E+00  0.0000E+00  0.0000E+00  0.0000E+00  0.0000E+00
    -43.054  0.0000E+00  0.0000E+00  0.0000E+00  0.0000E+00  0.0000E+00  0.0000E+00  0.0000E+00  0.0000E+00  0.0000E+00  0.0000E+00  0.0000E+00  0.0000E+00  0.0000E+00  0.0000E+00  0.0000E+00  0.0000E+00  0.0000E+00  0.0000E+00
    -42.848  0.0000E+00  0.0000E+00  0.0000E+00  0.0000E+00  0.0000E+00  0.0000E+00  0.0000E+00  0.0000E+00  0.0000E+00  0.0000E+00  0.0000E+00  0.0000E+00  0.0000E+00  0.0000E+00  0.0000E+00  0.0000E+00  0.0000E+00  0.0000E+00
    -42.642  0.0000E+00  0.0000E+00  0.0000E+00  0.0000E+00  0.0000E+00  0.0000E+00  0.0000E+00  0.0000E+00  0.0000E+00  0.0000E+00  0.0000E+00  0.0000E+00  0.0000E+00  0.0000E+00  0.0000E+00  0.0000E+00  0.0000E+00  0.0000E+00
    -42.436  0.0000E+00  0.0000E+00  0.0000E+00  0.0000E+00  0.0000E+00  0.0000E+00  0.0000E+00  0.0000E+00  0.0000E+00  0.0000E+00  0.0000E+00  0.0000E+00  0.0000E+00  0.0000E+00  0.0000E+00  0.0000E+00  0.0000E+00  0.0000E+00
    -42.230  0.0000E+00  0.0000E+00  0.0000E+00  0.0000E+00  0.0000E+00  0.0000E+00  0.0000E+00  0.0000E+00  0.0000E+00  0.0000E+00  0.0000E+00  0.0000E+00  0.0000E+00  0.0000E+00  0.0000E+00  0.0000E+00  0.0000E+00  0.0000E+00