Automatically generated mesh
     221
Reciprocal lattice
    0.00000000000000    0.00000000000000    0.00000000000000             1
    0.14285714285715    0.00000000000000   -0.00000000000000             2
    0.28571428571428    0.00000000000000   -0.00000000000000             2
    0.42857142857143   -0.00000000000000   -0.00000000000000             2
   -0.00000000000000    0.14285714285715   -0.00000000000000             2
    0.14285714285715    0.14285714285715   -0.00000000000000             2
    0.28571428571428    0.14285714285715    0.00000000000000             2
    0.42857142857143    0.14285714285715    0.00000000000000             2
   -0.42857142857143    0.14285714285715    0.00000000000000             2
   -0.28571428571428    0.14285714285715    0.00000000000000             2
   -0.14285714285715    0.14285714285715   -0.00000000000000             2
   -0.00000000000000    0.28571428571428   -0.00000000000000             2
    0.14285714285715    0.28571428571428    0.00000000000000             2
    0.28571428571428    0.28571428571428    0.00000000000000             2
    0.42857142857143    0.28571428571428    0.00000000000000             2
   -0.42857142857143    0.28571428571428   -0.00000000000000             2
   -0.28571428571428    0.28571428571428   -0.00000000000000             2
   -0.14285714285715    0.28571428571428   -0.00000000000000             2
   -0.00000000000000    0.42857142857143    0.00000000000000             2
    0.14285714285715    0.42857142857143    0.00000000000000             2
    0.28571428571428    0.42857142857143    0.00000000000000             2
    0.42857142857143    0.42857142857143   -0.00000000000000             2
   -0.42857142857143    0.42857142857143   -0.00000000000000             2
   -0.28571428571428    0.42857142857143   -0.00000000000000             2
   -0.14285714285715    0.42857142857143    0.00000000000000             2
    0.00000000000000   -0.00000000000000    0.11111111111111             2
    0.14285714285715    0.00000000000000    0.11111111111111             2
    0.28571428571428    0.00000000000000    0.11111111111111             2
    0.42857142857143    0.00000000000000    0.11111111111111             2
   -0.42857142857143   -0.00000000000000    0.11111111111111             2
   -0.28571428571428    0.00000000000000    0.11111111111111             2
   -0.14285714285715    0.00000000000000    0.11111111111111             2
   -0.00000000000000    0.14285714285715    0.11111111111111             2
    0.14285714285715    0.14285714285715    0.11111111111111             2
    0.28571428571428    0.14285714285715    0.11111111111111             2
    0.42857142857143    0.14285714285715    0.11111111111111             2
   -0.42857142857143    0.14285714285715    0.11111111111111             2
   -0.28571428571428    0.14285714285715    0.11111111111111             2
   -0.14285714285715    0.14285714285715    0.11111111111111             2
   -0.00000000000000    0.28571428571428    0.11111111111111             2
    0.14285714285715    0.28571428571428    0.11111111111111             2
    0.28571428571428    0.28571428571428    0.11111111111111             2
    0.42857142857143    0.28571428571428    0.11111111111111             2
   -0.42857142857143    0.28571428571428    0.11111111111111             2
   -0.28571428571428    0.28571428571428    0.11111111111111             2
   -0.14285714285715    0.28571428571428    0.11111111111111             2
   -0.00000000000000    0.42857142857143    0.11111111111111             2
    0.14285714285715    0.42857142857143    0.11111111111111             2
    0.28571428571428    0.42857142857143    0.11111111111111             2
    0.42857142857143    0.42857142857143    0.11111111111111             2
   -0.42857142857143    0.42857142857143    0.11111111111111             2
   -0.28571428571428    0.42857142857143    0.11111111111111             2
   -0.14285714285715    0.42857142857143    0.11111111111111             2
    0.00000000000000   -0.42857142857143    0.11111111111111             2
    0.14285714285715   -0.42857142857143    0.11111111111111             2
    0.28571428571428   -0.42857142857143    0.11111111111111             2
    0.42857142857143   -0.42857142857143    0.11111111111111             2
   -0.42857142857143   -0.42857142857143    0.11111111111111             2
   -0.28571428571428   -0.42857142857143    0.11111111111111             2
   -0.14285714285715   -0.42857142857143    0.11111111111111             2
    0.00000000000000   -0.28571428571428    0.11111111111111             2
    0.14285714285715   -0.28571428571428    0.11111111111111             2
    0.28571428571428   -0.28571428571428    0.11111111111111             2
    0.42857142857143   -0.28571428571428    0.11111111111111             2
   -0.42857142857143   -0.28571428571428    0.11111111111111             2
   -0.28571428571428   -0.28571428571428    0.11111111111111             2
   -0.14285714285715   -0.28571428571428    0.11111111111110             2
    0.00000000000000   -0.14285714285715    0.11111111111111             2
    0.14285714285715   -0.14285714285715    0.11111111111111             2
    0.28571428571428   -0.14285714285715    0.11111111111111             2
    0.42857142857143   -0.14285714285715    0.11111111111111             2
   -0.42857142857143   -0.14285714285715    0.11111111111111             2
   -0.28571428571428   -0.14285714285715    0.11111111111111             2
   -0.14285714285715   -0.14285714285715    0.11111111111112             2
    0.00000000000000   -0.00000000000000    0.22222222222222             2
    0.14285714285715   -0.00000000000000    0.22222222222222             2
    0.28571428571428   -0.00000000000000    0.22222222222222             2
    0.42857142857143    0.00000000000000    0.22222222222222             2
   -0.42857142857143   -0.00000000000000    0.22222222222222             2
   -0.28571428571428    0.00000000000000    0.22222222222222             2
   -0.14285714285715   -0.00000000000000    0.22222222222222             2
    0.00000000000000    0.14285714285715    0.22222222222222             2
    0.14285714285715    0.14285714285715    0.22222222222222             2
    0.28571428571428    0.14285714285715    0.22222222222222             2
    0.42857142857143    0.14285714285715    0.22222222222223             2
   -0.42857142857143    0.14285714285715    0.22222222222222             2
   -0.28571428571428    0.14285714285715    0.22222222222222             2
   -0.14285714285715    0.14285714285715    0.22222222222222             2
   -0.00000000000000    0.28571428571428    0.22222222222222             2
    0.14285714285715    0.28571428571428    0.22222222222223             2
    0.28571428571428    0.28571428571428    0.22222222222222             2
    0.42857142857143    0.28571428571428    0.22222222222222             2
   -0.42857142857143    0.28571428571428    0.22222222222222             2
   -0.28571428571428    0.28571428571428    0.22222222222222             2
   -0.14285714285715    0.28571428571428    0.22222222222222             2
   -0.00000000000000    0.42857142857143    0.22222222222222             2
    0.14285714285715    0.42857142857143    0.22222222222222             2
    0.28571428571428    0.42857142857143    0.22222222222222             2
    0.42857142857143    0.42857142857143    0.22222222222222             2
   -0.42857142857143    0.42857142857143    0.22222222222222             2
   -0.28571428571428    0.42857142857143    0.22222222222222             2
   -0.14285714285715    0.42857142857143    0.22222222222222             2
    0.00000000000000   -0.42857142857143    0.22222222222222             2
    0.14285714285715   -0.42857142857143    0.22222222222222             2
    0.28571428571428   -0.42857142857143    0.22222222222222             2
    0.42857142857143   -0.42857142857143    0.22222222222222             2
   -0.42857142857143   -0.42857142857143    0.22222222222222             2
   -0.28571428571428   -0.42857142857143    0.22222222222222             2
   -0.14285714285715   -0.42857142857143    0.22222222222223             2
    0.00000000000000   -0.28571428571428    0.22222222222222             2
    0.14285714285715   -0.28571428571428    0.22222222222222             2
    0.28571428571428   -0.28571428571428    0.22222222222222             2
    0.42857142857143   -0.28571428571428    0.22222222222222             2
   -0.42857142857143   -0.28571428571428    0.22222222222222             2
   -0.28571428571428   -0.28571428571428    0.22222222222222             2
   -0.14285714285715   -0.28571428571428    0.22222222222222             2
    0.00000000000000   -0.14285714285715    0.22222222222222             2
    0.14285714285715   -0.14285714285715    0.22222222222222             2
    0.28571428571428   -0.14285714285715    0.22222222222222             2
    0.42857142857143   -0.14285714285715    0.22222222222222             2
   -0.42857142857143   -0.14285714285715    0.22222222222223             2
   -0.28571428571428   -0.14285714285715    0.22222222222222             2
   -0.14285714285715   -0.14285714285715    0.22222222222222             2
    0.00000000000000   -0.00000000000000    0.33333333333333             2
    0.14285714285715   -0.00000000000000    0.33333333333334             2
    0.28571428571428   -0.00000000000000    0.33333333333333             2
    0.42857142857143    0.00000000000000    0.33333333333333             2
   -0.42857142857143   -0.00000000000000    0.33333333333333             2
   -0.28571428571428   -0.00000000000000    0.33333333333333             2
   -0.14285714285715   -0.00000000000000    0.33333333333333             2
   -0.00000000000000    0.14285714285715    0.33333333333334             2
    0.14285714285715    0.14285714285715    0.33333333333334             2
    0.28571428571428    0.14285714285715    0.33333333333333             2
    0.42857142857143    0.14285714285715    0.33333333333333             2
   -0.42857142857143    0.14285714285715    0.33333333333333             2
   -0.28571428571428    0.14285714285715    0.33333333333333             2
   -0.14285714285715    0.14285714285715    0.33333333333334             2
   -0.00000000000000    0.28571428571428    0.33333333333333             2
    0.14285714285715    0.28571428571428    0.33333333333333             2
    0.28571428571428    0.28571428571428    0.33333333333333             2
    0.42857142857143    0.28571428571428    0.33333333333333             2
   -0.42857142857143    0.28571428571428    0.33333333333333             2
   -0.28571428571428    0.28571428571428    0.33333333333334             2
   -0.14285714285715    0.28571428571428    0.33333333333333             2
   -0.00000000000000    0.42857142857143    0.33333333333333             2
    0.14285714285715    0.42857142857143    0.33333333333333             2
    0.28571428571428    0.42857142857143    0.33333333333333             2
    0.42857142857143    0.42857142857143    0.33333333333334             2
   -0.42857142857143    0.42857142857143    0.33333333333333             2
   -0.28571428571428    0.42857142857143    0.33333333333333             2
   -0.14285714285715    0.42857142857143    0.33333333333333             2
    0.00000000000000   -0.42857142857143    0.33333333333333             2
    0.14285714285715   -0.42857142857143    0.33333333333333             2
    0.28571428571428   -0.42857142857143    0.33333333333333             2
    0.42857142857143   -0.42857142857143    0.33333333333333             2
   -0.42857142857143   -0.42857142857143    0.33333333333334             2
   -0.28571428571428   -0.42857142857143    0.33333333333333             2
   -0.14285714285715   -0.42857142857143    0.33333333333334             2
    0.00000000000000   -0.28571428571428    0.33333333333333             2
    0.14285714285715   -0.28571428571428    0.33333333333333             2
    0.28571428571428   -0.28571428571428    0.33333333333333             2
    0.42857142857143   -0.28571428571428    0.33333333333333             2
   -0.42857142857143   -0.28571428571428    0.33333333333333             2
   -0.28571428571428   -0.28571428571428    0.33333333333333             2
   -0.14285714285715   -0.28571428571428    0.33333333333333             2
    0.00000000000000   -0.14285714285715    0.33333333333333             2
    0.14285714285715   -0.14285714285715    0.33333333333333             2
    0.28571428571428   -0.14285714285715    0.33333333333333             2
    0.42857142857143   -0.14285714285715    0.33333333333333             2
   -0.42857142857143   -0.14285714285715    0.33333333333333             2
   -0.28571428571428   -0.14285714285715    0.33333333333333             2
   -0.14285714285715   -0.14285714285715    0.33333333333334             2
    0.00000000000000   -0.00000000000000    0.44444444444444             2
    0.14285714285715   -0.00000000000000    0.44444444444444             2
    0.28571428571428   -0.00000000000000    0.44444444444444             2
    0.42857142857143    0.00000000000000    0.44444444444444             2
   -0.42857142857143   -0.00000000000000    0.44444444444445             2
   -0.28571428571428   -0.00000000000000    0.44444444444445             2
   -0.14285714285715   -0.00000000000000    0.44444444444445             2
    0.00000000000000    0.14285714285715    0.44444444444444             2
    0.14285714285715    0.14285714285715    0.44444444444444             2
    0.28571428571428    0.14285714285715    0.44444444444444             2
    0.42857142857143    0.14285714285715    0.44444444444445             2
   -0.42857142857143    0.14285714285715    0.44444444444445             2
   -0.28571428571428    0.14285714285715    0.44444444444445             2
   -0.14285714285715    0.14285714285715    0.44444444444444             2
   -0.00000000000000    0.28571428571428    0.44444444444444             2
    0.14285714285715    0.28571428571428    0.44444444444445             2
    0.28571428571428    0.28571428571428    0.44444444444445             2
    0.42857142857143    0.28571428571428    0.44444444444445             2
   -0.42857142857143    0.28571428571428    0.44444444444444             2
   -0.28571428571428    0.28571428571428    0.44444444444444             2
   -0.14285714285715    0.28571428571428    0.44444444444444             2
   -0.00000000000000    0.42857142857143    0.44444444444445             2
    0.14285714285715    0.42857142857143    0.44444444444445             2
    0.28571428571428    0.42857142857143    0.44444444444445             2
    0.42857142857143    0.42857142857143    0.44444444444444             2
   -0.42857142857143    0.42857142857143    0.44444444444444             2
   -0.28571428571428    0.42857142857143    0.44444444444444             2
   -0.14285714285715    0.42857142857143    0.44444444444444             2
    0.00000000000000   -0.42857142857143    0.44444444444444             2
    0.14285714285715   -0.42857142857143    0.44444444444444             2
    0.28571428571428   -0.42857142857143    0.44444444444444             2
    0.42857142857143   -0.42857142857143    0.44444444444444             2
   -0.42857142857143   -0.42857142857143    0.44444444444444             2
   -0.28571428571428   -0.42857142857143    0.44444444444444             2
   -0.14285714285715   -0.42857142857143    0.44444444444445             2
    0.00000000000000   -0.28571428571428    0.44444444444444             2
    0.14285714285715   -0.28571428571428    0.44444444444444             2
    0.28571428571428   -0.28571428571428    0.44444444444444             2
    0.42857142857143   -0.28571428571428    0.44444444444445             2
   -0.42857142857143   -0.28571428571428    0.44444444444444             2
   -0.28571428571428   -0.28571428571428    0.44444444444444             2
   -0.14285714285715   -0.28571428571428    0.44444444444444             2
    0.00000000000000   -0.14285714285715    0.44444444444444             2
    0.14285714285715   -0.14285714285715    0.44444444444444             2
    0.28571428571428   -0.14285714285715    0.44444444444444             2
    0.42857142857143   -0.14285714285715    0.44444444444444             2
   -0.42857142857143   -0.14285714285715    0.44444444444445             2
   -0.28571428571428   -0.14285714285715    0.44444444444444             2
   -0.14285714285715   -0.14285714285715    0.44444444444445             2
Tetrahedra
      1320    0.00037792894936
         2        39        40        46        89
         2        33        39        40        89
         2        33        39        82        89
         2        39        46        89        95
         2        39        88        89        95
         2        39        82        88        89
         2        46        47        53        96
         2        40        46        47        96
         2        40        46        89        96
         2        46        53        96       102
         2        46        95        96       102
         2        46        89        95        96
         2        53        54        60       103
         2        47        53        54       103
         2        47        53        96       103
         2        53        60       103       109
         2        53       102       103       109
         2        53        96       102       103
         2        60        61        67       110
         2        54        60        61       110
         2        54        60       103       110
         2        60        67       110       116
         2        60       109       110       116
         2        60       103       109       110
         2        67        68        74       117
         2        61        67        68       117
         2        61        67       110       117
         2        67        74       117       123
         2        67       116       117       123
         2        67       110       116       117
         2        26        32        74        75
         2        26        68        74        75
         2        68        74        75       117
         2        32        74        75        81
         2        74        75        81       123
         2        74        75       117       123
         2        32        33        39        82
         2        26        32        33        82
         2        26        32        75        82
         2        32        39        82        88
         2        32        81        82        88
         2        32        75        81        82
         2        87        94        95       144
         2        87        88        95       144
         2        87        88       137       144
         2        87        94       143       144
         2        87       136       143       144
         2        87       136       137       144
         2        94       101       102       151
         2        94        95       102       151
         2        94        95       144       151
         2        94       101       150       151
         2        94       143       150       151
         2        94       143       144       151
         2       101       108       109       158
         2       101       102       109       158
         2       101       102       151       158
         2       101       108       157       158
         2       101       150       157       158
         2       101       150       151       158
         2       108       115       116       165
         2       108       109       116       165
         2       108       109       158       165
         2       108       115       164       165
         2       108       157       164       165
         2       108       157       158       165
         2       115       122       123       172
         2       115       116       123       172
         2       115       116       165       172
         2       115       122       171       172
         2       115       164       171       172
         2       115       164       165       172
         2        80        81       122       130
         2        81       122       123       130
         2       122       123       130       172
         2        80       122       129       130
         2       122       129       130       171
         2       122       130       171       172
         2        80        87        88       137
         2        80        81        88       137
         2        80        81       130       137
         2        80        87       136       137
         2        80       129       136       137
         2        80       129       130       137
         2       135       142       143       192
         2       135       136       143       192
         2       135       136       185       192
         2       135       142       191       192
         2       135       184       191       192
         2       135       184       185       192
         2       142       149       150       199
         2       142       143       150       199
         2       142       143       192       199
         2       142       149       198       199
         2       142       191       198       199
         2       142       191       192       199
         2       149       156       157       206
         2       149       150       157       206
         2       149       150       199       206
         2       149       156       205       206
         2       149       198       205       206
         2       149       198       199       206
         2       156       163       164       213
         2       156       157       164       213
         2       156       157       206       213
         2       156       163       212       213
         2       156       205       212       213
         2       156       205       206       213
         2       163       170       171       220
         2       163       164       171       220
         2       163       164       213       220
         2       163       170       219       220
         2       163       212       219       220
         2       163       212       213       220
         2       128       129       170       178
         2       129       170       171       178
         2       170       171       178       220
         2       128       170       177       178
         2       170       177       178       219
         2       170       178       219       220
         2       128       135       136       185
         2       128       129       136       185
         2       128       129       178       185
         2       128       135       184       185
         2       128       177       184       185
         2       128       177       178       185
         2       183       190       191       211
         2       183       184       191       211
         2       183       184       211       218
         2       183       190       211       212
         2       183       211       212       219
         2       183       211       218       219
         2       190       197       198       204
         2       190       191       198       204
         2       190       191       204       211
         2       190       197       204       205
         2       190       204       205       212
         2       190       204       211       212
         2       197       197       204       205
         2       197       197       198       205
         2       197       197       198       204
         4       176       176       177       218
         2       176       177       218       219
         2       176       183       218       219
         2       176       177       184       218
         2       176       183       184       218
         2        12        61        62        69
         2        12        61        68        69
         2         5        12        68        69
         2        12        18        62        69
         2        11        12        18        69
         2         5        11        12        69
         2        19        54        55        62
         2        19        54        61        62
         2        12        19        61        62
         2        19        25        55        62
         2        18        19        25        62
         2        12        18        19        62
         2        19        47        48        55
         2        19        47        54        55
         2        19        19        54        55
         2        19        20        48        55
         2        19        20        25        55
         2        19        19        25        55
         2        12        40        41        48
         2        12        40        47        48
         2        12        19        47        48
         2        12        13        41        48
         2        12        13        20        48
         2        12        19        20        48
         2         5        33        34        41
         2         5        33        40        41
         2         5        12        40        41
         2         5         6        34        41
         2         5         6        13        41
         2         5        12        13        41
         2         1        26        27        34
         2         1        26        33        34
         2         1         5        33        34
         2         1         2        27        34
         2         1         2         6        34
         2         1         5         6        34
         2         5        27        68        69
         2         5        26        27        68
         2         1         5        26        27
         2         5        11        27        69
         2         2         5        11        27
         2         1         2         5        27
         2        10        17        18        46
         2        10        11        18        46
         2        10        11        39        46
         2        10        17        45        46
         2        10        38        45        46
         2        10        38        39        46
         2        17        24        25        53
         2        17        18        25        53
         2        17        18        46        53
         2        17        24        52        53
         2        17        45        52        53
         2        17        45        46        53
         2        20        21        24        60
         2        20        24        25        60
         2        24        25        53        60
         2        21        24        59        60
         2        24        52        59        60
         2        24        52        53        60
         2        13        14        21        67
         2        13        20        21        67
         2        20        21        60        67
         2        14        21        66        67
         2        21        59        66        67
         2        21        59        60        67
         2         6         7        14        74
         2         6        13        14        74
         2        13        14        67        74
         2         7        14        73        74
         2        14        66        73        74
         2        14        66        67        74
         2         2         3         7        32
         2         2         6         7        32
         2         6         7        32        74
         2         3         7        31        32
         2         7        31        32        73
         2         7        32        73        74
         2         3        10        11        39
         2         2         3        11        39
         2         2         3        32        39
         2         3        10        38        39
         2         3        31        38        39
         2         3        31        32        39
         2        37        44        45        94
         2        37        38        45        94
         2        37        38        87        94
         2        37        44        93        94
         2        37        86        93        94
         2        37        86        87        94
         2        44        51        52       101
         2        44        45        52       101
         2        44        45        94       101
         2        44        51       100       101
         2        44        93       100       101
         2        44        93        94       101
         2        51        58        59       108
         2        51        52        59       108
         2        51        52       101       108
         2        51        58       107       108
         2        51       100       107       108
         2        51       100       101       108
         2        58        65        66       115
         2        58        59        66       115
         2        58        59       108       115
         2        58        65       114       115
         2        58       107       114       115
         2        58       107       108       115
         2        65        72        73       122
         2        65        66        73       122
         2        65        66       115       122
         2        65        72       121       122
         2        65       114       121       122
         2        65       114       115       122
         2        30        31        72        80