       N       E                     dE             d eps       ncg     rms          rms(c)
DAV:   1     0.196586841706E+04    0.19659E+04   -0.90504E+04 90576   0.207E+03
DAV:   2     0.933134012879E+02   -0.18726E+04   -0.18399E+04 84888   0.590E+02
DAV:   3    -0.943074798771E+02   -0.18762E+03   -0.18151E+03124392   0.186E+02
DAV:   4    -0.104921440156E+03   -0.10614E+02   -0.10564E+02121224   0.457E+01
DAV:   5    -0.105208143147E+03   -0.28670E+00   -0.28636E+00113352   0.704E+00    0.258E+01
RMM:   6    -0.112481896006E+03   -0.72738E+01   -0.13437E+02 85482   0.813E+01    0.382E+01
RMM:   7    -0.964799205371E+02    0.16002E+02   -0.36384E+01 85002   0.475E+01    0.113E+01
RMM:   8    -0.995762328433E+02   -0.30963E+01   -0.77027E+00 96944   0.140E+01    0.272E+01
RMM:   9    -0.959343841065E+02    0.36418E+01   -0.54203E+00 93051   0.130E+01    0.221E+00
RMM:  10    -0.962532753984E+02   -0.31889E+00   -0.20098E+00138199   0.411E+00    0.619E+00
RMM:  11    -0.961781087141E+02    0.75167E-01   -0.29494E-01127389   0.183E+00    0.302E+00
RMM:  12    -0.961831042036E+02   -0.49955E-02   -0.84634E-02140607   0.675E-01    0.303E+00
RMM:  13    -0.963135566910E+02   -0.13045E+00   -0.20934E-01139025   0.240E+00    0.417E+00
RMM:  14    -0.961221154425E+02    0.19144E+00   -0.52710E-01155263   0.372E+00    0.249E+00
RMM:  15    -0.961465151741E+02   -0.24400E-01   -0.24757E-02115951   0.706E-01    0.268E+00
RMM:  16    -0.960918613198E+02    0.54654E-01   -0.59390E-02137199   0.121E+00    0.110E+00
RMM:  17    -0.960877023043E+02    0.41590E-02   -0.15226E-02111860   0.621E-01    0.697E-01
RMM:  18    -0.960924722042E+02   -0.47699E-02   -0.18768E-02123636   0.787E-01    0.490E-01
RMM:  19    -0.960924210515E+02    0.51153E-04   -0.41322E-03108667   0.289E-01    0.145E-01
RMM:  20    -0.960929175127E+02   -0.49646E-03   -0.95095E-04 76562   0.158E-01    0.239E-01
RMM:  21    -0.960932115940E+02   -0.29408E-03   -0.66422E-04 64798   0.135E-01    0.212E-01
RMM:  22    -0.960931991096E+02    0.12484E-04   -0.98614E-04 70327   0.132E-01
   1 F= -.10158832E+03 E0= -.10158832E+03  d E =0.000000E+00  mag=    -0.0000
