       N       E                     dE             d eps       ncg     rms          rms(c)
DAV:   1     0.196631271030E+04    0.19663E+04   -0.90516E+04 91224   0.207E+03
DAV:   2     0.934290088317E+02   -0.18729E+04   -0.18400E+04 84936   0.589E+02
DAV:   3    -0.942679647619E+02   -0.18770E+03   -0.18151E+03124872   0.185E+02
DAV:   4    -0.104900112254E+03   -0.10632E+02   -0.10574E+02120288   0.455E+01
DAV:   5    -0.105196506481E+03   -0.29639E+00   -0.29585E+00113784   0.720E+00    0.258E+01
RMM:   6    -0.112318020210E+03   -0.71215E+01   -0.13338E+02 84874   0.811E+01    0.380E+01
RMM:   7    -0.965389053570E+02    0.15779E+02   -0.35996E+01 85005   0.472E+01    0.118E+01
RMM:   8    -0.993702369378E+02   -0.28313E+01   -0.73699E+00 95564   0.138E+01    0.261E+01
RMM:   9    -0.959423891730E+02    0.34278E+01   -0.53391E+00 91680   0.129E+01    0.180E+00
RMM:  10    -0.961625907881E+02   -0.22020E+00   -0.19518E+00125813   0.399E+00    0.428E+00
RMM:  11    -0.961338792952E+02    0.28711E-01   -0.27946E-01119854   0.168E+00    0.194E+00
RMM:  12    -0.961279260122E+02    0.59533E-02   -0.14276E-01 86233   0.232E+00    0.219E+00
RMM:  13    -0.961197325934E+02    0.81934E-02   -0.64008E-02 99999   0.770E-01    0.182E+00
RMM:  14    -0.961012642391E+02    0.18468E-01   -0.49746E-02 95448   0.128E+00    0.463E-01
RMM:  15    -0.961067148259E+02   -0.54506E-02   -0.15762E-02110430   0.478E-01    0.473E-01
RMM:  16    -0.961071061887E+02   -0.39136E-03   -0.39554E-03 96773   0.213E-01    0.481E-01
RMM:  17    -0.961048299242E+02    0.22763E-02   -0.55283E-03102655   0.407E-01    0.359E-01
RMM:  18    -0.961044050139E+02    0.42491E-03   -0.14705E-03 77765   0.182E-01    0.108E-01
RMM:  19    -0.961044442749E+02   -0.39261E-04   -0.79435E-04 64412   0.108E-01
   1 F= -.10159992E+03 E0= -.10158542E+03  d E =-.101600E+03  mag=    -0.0000
       N       E                     dE             d eps       ncg     rms          rms(c)
DAV:   1    -0.961064106346E+02   -0.20056E-02   -0.15057E-01123720   0.452E+00    0.591E-01
RMM:   2    -0.961236066398E+02   -0.17196E-01   -0.48070E-02 97195   0.151E+00    0.207E+00
RMM:   3    -0.961061435319E+02    0.17463E-01   -0.19680E-02 90573   0.107E+00    0.387E-01
RMM:   4    -0.961093904636E+02   -0.32469E-02   -0.68965E-03 99013   0.542E-01    0.107E+00
RMM:   5    -0.961061527527E+02    0.32377E-02   -0.27475E-03 80726   0.366E-01    0.356E-01
RMM:   6    -0.961057557553E+02    0.39700E-03   -0.10279E-03 65487   0.223E-01    0.232E-01
RMM:   7    -0.961055621877E+02    0.19357E-03   -0.38955E-04 55173   0.950E-02
   2 F= -.10160089E+03 E0= -.10158641E+03  d E =-.968501E-03  mag=     0.0000
       N       E                     dE             d eps       ncg     rms          rms(c)
DAV:   1    -0.961126169760E+02   -0.68612E-02   -0.13747E+00106608   0.136E+01    0.178E+00
RMM:   2    -0.962717782201E+02   -0.15916E+00   -0.45199E-01 97631   0.456E+00    0.618E+00
RMM:   3    -0.961107179982E+02    0.16106E+00   -0.18329E-01 90713   0.323E+00    0.112E+00
RMM:   4    -0.961246298576E+02   -0.13912E-01   -0.56763E-02104522   0.156E+00    0.232E+00
RMM:   5    -0.961130024239E+02    0.11627E-01   -0.21431E-02 96958   0.962E-01    0.132E+00
RMM:   6    -0.961079296816E+02    0.50727E-02   -0.87735E-03 89008   0.627E-01    0.739E-01
RMM:   7    -0.961058124824E+02    0.21172E-02   -0.37580E-03101424   0.254E-01    0.420E-01
RMM:   8    -0.961043662540E+02    0.14462E-02   -0.11914E-03 73679   0.202E-01    0.103E-01
RMM:   9    -0.961047108968E+02   -0.34464E-03   -0.12021E-03 74262   0.157E-01    0.110E-01
RMM:  10    -0.961047166378E+02   -0.57410E-05   -0.19878E-04 49235   0.890E-02
   3 F= -.10159959E+03 E0= -.10158498E+03  d E =0.325109E-03  mag=     0.0000
       N       E                     dE             d eps       ncg     rms          rms(c)
DAV:   1    -0.961078948325E+02   -0.31839E-02   -0.41188E-01106224   0.744E+00    0.955E-01
RMM:   2    -0.961500618474E+02   -0.42167E-01   -0.12662E-01 98576   0.243E+00    0.325E+00
RMM:   3    -0.961081189290E+02    0.41943E-01   -0.51721E-02 91440   0.171E+00    0.706E-01
RMM:   4    -0.961213498714E+02   -0.13231E-01   -0.20714E-02101691   0.925E-01    0.215E+00
RMM:   5    -0.961078300469E+02    0.13520E-01   -0.87205E-03 87182   0.649E-01    0.516E-01
RMM:   6    -0.961077632391E+02    0.66808E-04   -0.27230E-03 81421   0.346E-01    0.492E-01
RMM:   7    -0.961059243347E+02    0.18389E-02   -0.12706E-03 76214   0.203E-01    0.205E-01
RMM:   8    -0.961058347444E+02    0.89590E-04   -0.61939E-04 57016   0.123E-01
   4 F= -.10160095E+03 E0= -.10158638E+03  d E =-.103197E-02  mag=    -0.0000
