unknown system                          
           1
     4.955764   -5.018632    1.138831
     4.698769    4.861224    0.955671
     1.089159   -0.141840    6.635711
   Fe   Se
     8     8
unknown system                          
           1
     4.955764   -5.018632    1.138831
     4.698769    4.861224    0.955671
     1.089159   -0.141840    6.635711
   Fe   Se
     8     8
Direct configuration=     1
   0.95784940  0.00021371  0.99969995
   0.04215060  0.49978629  0.00030005
   0.45784940  0.00021371  0.99969995
   0.54215060  0.49978629  0.00030005
   0.25000000  0.25000000  0.00000000
   0.25000000  0.75000000  0.00000000
   0.75000000  0.25000000  0.00000000
   0.75000000  0.75000000  0.00000000
   0.25902819  0.06016762  0.74287950
   0.37917303  0.55986479  0.74348565
   0.75902819  0.06016762  0.74287950
   0.87917303  0.55986479  0.74348565
   0.24097181  0.43983238  0.25712050
   0.12082697  0.94013521  0.25651435
   0.74097181  0.43983238  0.25712050
   0.62082697  0.94013521  0.25651435
