       N       E                     dE             d eps       ncg     rms          rms(c)
DAV:   1     0.172946666984E+04    0.17295E+04   -0.92243E+04 32256   0.232E+03
DAV:   2     0.135331623572E+02   -0.17159E+04   -0.16878E+04 32288   0.594E+02
DAV:   3    -0.101434128165E+03   -0.11497E+03   -0.11368E+03 43232   0.157E+02
DAV:   4    -0.104015019686E+03   -0.25809E+01   -0.25764E+01 32544   0.246E+01
DAV:   5    -0.104074508184E+03   -0.59488E-01   -0.59479E-01 41696   0.394E+00    0.350E+01
DAV:   6    -0.114070450337E+03   -0.99959E+01   -0.26390E+02 38592   0.893E+01    0.748E+01
DAV:   7    -0.105974547903E+03    0.80959E+01   -0.43802E+02 43712   0.744E+01    0.546E+01
DAV:   8    -0.935492929888E+02    0.12425E+02   -0.69225E+01 44672   0.514E+01    0.206E+01
DAV:   9    -0.100010543669E+03   -0.64613E+01   -0.10667E+02 43552   0.334E+01    0.456E+01
DAV:  10    -0.924505891825E+02    0.75600E+01   -0.54101E+01 45632   0.335E+01    0.123E+01
DAV:  11    -0.929066441316E+02   -0.45605E+00   -0.10555E+01 43072   0.133E+01    0.124E+01
DAV:  12    -0.925785245177E+02    0.32812E+00   -0.84488E+00 43488   0.125E+01    0.703E+00
DAV:  13    -0.924858897961E+02    0.92635E-01   -0.23777E+00 42432   0.794E+00    0.450E+00
DAV:  14    -0.925692138533E+02   -0.83324E-01   -0.29146E+00 43264   0.709E+00    0.618E+00
DAV:  15    -0.924612163075E+02    0.10800E+00   -0.13987E+00 45952   0.530E+00    0.207E+00
DAV:  16    -0.925228127975E+02   -0.61596E-01   -0.56456E-01 43840   0.396E+00    0.351E+00
DAV:  17    -0.924874215649E+02    0.35391E-01   -0.49319E-01 43424   0.360E+00    0.125E+00
DAV:  18    -0.924922014586E+02   -0.47799E-02   -0.38091E-02 40544   0.965E-01    0.859E-01
DAV:  19    -0.924933288277E+02   -0.11274E-02   -0.10295E-02 40256   0.586E-01    0.494E-01
DAV:  20    -0.924936454517E+02   -0.31662E-03   -0.62236E-03 40960   0.355E-01    0.235E-01
DAV:  21    -0.924939612152E+02   -0.31576E-03   -0.17371E-03 41952   0.190E-01    0.204E-01
DAV:  22    -0.924940239620E+02   -0.62747E-04   -0.57920E-04 42464   0.137E-01    0.817E-02
DAV:  23    -0.924940695822E+02   -0.45620E-04   -0.37788E-04 41760   0.851E-02    0.549E-02
DAV:  24    -0.924940701028E+02   -0.52062E-06   -0.39334E-05 39200   0.383E-02    0.396E-02
DAV:  25    -0.924940634852E+02    0.66176E-05   -0.14802E-05 41600   0.193E-02    0.228E-02
DAV:  26    -0.924940588930E+02    0.45922E-05   -0.63797E-06 32800   0.140E-02    0.724E-03
DAV:  27    -0.924940597453E+02   -0.85231E-06   -0.95299E-07 18208   0.593E-03
   1 F= -.92494060E+02 E0= -.92494060E+02  d E =0.000000E+00  mag=     2.9567
