 vasp.6.4.3 19Mar24 (build Mar 26 2024 14:05:37) complex                        
  
 executed on             LinuxIFC date 2024.12.16  11:47:47
 running  128 mpi-ranks, on    1 nodes
 distrk:  each k-point on   32 cores,    4 groups
 distr:  one band on NCORE=   1 cores,   32 groups


--------------------------------------------------------------------------------------------------------


 INCAR:
   ALGO = Normal
   EDIFF = 1e-06
   EDIFFG = -0.01
   ENCUT = 520
   GGA = Pe
   IBRION = -1
   ISIF = 4
   ISMEAR = -5
   ISPIN = 2
   KPAR = 4
   LCHARG = True
   LORBIT = 11
   LREAL = False
   LWAVE = False
   MAGMOM = 1*-2.797 2*2.817 1*-2.834 1*-2.833 1*2.941 1*-2.797 2*2.817 2*-0.077 1*0.252
   NELM = 200
   NSW = 0
   PREC = Accurate
   SIGMA = 0.2

 POTCAR:    PAW_PBE Fe_pv 02Aug2007               
 POTCAR:    PAW_PBE Pt 04Feb2005                  
 -----------------------------------------------------------------------------
|                                                                             |
|           W    W    AA    RRRRR   N    N  II  N    N   GGGG   !!!           |
|           W    W   A  A   R    R  NN   N  II  NN   N  G    G  !!!           |
|           W    W  A    A  R    R  N N  N  II  N N  N  G       !!!           |
|           W WW W  AAAAAA  RRRRR   N  N N  II  N  N N  G  GGG   !            |
|           WW  WW  A    A  R   R   N   NN  II  N   NN  G    G                |
|           W    W  A    A  R    R  N    N  II  N    N   GGGG   !!!           |
|                                                                             |
|     For optimal performance we recommend to set                             |
|       NCORE = 2 up to number-of-cores-per-socket                            |
|     NCORE specifies how many cores store one orbital (NPAR=cpu/NCORE).      |
|     This setting can greatly improve the performance of VASP for DFT.       |
|     The default, NCORE=1 might be grossly inefficient on modern             |
|     multi-core architectures or massively parallel machines. Do your        |
|     own testing! More info at https://www.vasp.at/wiki/index.php/NCORE      |
|     Unfortunately you need to use the default for GW and RPA                |
|     calculations (for HF NCORE is supported but not extensively tested      |
|     yet).                                                                   |
|                                                                             |
 -----------------------------------------------------------------------------

 POTCAR:    PAW_PBE Fe_pv 02Aug2007               
   SHA256 =  5d22e414b1f82158bf2c7ecb8b97b28fd0923e48cadc1c3bf74d524558f5dd32 Fe_pv/POTCAR          
   COPYR  = (c) Copyright 02Aug2007 Georg Kresse                                                    
   COPYR  = This file is part of the software VASP. Any use, copying, and all other rights are regul
   COPYR  = If you do not have a valid VASP license, you may not use, copy or distribute this file. 
   VRHFIN =Fe:  3pd7s1                                                                              
   LEXCH  = PE                                                                                      
   EATOM  =  2457.4239 eV,  180.6156 Ry                                                             
                                                                                                    
   TITEL  = PAW_PBE Fe_pv 02Aug2007                                                                 
   LULTRA =        F    use ultrasoft PP ?                                                          
   IUNSCR =        1    unscreen: 0-lin 1-nonlin 2-no                                               
   RPACOR =    1.750    partial core radius                                                         
   POMASS =   55.847; ZVAL   =   14.000    mass and valenz                                          
   RCORE  =    2.200    outmost cutoff radius                                                       
   RWIGS  =    2.200; RWIGS  =    1.164    wigner-seitz radius (au A)                               
   ENMAX  =  293.238; ENMIN  =  219.928 eV                                                          
   ICORE  =        3    local potential                                                             
   LCOR   =        T    correct aug charges                                                         
   LPAW   =        T    paw PP                                                                      
   EAUG   =  578.342                                                                                
   DEXC   =    0.000                                                                                
   RMAX   =    2.249    core radius for proj-oper                                                   
   RAUG   =    1.300    factor for augmentation sphere                                              
   RDEP   =    2.296    radius for radial grids                                                     
   RDEPT  =    1.766    core radius for aug-charge                                                  
                                                                                                    
   Atomic configuration                                                                             
    8 entries                                                                                       
     n  l   j            E        occ.                                                              
     1  0  0.50     -6993.8440   2.0000                                                             
     2  0  0.50      -814.6047   2.0000                                                             
     2  1  1.50      -693.3689   6.0000                                                             
     3  0  0.50       -89.4732   2.0000                                                             
     3  1  1.50       -55.6373   6.0000                                                             
     3  2  2.50        -3.8151   7.0000                                                             
     4  0  0.50        -4.2551   1.0000                                                             
     4  3  2.50        -1.3606   0.0000                                                             
   Description                                                                                      
     l       E           TYP  RCUT    TYP  RCUT                                                     
     1    -55.6372668     23  2.000                                                                 
     1     -5.4423304     23  2.000                                                                 
     2     -3.8151096     23  2.200                                                                 
     2     -5.1756922     23  2.200                                                                 
     0     -4.2550951     23  2.200                                                                 
     0     27.2116520     23  2.200                                                                 
     3     -1.3605826     23  2.200                                                                 
  local pseudopotential read in
  partial core-charges read in
  partial kinetic energy density read in
  atomic valenz-charges read in
  non local Contribution for L=           1  read in
    real space projection operators read in
  non local Contribution for L=           1  read in
    real space projection operators read in
  non local Contribution for L=           2  read in
    real space projection operators read in
  non local Contribution for L=           2  read in
    real space projection operators read in
  non local Contribution for L=           0  read in
    real space projection operators read in
  non local Contribution for L=           0  read in
    real space projection operators read in
    PAW grid and wavefunctions read in
 
   number of l-projection  operators is LMAX  =           6
   number of lm-projection operators is LMMAX =          18
 
 POTCAR:    PAW_PBE Pt 04Feb2005                  
   SHA256 =  3ed90460adef76debcff1cfb73ee1349b515b1a3db03439735b44de3a8db7dc8 Pt/POTCAR             
   COPYR  = (c) Copyright 04Feb2005 Georg Kresse                                                    
   COPYR  = This file is part of the software VASP. Any use, copying, and all other rights are regul
   COPYR  = If you do not have a valid VASP license, you may not use, copy or distribute this file. 
   VRHFIN =Pt: s1d9                                                                                 
   LEXCH  = PE                                                                                      
   EATOM  =   729.1176 eV,   53.5886 Ry                                                             
                                                                                                    
   TITEL  = PAW_PBE Pt 04Feb2005                                                                    
   LULTRA =        F    use ultrasoft PP ?                                                          
   IUNSCR =        1    unscreen: 0-lin 1-nonlin 2-no                                               
   RPACOR =    2.330    partial core radius                                                         
   POMASS =  195.080; ZVAL   =   10.000    mass and valenz                                          
   RCORE  =    2.600    outmost cutoff radius                                                       
   RWIGS  =    2.750; RWIGS  =    1.455    wigner-seitz radius (au A)                               
   ENMAX  =  230.283; ENMIN  =  172.712 eV                                                          
   ICORE  =        3    local potential                                                             
   LCOR   =        T    correct aug charges                                                         
   LPAW   =        T    paw PP                                                                      
   EAUG   =  358.966                                                                                
   DEXC   =    0.000                                                                                
   RMAX   =    2.658    core radius for proj-oper                                                   
   RAUG   =    1.300    factor for augmentation sphere                                              
   RDEP   =    2.761    radius for radial grids                                                     
   RDEPT  =    2.203    core radius for aug-charge                                                  
                                                                                                    
   Atomic configuration                                                                             
   16 entries                                                                                       
     n  l   j            E        occ.                                                              
     1  0  0.50    -78401.1885   2.0000                                                             
     2  0  0.50    -13770.7750   2.0000                                                             
     2  1  1.50    -11931.0468   6.0000                                                             
     3  0  0.50     -3234.7234   2.0000                                                             
     3  1  1.50     -2699.2216   6.0000                                                             
     3  2  2.50     -2119.5714  10.0000                                                             
     4  0  0.50      -695.1528   2.0000                                                             
     4  1  1.50      -519.6034   6.0000                                                             
     4  2  2.50      -306.6786  10.0000                                                             
     4  3  3.50       -70.1041  14.0000                                                             
     5  0  0.50      -101.7747   2.0000                                                             
     5  1  1.50       -55.9873   6.0000                                                             
     5  2  2.50        -6.1423   9.0000                                                             
     6  0  0.50        -5.6573   1.0000                                                             
     6  1  1.50        -6.8029   0.0000                                                             
     5  3  2.50        -1.3606   0.0000                                                             
   Description                                                                                      
     l       E           TYP  RCUT    TYP  RCUT                                                     
     2     -6.1423404     23  2.500                                                                 
     2     -7.5029230     23  2.500                                                                 
     0     -5.6573207     23  2.500                                                                 
     0      0.7416693     23  2.500                                                                 
     1     -2.7211652     23  2.600                                                                 
     1     20.4087390     23  2.600                                                                 
     3     -1.3605826     23  2.500                                                                 
  local pseudopotential read in
  partial core-charges read in
  partial kinetic energy density read in
  atomic valenz-charges read in
  non local Contribution for L=           2  read in
    real space projection operators read in
  non local Contribution for L=           2  read in
    real space projection operators read in
  non local Contribution for L=           0  read in
    real space projection operators read in
  non local Contribution for L=           0  read in
    real space projection operators read in
  non local Contribution for L=           1  read in
    real space projection operators read in
  non local Contribution for L=           1  read in
    real space projection operators read in
    PAW grid and wavefunctions read in
 
   number of l-projection  operators is LMAX  =           6
   number of lm-projection operators is LMMAX =          18
 
  PAW_PBE Fe_pv 02Aug2007               :
 energy of atom  1       EATOM=-2457.4239
 kinetic energy error for atom=    0.0062 (will be added to EATOM!!)
  PAW_PBE Pt 04Feb2005                  :
 energy of atom  2       EATOM= -729.1176
 kinetic energy error for atom=    0.0032 (will be added to EATOM!!)
 
 
 POSCAR: Fe9 Pt3
  positions in direct lattice
  velocities in cartesian coordinates


 exchange-correlation table for PE
   RHO(1)=    0.500       N(1)  =     2000
   RHO(2)=  100.500       N(2)  =     4000
 


--------------------------------------------------------------------------------------------------------


 ion  position               nearest neighbor table
   1  0.000  0.500  0.167-   5 2.63   5 2.63   4 2.63   4 2.63   7 2.71   7 2.71   7 2.71   7 2.71
                            11 2.77  11 2.77  10 2.77  10 2.77
   2  0.000  0.500  0.500-  11 2.70  11 2.70   8 2.71   8 2.71   8 2.71   8 2.71   6 2.73   6 2.73
                            12 2.73  12 2.73
   3  0.000  0.500  0.833-  10 2.71  10 2.71   9 2.71   9 2.71   9 2.71   9 2.71  12 2.73  12 2.73
                             6 2.73   6 2.73
   4  0.500  0.500  0.013-   1 2.63   7 2.63   7 2.63   1 2.63  10 2.72  10 2.72  10 2.72  10 2.72

   5  0.500  0.500  0.321-   1 2.63   7 2.63   7 2.63   1 2.63  11 2.72  11 2.72  11 2.72  11 2.72

   6  0.500  0.500  0.667-  12 2.71  12 2.71  12 2.71  12 2.71   9 2.73   3 2.73   3 2.73   9 2.73
                             2 2.73   8 2.73   2 2.73   8 2.73
   7  0.500  0.000  0.167-   5 2.63   5 2.63   4 2.63   4 2.63   1 2.71   1 2.71   1 2.71   1 2.71
                            11 2.77  11 2.77  10 2.77  10 2.77
   8  0.500  0.000  0.500-  11 2.70  11 2.70   2 2.71   2 2.71   2 2.71   2 2.71   6 2.73   6 2.73
                            12 2.73  12 2.73
   9  0.500  0.000  0.833-  10 2.71  10 2.71   3 2.71   3 2.71   3 2.71   3 2.71  12 2.73  12 2.73
                             6 2.73   6 2.73
  10  0.000  0.000  0.996-   3 2.71   9 2.71   3 2.71   9 2.71   4 2.72   4 2.72   4 2.72   4 2.72
                             1 2.77   7 2.77   7 2.77   1 2.77
  11  0.000  0.000  0.337-   2 2.70   8 2.70   2 2.70   8 2.70   5 2.72   5 2.72   5 2.72   5 2.72
                             1 2.77   7 2.77   7 2.77   1 2.77
  12  0.000  0.000  0.667-   6 2.71   6 2.71   6 2.71   6 2.71   3 2.73   9 2.73   9 2.73   3 2.73
                             2 2.73   8 2.73   8 2.73   2 2.73
 
  LATTYP: Found a simple tetragonal cell.
 ALAT       =     3.8302803509
 C/A-ratio  =     3.0608127315
  
  Lattice vectors:
  
 A1 = (   3.8302803509,   0.0000000000,   0.0000000000)
 A2 = (   0.0000000000,   3.8302803509,   0.0000000000)
 A3 = (   0.0000000000,   0.0000000000,  11.7237708634)


Analysis of symmetry for initial positions (statically):
=====================================================================
 Subroutine PRICEL returns:
 Original cell was already a primitive cell.
 

 Routine SETGRP: Setting up the symmetry group for a 
 simple tetragonal supercell.


 Subroutine GETGRP returns: Found  8 space group operations
 (whereof  8 operations were pure point group operations)
 out of a pool of 16 trial point group operations.


The static configuration has the point symmetry C_4v.


Analysis of symmetry for dynamics (positions and initial velocities):
=====================================================================
 Subroutine PRICEL returns:
 Original cell was already a primitive cell.
 

 Routine SETGRP: Setting up the symmetry group for a 
 simple tetragonal supercell.


 Subroutine GETGRP returns: Found  8 space group operations
 (whereof  8 operations were pure point group operations)
 out of a pool of 16 trial point group operations.


The dynamic configuration has the point symmetry C_4v.


Analysis of structural, dynamic, and magnetic symmetry:
=====================================================================
 Subroutine PRICEL returns:
 Original cell was already a primitive cell.
 

 Routine SETGRP: Setting up the symmetry group for a 
 simple tetragonal supercell.


 Subroutine GETGRP returns: Found  8 space group operations
 (whereof  8 operations were pure point group operations)
 out of a pool of 16 trial point group operations.


The overall configuration has the point symmetry C_4v.


 Subroutine INISYM returns: Found  8 space group operations
 (whereof  8 operations are pure point group operations),
 and found     1 'primitive' translations


----------------------------------------------------------------------------------------

                                     Primitive cell                                     

  volume of cell :     172.0000

  direct lattice vectors                    reciprocal lattice vectors
     3.830280351  0.000000000  0.000000000     0.261077495  0.000000000  0.000000000
     0.000000000  3.830280351  0.000000000     0.000000000  0.261077495  0.000000000
     0.000000000  0.000000000 11.723770863     0.000000000  0.000000000  0.085296788

  length of vectors
     3.830280351  3.830280351 11.723770863     0.261077495  0.261077495  0.085296788

  position of ions in fractional coordinates (direct lattice)
     0.000000000  0.500000000  0.166699872
     0.000000000  0.500000000  0.500213097
     0.000000000  0.500000000  0.833067178
     0.500000000  0.500000000  0.012676786
     0.500000000  0.500000000  0.320704637
     0.500000000  0.500000000  0.666642193
     0.500000000  0.000000000  0.166699872
     0.500000000  0.000000000  0.500213097
     0.500000000  0.000000000  0.833067178
     0.000000000  0.000000000  0.996021240
     0.000000000  0.000000000  0.337293030
     0.000000000  0.000000000  0.666701822

  ion indices of the primitive-cell ions
   primitive index   ion index
                 1           1
                 2           2
                 3           3
                 4           4
                 5           5
                 6           6
                 7           7
                 8           8
                 9           9
                10          10
                11          11
                12          12

----------------------------------------------------------------------------------------

 
 
 KPOINTS: pymatgen with grid density = 8800 / numb

Automatic generation of k-mesh.
 Grid dimensions read from file:
 generate k-points for:   13   13    4

 Generating k-lattice:

  Cartesian coordinates                     Fractional coordinates (reciprocal lattice)
     0.020082884  0.000000000  0.000000000     0.076923077  0.000000000  0.000000000
     0.000000000  0.020082884  0.000000000     0.000000000  0.076923077  0.000000000
     0.000000000  0.000000000  0.021324197     0.000000000  0.000000000  0.250000000

  Length of vectors
     0.020082884  0.020082884  0.021324197

  Shift w.r.t. Gamma in fractional coordinates (k-lattice)
     0.000000000  0.000000000  0.000000000

 TETIRR: Found   1010 inequivalent tetrahedra from     4056
 
 Subroutine IBZKPT returns following result:
 ===========================================
 
 Found     84 irreducible k-points:
 
 Following reciprocal coordinates:
            Coordinates               Weight
  0.000000  0.000000  0.000000      1.000000
  0.076923  0.000000  0.000000      4.000000
  0.153846  0.000000  0.000000      4.000000
  0.230769  0.000000  0.000000      4.000000
  0.307692  0.000000  0.000000      4.000000
  0.384615  0.000000  0.000000      4.000000
  0.461538  0.000000  0.000000      4.000000
  0.076923  0.076923  0.000000      4.000000
  0.153846  0.076923  0.000000      8.000000
  0.230769  0.076923  0.000000      8.000000
  0.307692  0.076923  0.000000      8.000000
  0.384615  0.076923  0.000000      8.000000
  0.461538  0.076923  0.000000      8.000000
  0.153846  0.153846  0.000000      4.000000
  0.230769  0.153846  0.000000      8.000000
  0.307692  0.153846  0.000000      8.000000
  0.384615  0.153846  0.000000      8.000000
  0.461538  0.153846  0.000000      8.000000
  0.230769  0.230769  0.000000      4.000000
  0.307692  0.230769  0.000000      8.000000
  0.384615  0.230769  0.000000      8.000000
  0.461538  0.230769  0.000000      8.000000
  0.307692  0.307692  0.000000      4.000000
  0.384615  0.307692  0.000000      8.000000
  0.461538  0.307692  0.000000      8.000000
  0.384615  0.384615  0.000000      4.000000
  0.461538  0.384615  0.000000      8.000000
  0.461538  0.461538  0.000000      4.000000
  0.000000  0.000000  0.250000      2.000000
  0.076923  0.000000  0.250000      8.000000
  0.153846  0.000000  0.250000      8.000000
  0.230769  0.000000  0.250000      8.000000
  0.307692  0.000000  0.250000      8.000000
  0.384615  0.000000  0.250000      8.000000
  0.461538  0.000000  0.250000      8.000000
  0.076923  0.076923  0.250000      8.000000
  0.153846  0.076923  0.250000     16.000000
  0.230769  0.076923  0.250000     16.000000
  0.307692  0.076923  0.250000     16.000000
  0.384615  0.076923  0.250000     16.000000
  0.461538  0.076923  0.250000     16.000000
  0.153846  0.153846  0.250000      8.000000
  0.230769  0.153846  0.250000     16.000000
  0.307692  0.153846  0.250000     16.000000
  0.384615  0.153846  0.250000     16.000000
  0.461538  0.153846  0.250000     16.000000
  0.230769  0.230769  0.250000      8.000000
  0.307692  0.230769  0.250000     16.000000
  0.384615  0.230769  0.250000     16.000000
  0.461538  0.230769  0.250000     16.000000
  0.307692  0.307692  0.250000      8.000000
  0.384615  0.307692  0.250000     16.000000
  0.461538  0.307692  0.250000     16.000000
  0.384615  0.384615  0.250000      8.000000
  0.461538  0.384615  0.250000     16.000000
  0.461538  0.461538  0.250000      8.000000
  0.000000  0.000000  0.500000      1.000000
  0.076923  0.000000  0.500000      4.000000
  0.153846  0.000000  0.500000      4.000000
  0.230769  0.000000  0.500000      4.000000
  0.307692  0.000000  0.500000      4.000000
  0.384615  0.000000  0.500000      4.000000
  0.461538  0.000000  0.500000      4.000000
  0.076923  0.076923  0.500000      4.000000
  0.153846  0.076923  0.500000      8.000000
  0.230769  0.076923  0.500000      8.000000
  0.307692  0.076923  0.500000      8.000000
  0.384615  0.076923  0.500000      8.000000
  0.461538  0.076923  0.500000      8.000000
  0.153846  0.153846  0.500000      4.000000
  0.230769  0.153846  0.500000      8.000000
  0.307692  0.153846  0.500000      8.000000
  0.384615  0.153846  0.500000      8.000000
  0.461538  0.153846  0.500000      8.000000
  0.230769  0.230769  0.500000      4.000000
  0.307692  0.230769  0.500000      8.000000
  0.384615  0.230769  0.500000      8.000000
  0.461538  0.230769  0.500000      8.000000
  0.307692  0.307692  0.500000      4.000000
  0.384615  0.307692  0.500000      8.000000
  0.461538  0.307692  0.500000      8.000000
  0.384615  0.384615  0.500000      4.000000
  0.461538  0.384615  0.500000      8.000000
  0.461538  0.461538  0.500000      4.000000
 
 Following cartesian coordinates:
            Coordinates               Weight
  0.000000  0.000000  0.000000      1.000000
  0.020083  0.000000  0.000000      4.000000
  0.040166  0.000000  0.000000      4.000000
  0.060249  0.000000  0.000000      4.000000
  0.080332  0.000000  0.000000      4.000000
  0.100414  0.000000  0.000000      4.000000
  0.120497  0.000000  0.000000      4.000000
  0.020083  0.020083  0.000000      4.000000
  0.040166  0.020083  0.000000      8.000000
  0.060249  0.020083  0.000000      8.000000
  0.080332  0.020083  0.000000      8.000000
  0.100414  0.020083  0.000000      8.000000
  0.120497  0.020083  0.000000      8.000000
  0.040166  0.040166  0.000000      4.000000
  0.060249  0.040166  0.000000      8.000000
  0.080332  0.040166  0.000000      8.000000
  0.100414  0.040166  0.000000      8.000000
  0.120497  0.040166  0.000000      8.000000
  0.060249  0.060249  0.000000      4.000000
  0.080332  0.060249  0.000000      8.000000
  0.100414  0.060249  0.000000      8.000000
  0.120497  0.060249  0.000000      8.000000
  0.080332  0.080332  0.000000      4.000000
  0.100414  0.080332  0.000000      8.000000
  0.120497  0.080332  0.000000      8.000000
  0.100414  0.100414  0.000000      4.000000
  0.120497  0.100414  0.000000      8.000000
  0.120497  0.120497  0.000000      4.000000
  0.000000  0.000000  0.021324      2.000000
  0.020083  0.000000  0.021324      8.000000
  0.040166  0.000000  0.021324      8.000000
  0.060249  0.000000  0.021324      8.000000
  0.080332  0.000000  0.021324      8.000000
  0.100414  0.000000  0.021324      8.000000
  0.120497  0.000000  0.021324      8.000000
  0.020083  0.020083  0.021324      8.000000
  0.040166  0.020083  0.021324     16.000000
  0.060249  0.020083  0.021324     16.000000
  0.080332  0.020083  0.021324     16.000000
  0.100414  0.020083  0.021324     16.000000
  0.120497  0.020083  0.021324     16.000000
  0.040166  0.040166  0.021324      8.000000
  0.060249  0.040166  0.021324     16.000000
  0.080332  0.040166  0.021324     16.000000
  0.100414  0.040166  0.021324     16.000000
  0.120497  0.040166  0.021324     16.000000
  0.060249  0.060249  0.021324      8.000000
  0.080332  0.060249  0.021324     16.000000
  0.100414  0.060249  0.021324     16.000000
  0.120497  0.060249  0.021324     16.000000
  0.080332  0.080332  0.021324      8.000000
  0.100414  0.080332  0.021324     16.000000
  0.120497  0.080332  0.021324     16.000000
  0.100414  0.100414  0.021324      8.000000
  0.120497  0.100414  0.021324     16.000000
  0.120497  0.120497  0.021324      8.000000
  0.000000  0.000000  0.042648      1.000000
  0.020083  0.000000  0.042648      4.000000
  0.040166  0.000000  0.042648      4.000000
  0.060249  0.000000  0.042648      4.000000
  0.080332  0.000000  0.042648      4.000000
  0.100414  0.000000  0.042648      4.000000
  0.120497  0.000000  0.042648      4.000000
  0.020083  0.020083  0.042648      4.000000
  0.040166  0.020083  0.042648      8.000000
  0.060249  0.020083  0.042648      8.000000
  0.080332  0.020083  0.042648      8.000000
  0.100414  0.020083  0.042648      8.000000
  0.120497  0.020083  0.042648      8.000000
  0.040166  0.040166  0.042648      4.000000
  0.060249  0.040166  0.042648      8.000000
  0.080332  0.040166  0.042648      8.000000
  0.100414  0.040166  0.042648      8.000000
  0.120497  0.040166  0.042648      8.000000
  0.060249  0.060249  0.042648      4.000000
  0.080332  0.060249  0.042648      8.000000
  0.100414  0.060249  0.042648      8.000000
  0.120497  0.060249  0.042648      8.000000
  0.080332  0.080332  0.042648      4.000000
  0.100414  0.080332  0.042648      8.000000
  0.120497  0.080332  0.042648      8.000000
  0.100414  0.100414  0.042648      4.000000
  0.120497  0.100414  0.042648      8.000000
  0.120497  0.120497  0.042648      4.000000
 


--------------------------------------------------------------------------------------------------------




 Dimension of arrays:
   k-points           NKPTS =     84   k-points in BZ     NKDIM =     84   number of bands    NBANDS=     96
   number of dos      NEDOS =    301   number of ions     NIONS =     12
   non local maximal  LDIM  =      6   non local SUM 2l+1 LMDIM =     18
   total plane-waves  NPLWV =  70560
   max r-space proj   IRMAX =      1   max aug-charges    IRDMAX=  25043
   dimension x,y,z NGX =    28 NGY =   28 NGZ =   90
   dimension x,y,z NGXF=    56 NGYF=   56 NGZF=  180
   support grid    NGXF=    56 NGYF=   56 NGZF=  180
   ions per type =               9   3
   NGX,Y,Z   is equivalent  to a cutoff of  12.15, 12.15, 12.76 a.u.
   NGXF,Y,Z  is equivalent  to a cutoff of  24.31, 24.31, 25.52 a.u.

 SYSTEM =  unknown system                          
 POSCAR =  Fe9 Pt3                                 

 Startparameter for this run:
   NWRITE =      2    write-flag & timer
   PREC   = accura    normal or accurate (medium, high low for compatibility)
   ISTART =      0    job   : 0-new  1-cont  2-samecut
   ICHARG =      2    charge: 1-file 2-atom 10-const
   ISPIN  =      2    spin polarized calculation?
   LNONCOLLINEAR =      F non collinear calculations
   LSORBIT =      F    spin-orbit coupling
   INIWAV =      1    electr: 0-lowe 1-rand  2-diag
   LASPH  =      F    aspherical Exc in radial PAW
 Electronic Relaxation 1
   ENCUT  =  520.0 eV  38.22 Ry    6.18 a.u.   7.12  7.12 21.80*2*pi/ulx,y,z
   ENINI  =  520.0     initial cutoff
   ENAUG  =  578.3 eV  augmentation charge cutoff
   NELM   =    200;   NELMIN=  2; NELMDL=  0     # of ELM steps 
   EDIFF  = 0.1E-05   stopping-criterion for ELM
   LREAL  =      F    real-space projection
   NLSPLINE    = F    spline interpolate recip. space projectors
   LCOMPAT=      F    compatible to vasp.4.4
   GGA_COMPAT  = T    GGA compatible to vasp.4.4-vasp.4.6
   LMAXPAW     = -100 max onsite density
   LMAXMIX     =    2 max onsite mixed and CHGCAR
   VOSKOWN=      0    Vosko Wilk Nusair interpolation
   ROPT   =    0.00000   0.00000
 Ionic relaxation
   EDIFFG = -.1E-01   stopping-criterion for IOM
   NSW    =      0    number of steps for IOM
   NBLOCK =      1;   KBLOCK =      1    inner block; outer block 
   IBRION =     -1    ionic relax: 0-MD 1-quasi-New 2-CG
   NFREE  =      0    steps in history (QN), initial steepest desc. (CG)
   ISIF   =      4    stress and relaxation
   IWAVPR =     10    prediction:  0-non 1-charg 2-wave 3-comb
   ISYM   =      2    0-nonsym 1-usesym 2-fastsym
   LCORR  =      T    Harris-Foulkes like correction to forces

   POTIM  = 0.5000    time-step for ionic-motion
   TEIN   =    0.0    initial temperature
   TEBEG  =    0.0;   TEEND  =   0.0 temperature during run
   SMASS  =  -3.00    Nose mass-parameter (am)
   estimated Nose-frequenzy (Omega)   =  0.10E-29 period in steps = 0.13E+47 mass=  -0.335E-27a.u.
   SCALEE = 1.0000    scale energy and forces
   NPACO  =    256;   APACO  = 10.0  distance and # of slots for P.C.
   PSTRESS=    0.0 pullay stress

  Mass of Ions in am
   POMASS =  55.85195.08
  Ionic Valenz
   ZVAL   =  14.00 10.00
  Atomic Wigner-Seitz radii
   RWIGS  =  -1.00 -1.00
  virtual crystal weights 
   VCA    =   1.00  1.00
   NELECT =     156.0000    total number of electrons
   NUPDOWN=      -1.0000    fix difference up-down

 DOS related values:
   EMIN   =  10.00;   EMAX   =-10.00  energy-range for DOS
   EFERMI =   0.00;   METHOD = LEGACY      
   ISMEAR =    -5;   SIGMA  =   0.20  broadening in eV -4-tet -1-fermi 0-gaus

 Electronic relaxation 2 (details)
   IALGO  =     38    algorithm
   LDIAG  =      T    sub-space diagonalisation (order eigenvalues)
   LSUBROT=      F    optimize rotation matrix (better conditioning)
   TURBO    =      0    0=normal 1=particle mesh
   IRESTART =      0    0=no restart 2=restart with 2 vectors
   NREBOOT  =      0    no. of reboots
   NMIN     =      0    reboot dimension
   EREF     =   0.00    reference energy to select bands
   IMIX   =      4    mixing-type and parameters
     AMIX     =   0.40;   BMIX     =  1.00
     AMIX_MAG =   1.60;   BMIX_MAG =  1.00
     AMIN     =   0.10
     WC   =   100.;   INIMIX=   1;  MIXPRE=   1;  MAXMIX= -45

 Intra band minimization:
   WEIMIN = 0.0000     energy-eigenvalue tresh-hold
   EBREAK =  0.26E-08  absolut break condition
   DEPER  =   0.30     relativ break condition  

   TIME   =   0.40     timestep for ELM

  volume/ion in A,a.u.               =      14.33        96.73
  Fermi-wavevector in a.u.,A,eV,Ry     =   1.584675  2.994602 34.166882  2.511195
  Thomas-Fermi vector in A             =   2.684256
 
 Write flags
   LWAVE        =      F    write WAVECAR
   LDOWNSAMPLE  =      F    k-point downsampling of WAVECAR
   LCHARG       =      T    write CHGCAR
   LVTOT        =      F    write LOCPOT, total local potential
   LVHAR        =      F    write LOCPOT, Hartree potential only
   WRT_POTENTIAL= false  ! write potential to hdf5 file
   LELF         =      F    write electronic localiz. function (ELF)
   LORBIT       =     11    0 simple, 1 ext, 2 COOP (PROOUT), +10 PAW based schemes


 Dipole corrections
   LMONO      =      F    monopole corrections only (constant potential shift)
   LDIPOL     =      F    correct potential (dipole corrections)
   IDIPOL     =      0    1-x, 2-y, 3-z, 4-all directions 
   EPSILON    =  1.0000000 bulk dielectric constant
   LVACPOTAV  =      F  vacuum potentials using an averaging scheme for the charge density
   VACPOTFLAT =  0.1000000 required flatness to determine vacuum potential
 Exchange correlation treatment:
   GGA     = PE    functional components
   XC_C    = 1    coefficients multiplying the functional components
   LIBXC   =     F    Libxc                    
   VOSKOWN =     0    Vosko Wilk Nusair interpolation
   LHFCALC =     F    Hartree Fock is set to
   LHFONE  =     F    Hartree Fock one center treatment
   AEXX    =    0.0000 exact exchange contribution

 Parameters of functionals:
   PE:
     No parameter
 
 Van der Waals corrections
   IVDW    =     0    specifies the selected vdW correction

 Linear response parameters
   LEPSILON=     F    determine dielectric tensor
   LRPA    =     F    only Hartree local field effects (RPA)
   LNABLA  =     F    use nabla operator in PAW spheres
   LVEL    =     F    velocity operator in full k-point grid
   CSHIFT  =0.1000    complex shift for real part using Kramers Kronig
   OMEGAMAX=  -1.0    maximum frequency
   DEG_THRESHOLD= 0.2000000E-02 threshold for treating states as degnerate
   RTIME   =   -0.100 relaxation time in fs
  (WPLASMAI=    0.000 imaginary part of plasma frequency in eV, 0.658/RTIME)
   DFIELD  = 0.0000000 0.0000000 0.0000000 field for delta impulse in time
 
  Optional k-point grid parameters
   LKPOINTS_OPT  =     F    use optional k-point grid
   KPOINTS_OPT_MODE=     1    mode for optional k-point grid
 
 Orbital magnetization related:
   ORBITALMAG=     F  switch on orbital magnetization
   LCHIMAG   =     F  perturbation theory with respect to B field
   DQ        =  0.001000  dq finite difference perturbation B field
   LLRAUG    =     F  two centre corrections for induced B field
   LBONE     =     F  B-component reconstruction in AE one-centre
   LVGVCALC  =     T  calculate vGv susceptibility
   LVGVAPPL  =     F  apply vGv susceptibility instead of pGv for G=0

 Random number generation:
   RANDOM_GENERATOR = DEFAULT
   PCG_SEED         = not used


--------------------------------------------------------------------------------------------------------


 Static calculation
 charge density and potential will be updated during run
 spin polarized calculation
 Variant of blocked Davidson
 Davidson routine will perform the subspace rotation
 perform sub-space diagonalisation
    after iterative eigenvector-optimisation
 modified Broyden-mixing scheme, WC =      100.0
 initial mixing is a Kerker type mixing with AMIX =  0.4000 and BMIX =      1.0000
 Hartree-type preconditioning will be used
 using additional bands           18
 reciprocal scheme for non local part
 use partial core corrections
 calculate Harris-corrections to forces 
   (improved forces if not selfconsistent)
 use gradient corrections 
 use of overlap-Matrix (Vanderbilt PP)
 Fermi weights with tetrahedron method with Bloechl corrections


--------------------------------------------------------------------------------------------------------


  energy-cutoff  :      520.00
  volume of cell :      172.00
      direct lattice vectors                 reciprocal lattice vectors
     3.830280351  0.000000000  0.000000000     0.261077495  0.000000000  0.000000000
     0.000000000  3.830280351  0.000000000     0.000000000  0.261077495  0.000000000
     0.000000000  0.000000000 11.723770863     0.000000000  0.000000000  0.085296788

  length of vectors
     3.830280351  3.830280351 11.723770863     0.261077495  0.261077495  0.085296788


 
 k-points in units of 2pi/SCALE and weight: pymatgen with grid density = 8800 / numb
   0.00000000  0.00000000  0.00000000       0.001
   0.02008288  0.00000000  0.00000000       0.006
   0.04016577  0.00000000  0.00000000       0.006
   0.06024865  0.00000000  0.00000000       0.006
   0.08033154  0.00000000  0.00000000       0.006
   0.10041442  0.00000000  0.00000000       0.006
   0.12049731  0.00000000  0.00000000       0.006
   0.02008288  0.02008288  0.00000000       0.006
   0.04016577  0.02008288  0.00000000       0.012
   0.06024865  0.02008288  0.00000000       0.012
   0.08033154  0.02008288  0.00000000       0.012
   0.10041442  0.02008288  0.00000000       0.012
   0.12049731  0.02008288  0.00000000       0.012
   0.04016577  0.04016577  0.00000000       0.006
   0.06024865  0.04016577  0.00000000       0.012
   0.08033154  0.04016577  0.00000000       0.012
   0.10041442  0.04016577  0.00000000       0.012
   0.12049731  0.04016577  0.00000000       0.012
   0.06024865  0.06024865  0.00000000       0.006
   0.08033154  0.06024865  0.00000000       0.012
   0.10041442  0.06024865  0.00000000       0.012
   0.12049731  0.06024865  0.00000000       0.012
   0.08033154  0.08033154  0.00000000       0.006
   0.10041442  0.08033154  0.00000000       0.012
   0.12049731  0.08033154  0.00000000       0.012
   0.10041442  0.10041442  0.00000000       0.006
   0.12049731  0.10041442  0.00000000       0.012
   0.12049731  0.12049731  0.00000000       0.006
   0.00000000  0.00000000  0.02132420       0.003
   0.02008288  0.00000000  0.02132420       0.012
   0.04016577  0.00000000  0.02132420       0.012
   0.06024865  0.00000000  0.02132420       0.012
   0.08033154  0.00000000  0.02132420       0.012
   0.10041442  0.00000000  0.02132420       0.012
   0.12049731  0.00000000  0.02132420       0.012
   0.02008288  0.02008288  0.02132420       0.012
   0.04016577  0.02008288  0.02132420       0.024
   0.06024865  0.02008288  0.02132420       0.024
   0.08033154  0.02008288  0.02132420       0.024
   0.10041442  0.02008288  0.02132420       0.024
   0.12049731  0.02008288  0.02132420       0.024
   0.04016577  0.04016577  0.02132420       0.012
   0.06024865  0.04016577  0.02132420       0.024
   0.08033154  0.04016577  0.02132420       0.024
   0.10041442  0.04016577  0.02132420       0.024
   0.12049731  0.04016577  0.02132420       0.024
   0.06024865  0.06024865  0.02132420       0.012
   0.08033154  0.06024865  0.02132420       0.024
   0.10041442  0.06024865  0.02132420       0.024
   0.12049731  0.06024865  0.02132420       0.024
   0.08033154  0.08033154  0.02132420       0.012
   0.10041442  0.08033154  0.02132420       0.024
   0.12049731  0.08033154  0.02132420       0.024
   0.10041442  0.10041442  0.02132420       0.012
   0.12049731  0.10041442  0.02132420       0.024
   0.12049731  0.12049731  0.02132420       0.012
   0.00000000  0.00000000  0.04264839       0.001
   0.02008288  0.00000000  0.04264839       0.006
   0.04016577  0.00000000  0.04264839       0.006
   0.06024865  0.00000000  0.04264839       0.006
   0.08033154  0.00000000  0.04264839       0.006
   0.10041442  0.00000000  0.04264839       0.006
   0.12049731  0.00000000  0.04264839       0.006
   0.02008288  0.02008288  0.04264839       0.006
   0.04016577  0.02008288  0.04264839       0.012
   0.06024865  0.02008288  0.04264839       0.012
   0.08033154  0.02008288  0.04264839       0.012
   0.10041442  0.02008288  0.04264839       0.012
   0.12049731  0.02008288  0.04264839       0.012
   0.04016577  0.04016577  0.04264839       0.006
   0.06024865  0.04016577  0.04264839       0.012
   0.08033154  0.04016577  0.04264839       0.012
   0.10041442  0.04016577  0.04264839       0.012
   0.12049731  0.04016577  0.04264839       0.012
   0.06024865  0.06024865  0.04264839       0.006
   0.08033154  0.06024865  0.04264839       0.012
   0.10041442  0.06024865  0.04264839       0.012
   0.12049731  0.06024865  0.04264839       0.012
   0.08033154  0.08033154  0.04264839       0.006
   0.10041442  0.08033154  0.04264839       0.012
   0.12049731  0.08033154  0.04264839       0.012
   0.10041442  0.10041442  0.04264839       0.006
   0.12049731  0.10041442  0.04264839       0.012
   0.12049731  0.12049731  0.04264839       0.006
 
 k-points in reciprocal lattice and weights: pymatgen with grid density = 8800 / numb
   0.00000000  0.00000000  0.00000000       0.001
   0.07692308  0.00000000  0.00000000       0.006
   0.15384615  0.00000000  0.00000000       0.006
   0.23076923  0.00000000  0.00000000       0.006
   0.30769231  0.00000000  0.00000000       0.006
   0.38461538  0.00000000  0.00000000       0.006
   0.46153846  0.00000000  0.00000000       0.006
   0.07692308  0.07692308  0.00000000       0.006
   0.15384615  0.07692308  0.00000000       0.012
   0.23076923  0.07692308  0.00000000       0.012
   0.30769231  0.07692308  0.00000000       0.012
   0.38461538  0.07692308  0.00000000       0.012
   0.46153846  0.07692308  0.00000000       0.012
   0.15384615  0.15384615  0.00000000       0.006
   0.23076923  0.15384615  0.00000000       0.012
   0.30769231  0.15384615  0.00000000       0.012
   0.38461538  0.15384615  0.00000000       0.012
   0.46153846  0.15384615  0.00000000       0.012
   0.23076923  0.23076923  0.00000000       0.006
   0.30769231  0.23076923  0.00000000       0.012
   0.38461538  0.23076923  0.00000000       0.012
   0.46153846  0.23076923  0.00000000       0.012
   0.30769231  0.30769231  0.00000000       0.006
   0.38461538  0.30769231  0.00000000       0.012
   0.46153846  0.30769231  0.00000000       0.012
   0.38461538  0.38461538  0.00000000       0.006
   0.46153846  0.38461538  0.00000000       0.012
   0.46153846  0.46153846  0.00000000       0.006
   0.00000000  0.00000000  0.25000000       0.003
   0.07692308  0.00000000  0.25000000       0.012
   0.15384615  0.00000000  0.25000000       0.012
   0.23076923  0.00000000  0.25000000       0.012
   0.30769231  0.00000000  0.25000000       0.012
   0.38461538  0.00000000  0.25000000       0.012
   0.46153846  0.00000000  0.25000000       0.012
   0.07692308  0.07692308  0.25000000       0.012
   0.15384615  0.07692308  0.25000000       0.024
   0.23076923  0.07692308  0.25000000       0.024
   0.30769231  0.07692308  0.25000000       0.024
   0.38461538  0.07692308  0.25000000       0.024
   0.46153846  0.07692308  0.25000000       0.024
   0.15384615  0.15384615  0.25000000       0.012
   0.23076923  0.15384615  0.25000000       0.024
   0.30769231  0.15384615  0.25000000       0.024
   0.38461538  0.15384615  0.25000000       0.024
   0.46153846  0.15384615  0.25000000       0.024
   0.23076923  0.23076923  0.25000000       0.012
   0.30769231  0.23076923  0.25000000       0.024
   0.38461538  0.23076923  0.25000000       0.024
   0.46153846  0.23076923  0.25000000       0.024
   0.30769231  0.30769231  0.25000000       0.012
   0.38461538  0.30769231  0.25000000       0.024
   0.46153846  0.30769231  0.25000000       0.024
   0.38461538  0.38461538  0.25000000       0.012
   0.46153846  0.38461538  0.25000000       0.024
   0.46153846  0.46153846  0.25000000       0.012
   0.00000000  0.00000000  0.50000000       0.001
   0.07692308  0.00000000  0.50000000       0.006
   0.15384615  0.00000000  0.50000000       0.006
   0.23076923  0.00000000  0.50000000       0.006
   0.30769231  0.00000000  0.50000000       0.006
   0.38461538  0.00000000  0.50000000       0.006
   0.46153846  0.00000000  0.50000000       0.006
   0.07692308  0.07692308  0.50000000       0.006
   0.15384615  0.07692308  0.50000000       0.012
   0.23076923  0.07692308  0.50000000       0.012
   0.30769231  0.07692308  0.50000000       0.012
   0.38461538  0.07692308  0.50000000       0.012
   0.46153846  0.07692308  0.50000000       0.012
   0.15384615  0.15384615  0.50000000       0.006
   0.23076923  0.15384615  0.50000000       0.012
   0.30769231  0.15384615  0.50000000       0.012
   0.38461538  0.15384615  0.50000000       0.012
   0.46153846  0.15384615  0.50000000       0.012
   0.23076923  0.23076923  0.50000000       0.006
   0.30769231  0.23076923  0.50000000       0.012
   0.38461538  0.23076923  0.50000000       0.012
   0.46153846  0.23076923  0.50000000       0.012
   0.30769231  0.30769231  0.50000000       0.006
   0.38461538  0.30769231  0.50000000       0.012
   0.46153846  0.30769231  0.50000000       0.012
   0.38461538  0.38461538  0.50000000       0.006
   0.46153846  0.38461538  0.50000000       0.012
   0.46153846  0.46153846  0.50000000       0.006
 
 position of ions in fractional coordinates (direct lattice) 
   0.00000000  0.50000000  0.16669987
   0.00000000  0.50000000  0.50021310
   0.00000000  0.50000000  0.83306718
   0.50000000  0.50000000  0.01267679
   0.50000000  0.50000000  0.32070464
   0.50000000  0.50000000  0.66664219
   0.50000000  0.00000000  0.16669987
   0.50000000  0.00000000  0.50021310
   0.50000000  0.00000000  0.83306718
   0.00000000  0.00000000  0.99602124
   0.00000000  0.00000000  0.33729303
   0.00000000  0.00000000  0.66670182
 
 position of ions in cartesian coordinates  (Angst):
   0.00000000  1.91514018  1.95435110
   0.00000000  1.91514018  5.86438374
   0.00000000  1.91514018  9.76668870
   1.91514018  1.91514018  0.14861973
   1.91514018  1.91514018  3.75986768
   1.91514018  1.91514018  7.81556031
   1.91514018  0.00000000  1.95435110
   1.91514018  0.00000000  5.86438374
   1.91514018  0.00000000  9.76668870
   0.00000000  0.00000000 11.67712479
   0.00000000  0.00000000  3.95434620
   0.00000000  0.00000000  7.81625939
 


--------------------------------------------------------------------------------------------------------


 k-point     1 :   0.0000 0.0000 0.0000  plane waves:    4611
 k-point     2 :   0.0769 0.0000 0.0000  plane waves:    4585
 k-point     3 :   0.1538 0.0000 0.0000  plane waves:    4600
 k-point     4 :   0.2308 0.0000 0.0000  plane waves:    4634
 k-point     5 :   0.3077 0.0000 0.0000  plane waves:    4642
 k-point     6 :   0.3846 0.0000 0.0000  plane waves:    4632
 k-point     7 :   0.4615 0.0000 0.0000  plane waves:    4630
 k-point     8 :   0.0769 0.0769 0.0000  plane waves:    4588
 k-point     9 :   0.1538 0.0769 0.0000  plane waves:    4599
 k-point    10 :   0.2308 0.0769 0.0000  plane waves:    4620
 k-point    11 :   0.3077 0.0769 0.0000  plane waves:    4645
 k-point    12 :   0.3846 0.0769 0.0000  plane waves:    4638
 k-point    13 :   0.4615 0.0769 0.0000  plane waves:    4641
 k-point    14 :   0.1538 0.1538 0.0000  plane waves:    4602
 k-point    15 :   0.2308 0.1538 0.0000  plane waves:    4619
 k-point    16 :   0.3077 0.1538 0.0000  plane waves:    4643
 k-point    17 :   0.3846 0.1538 0.0000  plane waves:    4641
 k-point    18 :   0.4615 0.1538 0.0000  plane waves:    4625
 k-point    19 :   0.2308 0.2308 0.0000  plane waves:    4640
 k-point    20 :   0.3077 0.2308 0.0000  plane waves:    4635
 k-point    21 :   0.3846 0.2308 0.0000  plane waves:    4638
 k-point    22 :   0.4615 0.2308 0.0000  plane waves:    4632
 k-point    23 :   0.3077 0.3077 0.0000  plane waves:    4634
 k-point    24 :   0.3846 0.3077 0.0000  plane waves:    4652
 k-point    25 :   0.4615 0.3077 0.0000  plane waves:    4632
 k-point    26 :   0.3846 0.3846 0.0000  plane waves:    4636
 k-point    27 :   0.4615 0.3846 0.0000  plane waves:    4646
 k-point    28 :   0.4615 0.4615 0.0000  plane waves:    4642
 k-point    29 :   0.0000 0.0000 0.2500  plane waves:    4612
 k-point    30 :   0.0769 0.0000 0.2500  plane waves:    4594
 k-point    31 :   0.1538 0.0000 0.2500  plane waves:    4604
 k-point    32 :   0.2308 0.0000 0.2500  plane waves:    4633
 k-point    33 :   0.3077 0.0000 0.2500  plane waves:    4635
 k-point    34 :   0.3846 0.0000 0.2500  plane waves:    4646
 k-point    35 :   0.4615 0.0000 0.2500  plane waves:    4637
 k-point    36 :   0.0769 0.0769 0.2500  plane waves:    4599
 k-point    37 :   0.1538 0.0769 0.2500  plane waves:    4607
 k-point    38 :   0.2308 0.0769 0.2500  plane waves:    4627
 k-point    39 :   0.3077 0.0769 0.2500  plane waves:    4630
 k-point    40 :   0.3846 0.0769 0.2500  plane waves:    4644
 k-point    41 :   0.4615 0.0769 0.2500  plane waves:    4642
 k-point    42 :   0.1538 0.1538 0.2500  plane waves:    4618
 k-point    43 :   0.2308 0.1538 0.2500  plane waves:    4629
 k-point    44 :   0.3077 0.1538 0.2500  plane waves:    4638
 k-point    45 :   0.3846 0.1538 0.2500  plane waves:    4631
 k-point    46 :   0.4615 0.1538 0.2500  plane waves:    4640
 k-point    47 :   0.2308 0.2308 0.2500  plane waves:    4625
 k-point    48 :   0.3077 0.2308 0.2500  plane waves:    4636
 k-point    49 :   0.3846 0.2308 0.2500  plane waves:    4639
 k-point    50 :   0.4615 0.2308 0.2500  plane waves:    4635
 k-point    51 :   0.3077 0.3077 0.2500  plane waves:    4628
 k-point    52 :   0.3846 0.3077 0.2500  plane waves:    4632
 k-point    53 :   0.4615 0.3077 0.2500  plane waves:    4635
 k-point    54 :   0.3846 0.3846 0.2500  plane waves:    4632
 k-point    55 :   0.4615 0.3846 0.2500  plane waves:    4645
 k-point    56 :   0.4615 0.4615 0.2500  plane waves:    4652
 k-point    57 :   0.0000 0.0000 0.5000  plane waves:    4652
 k-point    58 :   0.0769 0.0000 0.5000  plane waves:    4606
 k-point    59 :   0.1538 0.0000 0.5000  plane waves:    4620
 k-point    60 :   0.2308 0.0000 0.5000  plane waves:    4628
 k-point    61 :   0.3077 0.0000 0.5000  plane waves:    4634
 k-point    62 :   0.3846 0.0000 0.5000  plane waves:    4640
 k-point    63 :   0.4615 0.0000 0.5000  plane waves:    4644
 k-point    64 :   0.0769 0.0769 0.5000  plane waves:    4614
 k-point    65 :   0.1538 0.0769 0.5000  plane waves:    4612
 k-point    66 :   0.2308 0.0769 0.5000  plane waves:    4632
 k-point    67 :   0.3077 0.0769 0.5000  plane waves:    4630
 k-point    68 :   0.3846 0.0769 0.5000  plane waves:    4648
 k-point    69 :   0.4615 0.0769 0.5000  plane waves:    4638
 k-point    70 :   0.1538 0.1538 0.5000  plane waves:    4622
 k-point    71 :   0.2308 0.1538 0.5000  plane waves:    4630
 k-point    72 :   0.3077 0.1538 0.5000  plane waves:    4620
 k-point    73 :   0.3846 0.1538 0.5000  plane waves:    4638
 k-point    74 :   0.4615 0.1538 0.5000  plane waves:    4644
 k-point    75 :   0.2308 0.2308 0.5000  plane waves:    4622
 k-point    76 :   0.3077 0.2308 0.5000  plane waves:    4632
 k-point    77 :   0.3846 0.2308 0.5000  plane waves:    4626
 k-point    78 :   0.4615 0.2308 0.5000  plane waves:    4640
 k-point    79 :   0.3077 0.3077 0.5000  plane waves:    4626
 k-point    80 :   0.3846 0.3077 0.5000  plane waves:    4628
 k-point    81 :   0.4615 0.3077 0.5000  plane waves:    4648
 k-point    82 :   0.3846 0.3846 0.5000  plane waves:    4638
 k-point    83 :   0.4615 0.3846 0.5000  plane waves:    4650
 k-point    84 :   0.4615 0.4615 0.5000  plane waves:    4634

 maximum and minimum number of plane-waves per node :      4652     4585

 maximum number of plane-waves:      4652
 maximum index in each direction: 
   IXMAX=    7   IYMAX=    7   IZMAX=   21
   IXMIN=   -7   IYMIN=   -7   IZMIN=  -22


 serial   3D FFT for wavefunctions
 parallel 3D FFT for charge:
    minimum data exchange during FFTs selected (reduces bandwidth)


 total amount of memory used by VASP MPI-rank0   192028. kBytes
=======================================================================

   base      :      30000. kBytes
   nonl-proj :     113922. kBytes
   fftplans  :        955. kBytes
   grid      :       7297. kBytes
   one-center:        373. kBytes
   wavefun   :      39481. kBytes
 
     INWAV:  cpu time      0.0000: real time      0.0000
 Broyden mixing: mesh for mixing (old mesh)
   NGX = 15   NGY = 15   NGZ = 43
  (NGX  = 56   NGY  = 56   NGZ  =180)
  gives a total of   9675 points

 initial charge density was supplied:
 charge density of overlapping atoms calculated
 number of electron     156.0000000 magnetization       3.0460000
 keeping initial charge density in first step


--------------------------------------------------------------------------------------------------------


 Maximum index for augmentation-charges         1027 (set IRDMAX)


--------------------------------------------------------------------------------------------------------


 First call to EWALD:  gamma=   0.319
 Maximum number of real-space cells 4x 4x 2
 Maximum number of reciprocal cells 2x 2x 5

    FEWALD:  cpu time      0.0025: real time      0.0026


--------------------------------------- Ionic step        1  -------------------------------------------




--------------------------------------- Iteration      1(   1)  ---------------------------------------


    POTLOK:  cpu time      0.0476: real time      0.0517
    SETDIJ:  cpu time      0.0162: real time      0.0171
     EDDAV:  cpu time      4.8026: real time      4.8404
 BZINTS: Fermi energy:   22.918564;  156.000000 electrons
         Band energy: 0.309917E+03;  BLOECHL correction:   -0.063736
       DOS:  cpu time      0.0995: real time      0.1011
    --------------------------------------------
      LOOP:  cpu time      4.9660: real time      5.0102

 eigenvalue-minimisations  : 32256
 total energy-change (2. order) : 0.1729467E+04  (-0.9224290E+04)
 number of electron     156.0000000 magnetization       3.0460000
 augmentation part      156.0000000 magnetization       3.0460000

 Free energy of the ion-electron system (eV)
  ---------------------------------------------------
  alpha Z        PSCENC =       989.47749747
  Ewald energy   TEWEN  =    -17489.27839690
  -Hartree energ DENC   =     -6314.59822498
  -exchange      EXHF   =         0.00000000
  -V(xc)+E(xc)   XCENC  =       653.71207264
  PAW double counting   =     20093.35362459   -20817.22016574
  entropy T*S    EENTRO =         0.00000000
  eigenvalues    EBANDS =       309.91731844
  atomic energy  EATOM  =     24304.10294433
  Solvation  Ediel_sol  =         0.00000000
  ---------------------------------------------------
  free energy    TOTEN  =      1729.46666984 eV

  energy without entropy =     1729.46666984  energy(sigma->0) =     1729.46666984


--------------------------------------------------------------------------------------------------------




--------------------------------------- Iteration      1(   2)  ---------------------------------------


     EDDAV:  cpu time      4.7054: real time      4.7520
 BZINTS: Fermi energy:   11.363243;  156.000000 electrons
         Band energy:-0.140602E+04;  BLOECHL correction:   -0.029253
       DOS:  cpu time      0.1004: real time      0.1012
    --------------------------------------------
      LOOP:  cpu time      4.8058: real time      4.8531

 eigenvalue-minimisations  : 32288
 total energy-change (2. order) :-0.1715934E+04  (-0.1687785E+04)
 number of electron     156.0000000 magnetization       3.0460000
 augmentation part      156.0000000 magnetization       3.0460000

 Free energy of the ion-electron system (eV)
  ---------------------------------------------------
  alpha Z        PSCENC =       989.47749747
  Ewald energy   TEWEN  =    -17489.27839690
  -Hartree energ DENC   =     -6314.59822498
  -exchange      EXHF   =         0.00000000
  -V(xc)+E(xc)   XCENC  =       653.71207264
  PAW double counting   =     20093.35362459   -20817.22016574
  entropy T*S    EENTRO =         0.00000000
  eigenvalues    EBANDS =     -1406.01618905
  atomic energy  EATOM  =     24304.10294433
  Solvation  Ediel_sol  =         0.00000000
  ---------------------------------------------------
  free energy    TOTEN  =        13.53316236 eV

  energy without entropy =       13.53316236  energy(sigma->0) =       13.53316236


--------------------------------------------------------------------------------------------------------




--------------------------------------- Iteration      1(   3)  ---------------------------------------


     EDDAV:  cpu time      6.3808: real time      6.4376
 BZINTS: Fermi energy:   10.381342;  156.000000 electrons
         Band energy:-0.152098E+04;  BLOECHL correction:   -0.026326
       DOS:  cpu time      0.1015: real time      0.1022
    --------------------------------------------
      LOOP:  cpu time      6.4823: real time      6.5397

 eigenvalue-minimisations  : 43232
 total energy-change (2. order) :-0.1149673E+03  (-0.1136840E+03)
 number of electron     156.0000000 magnetization       3.0460000
 augmentation part      156.0000000 magnetization       3.0460000

 Free energy of the ion-electron system (eV)
  ---------------------------------------------------
  alpha Z        PSCENC =       989.47749747
  Ewald energy   TEWEN  =    -17489.27839690
  -Hartree energ DENC   =     -6314.59822498
  -exchange      EXHF   =         0.00000000
  -V(xc)+E(xc)   XCENC  =       653.71207264
  PAW double counting   =     20093.35362459   -20817.22016574
  entropy T*S    EENTRO =         0.00000000
  eigenvalues    EBANDS =     -1520.98347957
  atomic energy  EATOM  =     24304.10294433
  Solvation  Ediel_sol  =         0.00000000
  ---------------------------------------------------
  free energy    TOTEN  =      -101.43412816 eV

  energy without entropy =     -101.43412816  energy(sigma->0) =     -101.43412816


--------------------------------------------------------------------------------------------------------




--------------------------------------- Iteration      1(   4)  ---------------------------------------


     EDDAV:  cpu time      4.7883: real time      4.8233
 BZINTS: Fermi energy:   10.368990;  156.000000 electrons
         Band energy:-0.152356E+04;  BLOECHL correction:   -0.025355
       DOS:  cpu time      0.1010: real time      0.1017
    --------------------------------------------
      LOOP:  cpu time      4.8893: real time      4.9250

 eigenvalue-minimisations  : 32544
 total energy-change (2. order) :-0.2580892E+01  (-0.2576383E+01)
 number of electron     156.0000000 magnetization       3.0460000
 augmentation part      156.0000000 magnetization       3.0460000

 Free energy of the ion-electron system (eV)
  ---------------------------------------------------
  alpha Z        PSCENC =       989.47749747
  Ewald energy   TEWEN  =    -17489.27839690
  -Hartree energ DENC   =     -6314.59822498
  -exchange      EXHF   =         0.00000000
  -V(xc)+E(xc)   XCENC  =       653.71207264
  PAW double counting   =     20093.35362459   -20817.22016574
  entropy T*S    EENTRO =         0.00000000
  eigenvalues    EBANDS =     -1523.56437109
  atomic energy  EATOM  =     24304.10294433
  Solvation  Ediel_sol  =         0.00000000
  ---------------------------------------------------
  free energy    TOTEN  =      -104.01501969 eV

  energy without entropy =     -104.01501969  energy(sigma->0) =     -104.01501969


--------------------------------------------------------------------------------------------------------




--------------------------------------- Iteration      1(   5)  ---------------------------------------


     EDDAV:  cpu time      6.1458: real time      6.2012
 BZINTS: Fermi energy:   10.368805;  156.000000 electrons
         Band energy:-0.152362E+04;  BLOECHL correction:   -0.025367
       DOS:  cpu time      0.2090: real time      0.2101
    CHARGE:  cpu time      0.1617: real time      0.1633
    MIXING:  cpu time      0.0062: real time      0.0064
    --------------------------------------------
      LOOP:  cpu time      6.5226: real time      6.5810

 eigenvalue-minimisations  : 41696
 total energy-change (2. order) :-0.5948850E-01  (-0.5947860E-01)
 number of electron     155.9999850 magnetization       3.0671640
 augmentation part       79.2947401 magnetization       2.0850234

 Broyden mixing:
  rms(total) = 0.34969E+01    rms(broyden)= 0.34966E+01
  rms(prec ) = 0.40482E+01
  weight for this iteration     100.00

 Free energy of the ion-electron system (eV)
  ---------------------------------------------------
  alpha Z        PSCENC =       989.47749747
  Ewald energy   TEWEN  =    -17489.27839690
  -Hartree energ DENC   =     -6314.59822498
  -exchange      EXHF   =         0.00000000
  -V(xc)+E(xc)   XCENC  =       653.71207264
  PAW double counting   =     20093.35362459   -20817.22016574
  entropy T*S    EENTRO =         0.00000000
  eigenvalues    EBANDS =     -1523.62385959
  atomic energy  EATOM  =     24304.10294433
  Solvation  Ediel_sol  =         0.00000000
  ---------------------------------------------------
  free energy    TOTEN  =      -104.07450818 eV

  energy without entropy =     -104.07450818  energy(sigma->0) =     -104.07450818


--------------------------------------------------------------------------------------------------------




--------------------------------------- Iteration      1(   6)  ---------------------------------------


    POTLOK:  cpu time      0.0451: real time      0.0459
    SETDIJ:  cpu time      0.0076: real time      0.0077
     EDDAV:  cpu time      5.6664: real time      5.7057
 BZINTS: Fermi energy:    7.655083;  156.000000 electrons
         Band energy:-0.198368E+04;  BLOECHL correction:   -0.027726
       DOS:  cpu time      0.1085: real time      0.1093
    CHARGE:  cpu time      0.1548: real time      0.1557
    MIXING:  cpu time      0.0040: real time      0.0091
    --------------------------------------------
      LOOP:  cpu time      5.9865: real time      6.0333

 eigenvalue-minimisations  : 38592
 total energy-change (2. order) :-0.9995942E+01  (-0.2639028E+02)
 number of electron     155.9999824 magnetization       2.9903931
 augmentation part       89.5122999 magnetization       2.6866681

 Broyden mixing:
  rms(total) = 0.74827E+01    rms(broyden)= 0.74826E+01
  rms(prec ) = 0.99031E+01
  weight for this iteration     100.00

 eigenvalues of (default mixing * dielectric matrix)
  average eigenvalue GAMMA=   0.1817
  0.1817

 Free energy of the ion-electron system (eV)
  ---------------------------------------------------
  alpha Z        PSCENC =       989.47749747
  Ewald energy   TEWEN  =    -17489.27839690
  -Hartree energ DENC   =     -5873.82992811
  -exchange      EXHF   =         0.00000000
  -V(xc)+E(xc)   XCENC  =       636.11546739
  PAW double counting   =     20119.10664616   -20816.08197828
  entropy T*S    EENTRO =         0.00000000
  eigenvalues    EBANDS =     -1983.68270239
  atomic energy  EATOM  =     24304.10294433
  Solvation  Ediel_sol  =         0.00000000
  ---------------------------------------------------
  free energy    TOTEN  =      -114.07045034 eV

  energy without entropy =     -114.07045034  energy(sigma->0) =     -114.07045034


--------------------------------------------------------------------------------------------------------




--------------------------------------- Iteration      1(   7)  ---------------------------------------


    POTLOK:  cpu time      0.0323: real time      0.0459
    SETDIJ:  cpu time      0.0075: real time      0.0075
     EDDAV:  cpu time      6.4231: real time      6.4657
 BZINTS: Fermi energy:    8.448048;  156.000000 electrons
         Band energy:-0.186998E+04;  BLOECHL correction:   -0.014317
       DOS:  cpu time      0.2143: real time      0.2154
    CHARGE:  cpu time      0.1559: real time      0.1568
    MIXING:  cpu time      0.0024: real time      0.0026
    --------------------------------------------
      LOOP:  cpu time      6.8355: real time      6.8941

 eigenvalue-minimisations  : 43712
 total energy-change (2. order) : 0.8095902E+01  (-0.4380231E+02)
 number of electron     155.9999838 magnetization       3.4262021
 augmentation part       86.3332101 magnetization       1.0917443

 Broyden mixing:
  rms(total) = 0.54625E+01    rms(broyden)= 0.54623E+01
  rms(prec ) = 0.74820E+01
  weight for this iteration     100.00

 eigenvalues of (default mixing * dielectric matrix)
  average eigenvalue GAMMA=   0.2576
  0.3799  0.1353

 Free energy of the ion-electron system (eV)
  ---------------------------------------------------
  alpha Z        PSCENC =       989.47749747
  Ewald energy   TEWEN  =    -17489.27839690
  -Hartree energ DENC   =     -5964.06165902
  -exchange      EXHF   =         0.00000000
  -V(xc)+E(xc)   XCENC  =       638.17187209
  PAW double counting   =     20436.96362588   -21151.37246996
  entropy T*S    EENTRO =         0.00000000
  eigenvalues    EBANDS =     -1869.97796178
  atomic energy  EATOM  =     24304.10294433
  Solvation  Ediel_sol  =         0.00000000
  ---------------------------------------------------
  free energy    TOTEN  =      -105.97454790 eV

  energy without entropy =     -105.97454790  energy(sigma->0) =     -105.97454790


--------------------------------------------------------------------------------------------------------




--------------------------------------- Iteration      1(   8)  ---------------------------------------


    POTLOK:  cpu time      0.0447: real time      0.0454
    SETDIJ:  cpu time      0.0079: real time      0.0080
     EDDAV:  cpu time      6.4561: real time      6.5004
 BZINTS: Fermi energy:    8.875973;  156.000000 electrons
         Band energy:-0.176833E+04;  BLOECHL correction:   -0.017261
       DOS:  cpu time      0.1079: real time      0.1087
    CHARGE:  cpu time      0.1571: real time      0.1579
    MIXING:  cpu time      0.0018: real time      0.0018
    --------------------------------------------
      LOOP:  cpu time      6.7755: real time      6.8222

 eigenvalue-minimisations  : 44672
 total energy-change (2. order) : 0.1242525E+02  (-0.6922509E+01)
 number of electron     155.9999846 magnetization       3.2558117
 augmentation part       84.2289412 magnetization       3.6406312

 Broyden mixing:
  rms(total) = 0.20600E+01    rms(broyden)= 0.20596E+01
  rms(prec ) = 0.28970E+01
  weight for this iteration     100.00

 eigenvalues of (default mixing * dielectric matrix)
  average eigenvalue GAMMA=   0.4330
  0.8618  0.3101  0.1271

 Free energy of the ion-electron system (eV)
  ---------------------------------------------------
  alpha Z        PSCENC =       989.47749747
  Ewald energy   TEWEN  =    -17489.27839690
  -Hartree energ DENC   =     -6037.42367379
  -exchange      EXHF   =         0.00000000
  -V(xc)+E(xc)   XCENC  =       640.59942024
  PAW double counting   =     20820.31968585   -21553.02105200
  entropy T*S    EENTRO =         0.00000000
  eigenvalues    EBANDS =     -1768.32571818
  atomic energy  EATOM  =     24304.10294433
  Solvation  Ediel_sol  =         0.00000000
  ---------------------------------------------------
  free energy    TOTEN  =       -93.54929299 eV

  energy without entropy =      -93.54929299  energy(sigma->0) =      -93.54929299


--------------------------------------------------------------------------------------------------------




--------------------------------------- Iteration      1(   9)  ---------------------------------------


    POTLOK:  cpu time      0.0452: real time      0.0460
    SETDIJ:  cpu time      0.0077: real time      0.0077
     EDDAV:  cpu time      6.4345: real time      6.4780
 BZINTS: Fermi energy:    8.706239;  156.000000 electrons
         Band energy:-0.179371E+04;  BLOECHL correction:   -0.017165
       DOS:  cpu time      0.1089: real time      0.1096
    CHARGE:  cpu time      0.1548: real time      0.1557
    MIXING:  cpu time      0.0018: real time      0.0019
    --------------------------------------------
      LOOP:  cpu time      6.7529: real time      6.7989

 eigenvalue-minimisations  : 43552
 total energy-change (2. order) :-0.6461251E+01  (-0.1066685E+02)
 number of electron     155.9999832 magnetization       3.5129328
 augmentation part       84.8440752 magnetization       0.2197213

 Broyden mixing:
  rms(total) = 0.45595E+01    rms(broyden)= 0.45593E+01
  rms(prec ) = 0.67125E+01
  weight for this iteration     100.00

 eigenvalues of (default mixing * dielectric matrix)
  average eigenvalue GAMMA=   0.3890
  0.9951  0.3178  0.1414  0.1018

 Free energy of the ion-electron system (eV)
  ---------------------------------------------------
  alpha Z        PSCENC =       989.47749747
  Ewald energy   TEWEN  =    -17489.27839690
  -Hartree energ DENC   =     -6011.62225681
  -exchange      EXHF   =         0.00000000
  -V(xc)+E(xc)   XCENC  =       640.57554522
  PAW double counting   =     21054.17036754   -21793.72209431
  entropy T*S    EENTRO =         0.00000000
  eigenvalues    EBANDS =     -1793.71415019
  atomic energy  EATOM  =     24304.10294433
  Solvation  Ediel_sol  =         0.00000000
  ---------------------------------------------------
  free energy    TOTEN  =      -100.01054367 eV

  energy without entropy =     -100.01054367  energy(sigma->0) =     -100.01054367


--------------------------------------------------------------------------------------------------------




--------------------------------------- Iteration      1(  10)  ---------------------------------------


    POTLOK:  cpu time      0.0452: real time      0.0460
    SETDIJ:  cpu time      0.0080: real time      0.0080
     EDDAV:  cpu time      6.8937: real time      6.9393
 BZINTS: Fermi energy:    8.578945;  156.000000 electrons
         Band energy:-0.179992E+04;  BLOECHL correction:   -0.026490
       DOS:  cpu time      0.1082: real time      0.1091
    CHARGE:  cpu time      0.1561: real time      0.1569
    MIXING:  cpu time      0.0020: real time      0.0023
    --------------------------------------------
      LOOP:  cpu time      7.2131: real time      7.2616

 eigenvalue-minimisations  : 45632
 total energy-change (2. order) : 0.7559954E+01  (-0.5410138E+01)
 number of electron     155.9999843 magnetization       3.5212609
 augmentation part       84.9067956 magnetization       2.7616338

 Broyden mixing:
  rms(total) = 0.12286E+01    rms(broyden)= 0.12281E+01
  rms(prec ) = 0.15239E+01
  weight for this iteration     100.00

 eigenvalues of (default mixing * dielectric matrix)
  average eigenvalue GAMMA=   0.4158
  0.9505  0.4502  0.4502  0.1224  0.1057

 Free energy of the ion-electron system (eV)
  ---------------------------------------------------
  alpha Z        PSCENC =       989.47749747
  Ewald energy   TEWEN  =    -17489.27839690
  -Hartree energ DENC   =     -5994.70711887
  -exchange      EXHF   =         0.00000000
  -V(xc)+E(xc)   XCENC  =       640.13138230
  PAW double counting   =     21159.48070407   -21901.73511873
  entropy T*S    EENTRO =         0.00000000
  eigenvalues    EBANDS =     -1799.92248285
  atomic energy  EATOM  =     24304.10294433
  Solvation  Ediel_sol  =         0.00000000
  ---------------------------------------------------
  free energy    TOTEN  =       -92.45058918 eV

  energy without entropy =      -92.45058918  energy(sigma->0) =      -92.45058918


--------------------------------------------------------------------------------------------------------




--------------------------------------- Iteration      1(  11)  ---------------------------------------


    POTLOK:  cpu time      0.0449: real time      0.0457
    SETDIJ:  cpu time      0.0077: real time      0.0077
     EDDAV:  cpu time      6.2206: real time      6.2627
 BZINTS: Fermi energy:    8.615112;  156.000000 electrons
         Band energy:-0.179863E+04;  BLOECHL correction:   -0.023069
       DOS:  cpu time      0.1088: real time      0.1098
    CHARGE:  cpu time      0.1549: real time      0.1558
    MIXING:  cpu time      0.0022: real time      0.0022
    --------------------------------------------
      LOOP:  cpu time      6.5390: real time      6.5838

 eigenvalue-minimisations  : 43072
 total energy-change (2. order) :-0.4560549E+00  (-0.1055510E+01)
 number of electron     155.9999843 magnetization       3.4863327
 augmentation part       84.8286900 magnetization       2.8822828

 Broyden mixing:
  rms(total) = 0.12406E+01    rms(broyden)= 0.12405E+01
  rms(prec ) = 0.15359E+01
  weight for this iteration     100.00

 eigenvalues of (default mixing * dielectric matrix)
  average eigenvalue GAMMA=   0.4273
  0.9938  0.6680  0.4686  0.1989  0.1254  0.1088

 Free energy of the ion-electron system (eV)
  ---------------------------------------------------
  alpha Z        PSCENC =       989.47749747
  Ewald energy   TEWEN  =    -17489.27839690
  -Hartree energ DENC   =     -5993.12427852
  -exchange      EXHF   =         0.00000000
  -V(xc)+E(xc)   XCENC  =       640.65943907
  PAW double counting   =     21261.25366135   -22007.36417069
  entropy T*S    EENTRO =         0.00000000
  eigenvalues    EBANDS =     -1798.63334023
  atomic energy  EATOM  =     24304.10294433
  Solvation  Ediel_sol  =         0.00000000
  ---------------------------------------------------
  free energy    TOTEN  =       -92.90664413 eV

  energy without entropy =      -92.90664413  energy(sigma->0) =      -92.90664413


--------------------------------------------------------------------------------------------------------




--------------------------------------- Iteration      1(  12)  ---------------------------------------


    POTLOK:  cpu time      0.0448: real time      0.0456
    SETDIJ:  cpu time      0.0085: real time      0.0085
     EDDAV:  cpu time      6.3697: real time      6.4130
 BZINTS: Fermi energy:    8.632931;  156.000000 electrons
         Band energy:-0.180024E+04;  BLOECHL correction:   -0.024706
       DOS:  cpu time      0.1074: real time      0.1083
    CHARGE:  cpu time      0.1568: real time      0.1580
    MIXING:  cpu time      0.0019: real time      0.0020
    --------------------------------------------
      LOOP:  cpu time      6.6891: real time      6.7354

 eigenvalue-minimisations  : 43488
 total energy-change (2. order) : 0.3281196E+00  (-0.8448844E+00)
 number of electron     155.9999844 magnetization       3.3523953
 augmentation part       84.8116481 magnetization       2.8458979

 Broyden mixing:
  rms(total) = 0.70337E+00    rms(broyden)= 0.70322E+00
  rms(prec ) = 0.90278E+00
  weight for this iteration     100.00

 eigenvalues of (default mixing * dielectric matrix)
  average eigenvalue GAMMA=   0.5772
  1.6493  0.9376  0.7415  0.3251  0.1052  0.1258  0.1557

 Free energy of the ion-electron system (eV)
  ---------------------------------------------------
  alpha Z        PSCENC =       989.47749747
  Ewald energy   TEWEN  =    -17489.27839690
  -Hartree energ DENC   =     -5988.54784624
  -exchange      EXHF   =         0.00000000
  -V(xc)+E(xc)   XCENC  =       641.06609523
  PAW double counting   =     21348.48880595   -22097.65077414
  entropy T*S    EENTRO =         0.00000000
  eigenvalues    EBANDS =     -1800.23685020
  atomic energy  EATOM  =     24304.10294433
  Solvation  Ediel_sol  =         0.00000000
  ---------------------------------------------------
  free energy    TOTEN  =       -92.57852452 eV

  energy without entropy =      -92.57852452  energy(sigma->0) =      -92.57852452


--------------------------------------------------------------------------------------------------------




--------------------------------------- Iteration      1(  13)  ---------------------------------------


    POTLOK:  cpu time      0.0456: real time      0.0466
    SETDIJ:  cpu time      0.0077: real time      0.0077
     EDDAV:  cpu time      6.3850: real time      6.4262
 BZINTS: Fermi energy:    8.601667;  156.000000 electrons
         Band energy:-0.181213E+04;  BLOECHL correction:   -0.022050
       DOS:  cpu time      0.1081: real time      0.1088
    CHARGE:  cpu time      0.1551: real time      0.1560
    MIXING:  cpu time      0.0020: real time      0.0020
    --------------------------------------------
      LOOP:  cpu time      6.7035: real time      6.7473

 eigenvalue-minimisations  : 42432
 total energy-change (2. order) : 0.9263472E-01  (-0.2377677E+00)
 number of electron     155.9999844 magnetization       3.3025454
 augmentation part       85.0308934 magnetization       2.7048737

 Broyden mixing:
  rms(total) = 0.45008E+00    rms(broyden)= 0.45005E+00
  rms(prec ) = 0.64174E+00
  weight for this iteration     100.00

 eigenvalues of (default mixing * dielectric matrix)
  average eigenvalue GAMMA=   0.5867
  1.9154  0.8327  0.8327  0.3872  0.3435  0.1056  0.1258  0.1510

 Free energy of the ion-electron system (eV)
  ---------------------------------------------------
  alpha Z        PSCENC =       989.47749747
  Ewald energy   TEWEN  =    -17489.27839690
  -Hartree energ DENC   =     -5972.19740617
  -exchange      EXHF   =         0.00000000
  -V(xc)+E(xc)   XCENC  =       641.54715003
  PAW double counting   =     21505.96738183   -22259.97065210
  entropy T*S    EENTRO =         0.00000000
  eigenvalues    EBANDS =     -1812.13440828
  atomic energy  EATOM  =     24304.10294433
  Solvation  Ediel_sol  =         0.00000000
  ---------------------------------------------------
  free energy    TOTEN  =       -92.48588980 eV

  energy without entropy =      -92.48588980  energy(sigma->0) =      -92.48588980


--------------------------------------------------------------------------------------------------------




--------------------------------------- Iteration      1(  14)  ---------------------------------------


    POTLOK:  cpu time      0.0325: real time      0.0461
    SETDIJ:  cpu time      0.0073: real time      0.0074
     EDDAV:  cpu time      6.3050: real time      6.3470
 BZINTS: Fermi energy:    8.595158;  156.000000 electrons
         Band energy:-0.181370E+04;  BLOECHL correction:   -0.020078
       DOS:  cpu time      0.1103: real time      0.1110
    CHARGE:  cpu time      0.1554: real time      0.1564
[...]
     81       8.7243      0.00000
     82       8.8336      0.00000
     83       8.9855      0.00000
     84       9.3150      0.00000
     85       9.3365      0.00000
     86       9.3733      0.00000
     87       9.5432      0.00000
     88       9.5706      0.00000
     89       9.7786      0.00000
     90       9.8831      0.00000
     91       9.9855      0.00000
     92      10.0818      0.00000
     93      10.1279      0.00000
     94      10.4978      0.00000
     95      10.5473      0.00000
     96      10.6439      0.00000


--------------------------------------------------------------------------------------------------------


 soft charge-density along one line, spin component           1
         0         1         2         3         4         5         6         7         8         9
 total charge-density along one line
 
 soft charge-density along one line, spin component           2
         0         1         2         3         4         5         6         7         8         9
 total charge-density along one line
 
 pseudopotential strength for first ion, spin component:           1
-43.638   0.000   0.000   7.042  -0.000  -0.000   0.000  -0.000
  0.000 -43.637  -0.000  -0.000   7.041   0.000   0.000   0.000
  0.000  -0.000 -43.566  -0.000   0.000   7.011   0.000   0.000
  7.042  -0.000  -0.000   5.821  -0.000  -0.000  -0.000   0.000
 -0.000   7.041   0.000  -0.000   5.822   0.000  -0.000  -0.000
 -0.000   0.000   7.011  -0.000   0.000   5.830  -0.000  -0.000
  0.000   0.000   0.000  -0.000  -0.000  -0.000  -0.998  -0.000
 -0.000   0.000   0.000   0.000  -0.000  -0.000  -0.000  -0.989
 -0.000   0.000   0.000   0.000  -0.000  -0.000  -0.000  -0.000
  0.000  -0.000   0.000  -0.000   0.000   0.000   0.000   0.000
 -0.000   0.000  -0.000   0.000  -0.000   0.000  -0.000  -0.000
 -0.000   0.000   0.000   0.000  -0.000  -0.000  -1.529  -0.000
 -0.000   0.000   0.000   0.000  -0.000  -0.000  -0.000  -1.520
 -0.000   0.000   0.000   0.000  -0.000  -0.000  -0.000  -0.000
  0.000  -0.000   0.000  -0.000   0.000   0.000   0.000   0.000
 -0.000   0.000  -0.000   0.000  -0.000   0.000  -0.000  -0.000
 -0.000   0.000   0.000  -0.000   0.000   0.000  -0.000  -0.000
 -0.000   0.000   0.000  -0.000   0.000   0.000  -0.000  -0.000
 pseudopotential strength for first ion, spin component:           2
-46.075   0.000   0.000   8.064  -0.000  -0.000   0.000  -0.000
  0.000 -46.034  -0.000  -0.000   8.047   0.000   0.000   0.000
  0.000  -0.000 -45.864  -0.000   0.000   7.979   0.000   0.000
  8.064  -0.000  -0.000   5.531  -0.000  -0.000  -0.000   0.000
 -0.000   8.047   0.000  -0.000   5.534   0.000  -0.000  -0.000
 -0.000   0.000   7.979  -0.000   0.000   5.549  -0.000  -0.000
  0.000   0.000   0.000  -0.000  -0.000  -0.000  -2.909  -0.000
 -0.000   0.000   0.000   0.000  -0.000  -0.000  -0.000  -3.079
 -0.000  -0.000   0.000   0.000   0.000  -0.000  -0.000   0.000
  0.000  -0.000  -0.000  -0.000   0.000   0.000   0.000   0.000
 -0.000   0.000  -0.000   0.000  -0.000   0.000  -0.000  -0.000
  0.000   0.000   0.000  -0.000  -0.000  -0.000  -3.410  -0.000
 -0.000   0.000   0.000   0.000  -0.000  -0.000  -0.000  -3.577
 -0.000  -0.000  -0.000   0.000   0.000   0.000  -0.000   0.000
  0.000  -0.000  -0.000  -0.000   0.000   0.000   0.000   0.000
 -0.000   0.000   0.000   0.000  -0.000  -0.000  -0.000  -0.000
 -0.000   0.000  -0.000  -0.000  -0.000  -0.000  -0.000  -0.000
 -0.000   0.000   0.000  -0.000  -0.000  -0.000  -0.000  -0.000
 total augmentation occupancy for first ion, spin component:           1
  1.992   0.000   0.000  -0.028   0.000   0.000   0.000  -0.000   0.000   0.000   0.000  -0.000   0.000   0.000   0.000   0.000
  0.000   1.992   0.000   0.000  -0.027   0.000   0.000   0.000  -0.000   0.000   0.000  -0.000   0.000   0.000   0.000  -0.000
  0.000   0.000   1.992   0.000   0.000  -0.026   0.000   0.000   0.000  -0.000  -0.000   0.000   0.000   0.000   0.000   0.000
 -0.028   0.000   0.000   0.146   0.000   0.000   0.000  -0.000   0.000   0.000   0.000   0.000   0.000   0.000   0.000   0.000
  0.000  -0.027   0.000   0.000   0.151  -0.000   0.000   0.000  -0.000  -0.000   0.000   0.000   0.000   0.000   0.000  -0.000
  0.000   0.000  -0.026   0.000  -0.000   0.156   0.000   0.000   0.000  -0.000   0.000   0.000   0.000   0.000   0.000   0.000
  0.000   0.000   0.000   0.000   0.000   0.000   2.894   0.000   0.000   0.000   0.000  -1.501  -0.000   0.000   0.000  -0.000
 -0.000   0.000   0.000  -0.000   0.000   0.000   0.000   2.979   0.000  -0.000   0.000   0.000  -1.814   0.000   0.000   0.000
  0.000  -0.000   0.000   0.000  -0.000   0.000   0.000   0.000   3.319   0.000   0.125   0.000   0.000  -1.795   0.000  -0.001
  0.000   0.000  -0.000   0.000  -0.000  -0.000   0.000  -0.000   0.000   2.701   0.000   0.000   0.000   0.000  -1.364  -0.000
  0.000   0.000  -0.000   0.000   0.000   0.000   0.000   0.000   0.125   0.000   3.085   0.000  -0.000  -0.002   0.000  -1.666
 -0.000  -0.000   0.000   0.000   0.000   0.000  -1.501   0.000   0.000   0.000   0.000   1.512   0.000   0.000   0.000  -0.000
  0.000   0.000   0.000   0.000   0.000   0.000  -0.000  -1.814   0.000   0.000  -0.000   0.000   1.857   0.000   0.000   0.000
  0.000   0.000   0.000   0.000   0.000   0.000   0.000   0.000  -1.795   0.000  -0.002   0.000   0.000   1.564   0.000  -0.075
  0.000   0.000   0.000   0.000   0.000   0.000   0.000   0.000   0.000  -1.364   0.000   0.000   0.000   0.000   1.500  -0.000
  0.000  -0.000   0.000   0.000  -0.000   0.000  -0.000   0.000  -0.001  -0.000  -1.666  -0.000   0.000  -0.075  -0.000   1.524
 -0.000   0.000   0.000   0.000   0.000   0.000   0.000   0.000  -0.069   0.000   0.064   0.000   0.000   0.048  -0.000   0.021
  0.000  -0.000   0.000   0.000  -0.000   0.000   0.000   0.000   0.007   0.000  -0.015   0.000   0.000  -0.004  -0.000   0.005
 total augmentation occupancy for first ion, spin component:           2
  0.002   0.000   0.000   0.009   0.000   0.000   0.000  -0.000   0.000   0.000   0.000   0.000   0.000   0.000   0.000   0.000
  0.000   0.002   0.000   0.000   0.009   0.000   0.000   0.000  -0.000  -0.000   0.000  -0.000   0.000   0.000   0.000  -0.000
  0.000   0.000   0.002   0.000   0.000   0.010  -0.000   0.000  -0.000  -0.000   0.000   0.000   0.000   0.000   0.000  -0.000
  0.009   0.000   0.000  -0.003   0.000   0.000   0.000   0.000   0.000   0.000   0.000   0.000   0.000   0.000   0.000   0.000
  0.000   0.009   0.000   0.000   0.005  -0.000  -0.000   0.000   0.000   0.000   0.000  -0.000   0.000  -0.000  -0.000  -0.000
  0.000   0.000   0.010   0.000  -0.000   0.008   0.000   0.000   0.000   0.000   0.000   0.000   0.000   0.000  -0.000   0.000
  0.000   0.000  -0.000   0.000  -0.000   0.000  -2.473   0.000   0.000   0.000   0.000   1.085  -0.000   0.000  -0.000  -0.000
 -0.000   0.000   0.000   0.000   0.000   0.000   0.000  -2.358   0.000  -0.000   0.000   0.000   0.832   0.000   0.000   0.000
  0.000  -0.000  -0.000   0.000   0.000   0.000   0.000   0.000  -2.797   0.000  -0.070   0.000   0.000   1.211   0.000   0.117
  0.000  -0.000  -0.000   0.000   0.000   0.000   0.000  -0.000   0.000  -2.225   0.000  -0.000   0.000   0.000   0.965   0.000
  0.000   0.000   0.000   0.000   0.000   0.000   0.000   0.000  -0.070   0.000  -2.614  -0.000   0.000   0.116   0.000   1.049
  0.000  -0.000   0.000   0.000  -0.000   0.000   1.085   0.000   0.000  -0.000  -0.000  -0.283   0.000   0.000  -0.000   0.000
  0.000   0.000   0.000   0.000   0.000   0.000  -0.000   0.832   0.000   0.000   0.000   0.000  -0.046   0.000   0.000   0.000
  0.000   0.000   0.000   0.000  -0.000   0.000   0.000   0.000   1.211   0.000   0.116   0.000   0.000  -0.397   0.000  -0.138
  0.000   0.000   0.000   0.000  -0.000  -0.000  -0.000   0.000   0.000   0.965   0.000  -0.000   0.000   0.000  -0.182   0.000
  0.000  -0.000  -0.000   0.000  -0.000   0.000  -0.000   0.000   0.117   0.000   1.049   0.000   0.000  -0.138   0.000  -0.239
  0.000   0.000  -0.000   0.000   0.000  -0.000   0.000   0.000   0.014   0.000  -0.050   0.000   0.000  -0.015  -0.000   0.074
  0.000   0.000   0.000  -0.000  -0.000   0.000   0.000   0.000  -0.004  -0.000   0.014   0.000   0.000   0.001   0.000  -0.005


------------------------ aborting loop because EDIFF is reached ----------------------------------------





 total charge

# of ion       s       p       d       tot
------------------------------------------
    1        0.330   6.278   5.996  12.605
    2        0.323   6.271   5.962  12.556
    3        0.323   6.271   5.962  12.556
    4        0.329   6.279   5.960  12.569
    5        0.329   6.280   5.960  12.569
    6        0.327   6.279   5.955  12.562
    7        0.330   6.278   5.996  12.605
    8        0.323   6.271   5.962  12.556
    9        0.323   6.271   5.962  12.556
   10        0.725   0.573   8.000   9.297
   11        0.725   0.573   8.000   9.298
   12        0.711   0.603   7.993   9.308
--------------------------------------------------
tot          5.100  58.228  77.709 141.037



 magnetization (x)

# of ion       s       p       d       tot
------------------------------------------
    1       -0.008   0.009  -2.799  -2.798
    2        0.013   0.002   2.800   2.815
    3        0.013   0.002   2.801   2.816
    4       -0.016  -0.025  -2.796  -2.836
    5       -0.016  -0.025  -2.795  -2.835
    6        0.006  -0.017   2.964   2.954
    7       -0.008   0.009  -2.799  -2.798
    8        0.013   0.002   2.800   2.815
    9        0.013   0.002   2.801   2.816
   10        0.007   0.018  -0.101  -0.077
   11        0.007   0.018  -0.101  -0.077
   12       -0.039  -0.089   0.381   0.253
--------------------------------------------------
tot         -0.016  -0.094   3.157   3.047
 
    CHARGE:  cpu time      0.1571: real time      0.1580
    FORLOC:  cpu time      0.0024: real time      0.0024
    FORNL :  cpu time      0.6143: real time      0.6176
    STRESS:  cpu time      4.6591: real time      4.6963
    FORCOR:  cpu time      0.0223: real time      0.0225
    FORHAR:  cpu time      0.0028: real time      0.0028
    MIXING:  cpu time      0.0153: real time      0.0154
    OFIELD:  cpu time      0.0016: real time      0.0016

  FORCE on cell =-STRESS in cart. coord.  units (eV):
  Direction    XX          YY          ZZ          XY          YZ          ZX
  --------------------------------------------------------------------------------------
  Alpha Z   989.47750   989.47750   989.47750
  Ewald   -5806.09596 -5806.09596 -5877.11184     0.00000    -0.00000    -0.00000
  Hartree  2009.65191  2009.65191  1943.63596    -0.00000    -0.00000    -0.00000
  E(xc)    -941.21242  -941.21242  -941.14337     0.00000    -0.00000    -0.00000
  Local     839.31717   839.31717   987.24453    -0.00000     0.00000     0.00000
  n-local  -229.92910  -245.25483  -238.72362    12.66551    -0.00784    -0.07092
  augment  1443.45422  1443.45422  1437.31506     0.00000     0.00000     0.00000
  Kinetic  1694.12554  1680.60604  1683.95575     0.89788     0.32944     0.50792
  Fock        0.00000     0.00000     0.00000     0.00000     0.00000     0.00000
  -------------------------------------------------------------------------------------
  Total     -15.63377   -15.63377   -15.35003     0.00000     0.00000     0.00000
  in kB    -145.62829  -145.62829  -142.98534     0.00000     0.00000     0.00000
  external pressure =     -144.75 kB  Pullay stress =        0.00 kB


 VOLUME and BASIS-vectors are now :
 -----------------------------------------------------------------------------
  energy-cutoff  :      520.00
  volume of cell :      172.00
      direct lattice vectors                 reciprocal lattice vectors
     3.830280351  0.000000000  0.000000000     0.261077495  0.000000000  0.000000000
     0.000000000  3.830280351  0.000000000     0.000000000  0.261077495  0.000000000
     0.000000000  0.000000000 11.723770863     0.000000000  0.000000000  0.085296788

  length of vectors
     3.830280351  3.830280351 11.723770863     0.261077495  0.261077495  0.085296788


 FORCES acting on ions
    electron-ion (+dipol)            ewald-force                    non-local-force                 convergence-correction
 -----------------------------------------------------------------------------------------------
   -.109E-12 0.123E-11 0.816E+00   -.491E-14 -.142E-13 -.821E+00   0.704E-21 -.112E-20 -.345E-02   -.300E-13 -.119E-13 0.629E-02
   -.976E-13 0.144E-11 -.252E+01   0.236E-13 -.181E-14 0.369E+01   -.516E-19 -.135E-17 -.119E+01   -.646E-13 -.992E-14 0.148E-01
   -.964E-13 0.314E-11 0.133E+01   0.424E-13 -.112E-13 -.249E+01   -.352E-19 0.146E-19 0.120E+01   -.345E-13 0.958E-15 -.205E-01
   0.107E-11 -.287E-11 0.178E+03   -.916E-13 -.348E-14 -.175E+03   0.913E-18 -.166E-18 -.273E+01   -.273E-12 0.392E-14 -.919E-03
   0.119E-11 0.936E-11 -.177E+03   0.159E-13 0.178E-13 0.174E+03   0.617E-19 -.227E-18 0.273E+01   -.274E-12 0.859E-13 0.659E-02
   0.116E-11 0.567E-11 -.250E+00   -.541E-13 -.720E-14 0.253E+00   -.133E-20 -.105E-20 0.187E-02   -.255E-12 0.524E-13 -.529E-02
   0.118E-11 -.640E-13 0.816E+00   0.408E-14 -.281E-13 -.821E+00   0.302E-21 0.125E-20 -.345E-02   -.307E-12 0.297E-13 0.629E-02
   0.116E-11 -.101E-11 -.252E+01   -.270E-15 0.120E-13 0.369E+01   -.101E-17 0.436E-18 -.119E+01   -.289E-12 0.315E-13 0.148E-01
   0.116E-11 0.290E-12 0.133E+01   -.478E-14 0.157E-13 -.249E+01   0.797E-19 -.141E-18 0.120E+01   -.310E-12 0.355E-13 -.205E-01
   -.489E-13 -.151E-13 0.487E+02   0.589E-13 0.310E-13 -.491E+02   0.171E-18 -.151E-18 0.390E+00   0.354E-13 -.399E-16 -.225E-02
   -.491E-13 -.312E-12 -.485E+02   -.259E-13 -.593E-14 0.489E+02   0.103E-17 -.490E-18 -.387E+00   0.277E-13 -.131E-13 0.552E-02
   -.448E-13 -.318E-13 0.885E-01   0.441E-14 -.749E-15 -.818E-01   -.614E-21 -.252E-21 -.880E-02   0.276E-13 -.139E-13 -.365E-02
 -----------------------------------------------------------------------------------------------
   0.647E-11 0.168E-10 -.158E-02   -.323E-13 0.389E-14 -.412E-12   0.116E-17 -.208E-17 0.441E-03   -.175E-11 0.191E-12 0.119E-02
 
 
 POSITION                                       TOTAL-FORCE (eV/Angst)
 -----------------------------------------------------------------------------------
      0.00000      1.91514      1.95435        -0.000000     -0.000000     -0.002567
      0.00000      1.91514      5.86438        -0.000000     -0.000000     -0.009768
      0.00000      1.91514      9.76669        -0.000000      0.000000      0.014856
      1.91514      1.91514      0.14862         0.000000      0.000000      0.019559
      1.91514      1.91514      3.75987        -0.000000     -0.000000     -0.019809
      1.91514      1.91514      7.81556         0.000000      0.000000     -0.001033
      1.91514      0.00000      1.95435        -0.000000     -0.000000     -0.002567
      1.91514      0.00000      5.86438        -0.000000     -0.000000     -0.009768
      1.91514      0.00000      9.76669        -0.000000     -0.000000      0.014856
      0.00000      0.00000     11.67712        -0.000000     -0.000000     -0.027867
      0.00000      0.00000      3.95435        -0.000000     -0.000000      0.029813
      0.00000      0.00000      7.81626        -0.000000     -0.000000     -0.005703
 -----------------------------------------------------------------------------------
    total drift:                                0.000000      0.000000      0.000046


--------------------------------------------------------------------------------------------------------



  FREE ENERGIE OF THE ION-ELECTRON SYSTEM (eV)
  ---------------------------------------------------
  free  energy   TOTEN  =       -92.49405975 eV

  energy  without entropy=      -92.49405975  energy(sigma->0) =      -92.49405975
 


--------------------------------------------------------------------------------------------------------


    POTLOK:  cpu time      0.0387: real time      0.0392


--------------------------------------------------------------------------------------------------------


     LOOP+:  cpu time    174.8856: real time    176.3792
 -----------------------------------------------------------------------------
|                                                                             |
|           W    W    AA    RRRRR   N    N  II  N    N   GGGG   !!!           |
|           W    W   A  A   R    R  NN   N  II  NN   N  G    G  !!!           |
|           W    W  A    A  R    R  N N  N  II  N N  N  G       !!!           |
|           W WW W  AAAAAA  RRRRR   N  N N  II  N  N N  G  GGG   !            |
|           WW  WW  A    A  R   R   N   NN  II  N   NN  G    G                |
|           W    W  A    A  R    R  N    N  II  N    N   GGGG   !!!           |
|                                                                             |
|     Tetrahedron method does not include variations of the Fermi             |
|     occupations, so forces and stress will be inaccurate. We suggest        |
|     using a different smearing scheme ISMEAR = 1 or 2 for metals in         |
|     relaxations.                                                            |
|                                                                             |
 -----------------------------------------------------------------------------

    4ORBIT:  cpu time      0.0000: real time      0.0000



 total charge

# of ion       s       p       d       tot
------------------------------------------
    1        0.330   6.278   5.996  12.605
    2        0.323   6.271   5.962  12.556
    3        0.323   6.271   5.962  12.556
    4        0.329   6.279   5.960  12.569
    5        0.329   6.280   5.960  12.569
    6        0.327   6.279   5.955  12.562
    7        0.330   6.278   5.996  12.605
    8        0.323   6.271   5.962  12.556
    9        0.323   6.271   5.962  12.556
   10        0.725   0.573   8.000   9.297
   11        0.725   0.573   8.000   9.298
   12        0.711   0.603   7.993   9.308
--------------------------------------------------
tot          5.100  58.228  77.709 141.037



 magnetization (x)

# of ion       s       p       d       tot
------------------------------------------
    1       -0.008   0.009  -2.799  -2.798
    2        0.013   0.002   2.800   2.815
    3        0.013   0.002   2.801   2.816
    4       -0.016  -0.025  -2.796  -2.836
    5       -0.016  -0.025  -2.795  -2.835
    6        0.006  -0.017   2.964   2.954
    7       -0.008   0.009  -2.799  -2.798
    8        0.013   0.002   2.800   2.815
    9        0.013   0.002   2.801   2.816
   10        0.007   0.018  -0.101  -0.077
   11        0.007   0.018  -0.101  -0.077
   12       -0.039  -0.089   0.381   0.253
--------------------------------------------------
tot         -0.016  -0.094   3.157   3.047
 
 BZINTS: Fermi energy:    8.590375;  156.000000 electrons
         Band energy:-0.181697E+04;  BLOECHL correction:   -0.023685

 total amount of memory used by VASP MPI-rank0   192028. kBytes
=======================================================================

   base      :      30000. kBytes
   nonl-proj :     113922. kBytes
   fftplans  :        955. kBytes
   grid      :       7297. kBytes
   one-center:        373. kBytes
   wavefun   :      39481. kBytes
 
  
  
 General timing and accounting informations for this job:
 ========================================================
  
                  Total CPU time used (sec):      191.960
                            User time (sec):      184.200
                          System time (sec):        7.760
                         Elapsed time (sec):      199.560
  
                   Maximum memory used (kb):      871040.
                   Average memory used (kb):          N/A
  
                          Minor page faults:       191174
                          Major page faults:          241
                 Voluntary context switches:         8174
