       N       E                     dE             d eps       ncg     rms          rms(c)
DAV:   1     0.207010801932E+04    0.20701E+04   -0.88947E+04 33500   0.205E+03
DAV:   2     0.121419384281E+03   -0.19487E+04   -0.18905E+04 32000   0.601E+02
DAV:   3    -0.825895508924E+02   -0.20401E+03   -0.18042E+03 44100   0.196E+02
DAV:   4    -0.961403890282E+02   -0.13551E+02   -0.13162E+02 46120   0.517E+01
DAV:   5    -0.964690080180E+02   -0.32862E+00   -0.32795E+00 45640   0.829E+00    0.251E+01
RMM:   6    -0.106552622076E+03   -0.10084E+02   -0.12934E+02 34116   0.749E+01    0.398E+01
RMM:   7    -0.898537074071E+02    0.16699E+02   -0.32087E+01 32076   0.438E+01    0.790E+00
RMM:   8    -0.902100310481E+02   -0.35632E+00   -0.31374E+00 46502   0.501E+00    0.331E+00
RMM:   9    -0.902633990514E+02   -0.53368E-01   -0.68615E-01 53008   0.258E+00    0.189E+00
RMM:  10    -0.902632703345E+02    0.12872E-03   -0.14926E-01 51479   0.116E+00    0.795E-01
RMM:  11    -0.902705419146E+02   -0.72716E-02   -0.28560E-02 50354   0.628E-01    0.302E-01
RMM:  12    -0.902726703660E+02   -0.21285E-02   -0.66453E-03 46666   0.255E-01    0.115E-01
RMM:  13    -0.902725183184E+02    0.15205E-03   -0.12984E-03 31508   0.132E-01
   1 F= -.98022500E+02 E0= -.98022500E+02  d E =0.000000E+00  mag=     0.0000
