       N       E                     dE             d eps       ncg     rms          rms(c)
DAV:   1     0.207182592432E+04    0.20718E+04   -0.88892E+04 33240   0.205E+03
DAV:   2     0.121403013148E+03   -0.19504E+04   -0.18931E+04 32000   0.602E+02
DAV:   3    -0.825537067720E+02   -0.20396E+03   -0.18097E+03 44380   0.197E+02
DAV:   4    -0.960516678473E+02   -0.13498E+02   -0.13136E+02 46000   0.512E+01
DAV:   5    -0.963713411119E+02   -0.31967E+00   -0.31887E+00 45420   0.819E+00    0.249E+01
RMM:   6    -0.105824150611E+03   -0.94528E+01   -0.12613E+02 32031   0.739E+01    0.388E+01
RMM:   7    -0.898778122568E+02    0.15946E+02   -0.31109E+01 32012   0.433E+01    0.776E+00
RMM:   8    -0.901979686081E+02   -0.32016E+00   -0.28864E+00 41199   0.491E+00    0.322E+00
RMM:   9    -0.902510797584E+02   -0.53111E-01   -0.65551E-01 47000   0.253E+00    0.183E+00
RMM:  10    -0.902520440608E+02   -0.96430E-03   -0.13808E-01 45308   0.113E+00    0.777E-01
RMM:  11    -0.902593871627E+02   -0.73431E-02   -0.27735E-02 44287   0.612E-01    0.291E-01
RMM:  12    -0.902611706097E+02   -0.17834E-02   -0.64159E-03 40501   0.252E-01    0.118E-01
RMM:  13    -0.902610742012E+02    0.96409E-04   -0.12287E-03 25195   0.134E-01
   1 F= -.98015329E+02 E0= -.98005203E+02  d E =-.980153E+02  mag=    -0.0000
       N       E                     dE             d eps       ncg     rms          rms(c)
DAV:   1    -0.903594150677E+02   -0.98244E-01   -0.22630E+00 38320   0.607E+00    0.220E+00
RMM:   2    -0.902945932061E+02    0.64822E-01   -0.99690E-02 34878   0.222E+00    0.117E+00
RMM:   3    -0.902903094872E+02    0.42837E-02   -0.97026E-02 32398   0.194E+00    0.107E+00
RMM:   4    -0.902787169293E+02    0.11593E-01   -0.37927E-02 32469   0.131E+00    0.143E-01
RMM:   5    -0.902793365815E+02   -0.61965E-03   -0.97138E-03 37104   0.351E-01    0.984E-02
RMM:   6    -0.902793450582E+02   -0.84766E-05   -0.15407E-03 28854   0.194E-01
   2 F= -.98030882E+02 E0= -.98020688E+02  d E =-.155532E-01  mag=    -0.0000
       N       E                     dE             d eps       ncg     rms          rms(c)
DAV:   1    -0.903512364499E+02   -0.71900E-01   -0.17150E+00 35420   0.529E+00    0.193E+00
RMM:   2    -0.903021473502E+02    0.49089E-01   -0.78228E-02 35163   0.197E+00    0.105E+00
RMM:   3    -0.902991727116E+02    0.29746E-02   -0.76665E-02 32610   0.174E+00    0.970E-01
RMM:   4    -0.902894842939E+02    0.96884E-02   -0.29514E-02 32418   0.115E+00    0.123E-01
RMM:   5    -0.902900086824E+02   -0.52439E-03   -0.78270E-03 36588   0.310E-01    0.879E-02
RMM:   6    -0.902900256177E+02   -0.16935E-04   -0.12945E-03 27582   0.175E-01
   3 F= -.98027416E+02 E0= -.98017045E+02  d E =-.120874E-01  mag=    -0.0000
       N       E                     dE             d eps       ncg     rms          rms(c)
DAV:   1    -0.903157440672E+02   -0.25735E-01   -0.95066E-01 35300   0.394E+00    0.140E+00
RMM:   2    -0.902884979952E+02    0.27246E-01   -0.39477E-02 34717   0.140E+00    0.728E-01
RMM:   3    -0.902863324358E+02    0.21656E-02   -0.37453E-02 32525   0.118E+00    0.642E-01
RMM:   4    -0.902822500749E+02    0.40824E-02   -0.14720E-02 32428   0.821E-01    0.972E-02
RMM:   5    -0.902824539934E+02   -0.20392E-03   -0.36504E-03 33485   0.220E-01    0.575E-02
RMM:   6    -0.902824499046E+02    0.40888E-05   -0.53833E-04 21618   0.134E-01
   4 F= -.98032432E+02 E0= -.98022151E+02  d E =-.171027E-01  mag=    -0.0000
