  16  16   1   0
  0.1993750E+02  0.7511573E-09  0.7511573E-09  0.5739918E-09  0.5000000E-15
  1.000000000000000E-004
  CAR 
 unknown system                          
     11.06493557    -54.20150542  301      3.58747697      1.00000000
    -54.202  0.0000E+00  0.0000E+00  0.0000E+00  0.0000E+00
    -53.984  0.0000E+00  0.0000E+00  0.0000E+00  0.0000E+00
    -53.766  0.0000E+00  0.0000E+00  0.0000E+00  0.0000E+00
    -53.549  0.0000E+00  0.0000E+00  0.0000E+00  0.0000E+00
    -53.331  0.0000E+00  0.0000E+00  0.0000E+00  0.0000E+00
    -53.114  0.0000E+00  0.0000E+00  0.0000E+00  0.0000E+00
    -52.896  0.0000E+00  0.0000E+00  0.0000E+00  0.0000E+00
    -52.679  0.0000E+00  0.0000E+00  0.0000E+00  0.0000E+00
    -52.461  0.0000E+00  0.0000E+00  0.0000E+00  0.0000E+00
    -52.244  0.0000E+00  0.0000E+00  0.0000E+00  0.0000E+00
    -52.026  0.0000E+00  0.0000E+00  0.0000E+00  0.0000E+00
    -51.808  0.0000E+00  0.0000E+00  0.0000E+00  0.0000E+00
    -51.591  0.0000E+00  0.0000E+00  0.0000E+00  0.0000E+00
    -51.373  0.3895E-05  0.3895E-05  0.8474E-06  0.8474E-06
    -51.156  0.1836E+00  0.1836E+00  0.3993E-01  0.3993E-01
    -50.938  0.2809E+00  0.2809E+00  0.1011E+00  0.1011E+00
    -50.721  0.9078E-01  0.9078E-01  0.1208E+00  0.1208E+00
    -50.503  0.1888E-02  0.1888E-02  0.1212E+00  0.1212E+00
    -50.286  0.0000E+00  0.0000E+00  0.1212E+00  0.1212E+00
    -50.068  0.0000E+00  0.0000E+00  0.1212E+00  0.1212E+00
    -49.850  0.0000E+00  0.0000E+00  0.1212E+00  0.1212E+00
    -49.633  0.0000E+00  0.0000E+00  0.1212E+00  0.1212E+00
    -49.415  0.0000E+00  0.0000E+00  0.1212E+00  0.1212E+00
    -49.198  0.0000E+00  0.0000E+00  0.1212E+00  0.1212E+00
    -48.980  0.0000E+00  0.0000E+00  0.1212E+00  0.1212E+00
    -48.763  0.0000E+00  0.0000E+00  0.1212E+00  0.1212E+00
    -48.545  0.7187E-06  0.7187E-06  0.1212E+00  0.1212E+00
    -48.328  0.2186E+00  0.2186E+00  0.1688E+00  0.1688E+00
    -48.110  0.9276E-01  0.9276E-01  0.1890E+00  0.1890E+00
    -47.892  0.2457E+00  0.2457E+00  0.2424E+00  0.2424E+00
    -47.675  0.1453E-04  0.1453E-04  0.2424E+00  0.2424E+00
    -47.457  0.0000E+00  0.0000E+00  0.2424E+00  0.2424E+00
    -47.240  0.0000E+00  0.0000E+00  0.2424E+00  0.2424E+00
    -47.022  0.0000E+00  0.0000E+00  0.2424E+00  0.2424E+00
    -46.805  0.0000E+00  0.0000E+00  0.2424E+00  0.2424E+00
    -46.587  0.0000E+00  0.0000E+00  0.2424E+00  0.2424E+00
    -46.370  0.0000E+00  0.0000E+00  0.2424E+00  0.2424E+00
    -46.152  0.0000E+00  0.0000E+00  0.2424E+00  0.2424E+00
    -45.934  0.0000E+00  0.0000E+00  0.2424E+00  0.2424E+00
    -45.717  0.0000E+00  0.0000E+00  0.2424E+00  0.2424E+00
    -45.499  0.0000E+00  0.0000E+00  0.2424E+00  0.2424E+00
    -45.282  0.0000E+00  0.0000E+00  0.2424E+00  0.2424E+00
    -45.064  0.0000E+00  0.0000E+00  0.2424E+00  0.2424E+00
    -44.847  0.0000E+00  0.0000E+00  0.2424E+00  0.2424E+00
    -44.629  0.0000E+00  0.0000E+00  0.2424E+00  0.2424E+00
    -44.412  0.0000E+00  0.0000E+00  0.2424E+00  0.2424E+00
    -44.194  0.0000E+00  0.0000E+00  0.2424E+00  0.2424E+00
    -43.976  0.0000E+00  0.0000E+00  0.2424E+00  0.2424E+00
    -43.759  0.0000E+00  0.0000E+00  0.2424E+00  0.2424E+00
    -43.541  0.0000E+00  0.0000E+00  0.2424E+00  0.2424E+00
    -43.324  0.0000E+00  0.0000E+00  0.2424E+00  0.2424E+00
    -43.106  0.0000E+00  0.0000E+00  0.2424E+00  0.2424E+00
    -42.889  0.0000E+00  0.0000E+00  0.2424E+00  0.2424E+00
    -42.671  0.0000E+00  0.0000E+00  0.2424E+00  0.2424E+00
    -42.454  0.0000E+00  0.0000E+00  0.2424E+00  0.2424E+00
    -42.236  0.0000E+00  0.0000E+00  0.2424E+00  0.2424E+00
    -42.018  0.0000E+00  0.0000E+00  0.2424E+00  0.2424E+00
    -41.801  0.0000E+00  0.0000E+00  0.2424E+00  0.2424E+00
    -41.583  0.0000E+00  0.0000E+00  0.2424E+00  0.2424E+00
    -41.366  0.0000E+00  0.0000E+00  0.2424E+00  0.2424E+00
    -41.148  0.0000E+00  0.0000E+00  0.2424E+00  0.2424E+00
    -40.931  0.0000E+00  0.0000E+00  0.2424E+00  0.2424E+00
    -40.713  0.0000E+00  0.0000E+00  0.2424E+00  0.2424E+00
    -40.496  0.0000E+00  0.0000E+00  0.2424E+00  0.2424E+00
    -40.278  0.0000E+00  0.0000E+00  0.2424E+00  0.2424E+00
    -40.060  0.0000E+00  0.0000E+00  0.2424E+00  0.2424E+00
    -39.843  0.0000E+00  0.0000E+00  0.2424E+00  0.2424E+00
    -39.625  0.0000E+00  0.0000E+00  0.2424E+00  0.2424E+00
    -39.408  0.0000E+00  0.0000E+00  0.2424E+00  0.2424E+00
    -39.190  0.0000E+00  0.0000E+00  0.2424E+00  0.2424E+00
    -38.973  0.0000E+00  0.0000E+00  0.2424E+00  0.2424E+00
    -38.755  0.0000E+00  0.0000E+00  0.2424E+00  0.2424E+00
    -38.538  0.0000E+00  0.0000E+00  0.2424E+00  0.2424E+00
    -38.320  0.0000E+00  0.0000E+00  0.2424E+00  0.2424E+00
    -38.102  0.0000E+00  0.0000E+00  0.2424E+00  0.2424E+00
    -37.885  0.0000E+00  0.0000E+00  0.2424E+00  0.2424E+00
    -37.667  0.0000E+00  0.0000E+00  0.2424E+00  0.2424E+00
    -37.450  0.0000E+00  0.0000E+00  0.2424E+00  0.2424E+00
    -37.232  0.0000E+00  0.0000E+00  0.2424E+00  0.2424E+00
    -37.015  0.0000E+00  0.0000E+00  0.2424E+00  0.2424E+00
    -36.797  0.0000E+00  0.0000E+00  0.2424E+00  0.2424E+00
    -36.580  0.0000E+00  0.0000E+00  0.2424E+00  0.2424E+00
    -36.362  0.0000E+00  0.0000E+00  0.2424E+00  0.2424E+00
    -36.144  0.0000E+00  0.0000E+00  0.2424E+00  0.2424E+00
    -35.927  0.0000E+00  0.0000E+00  0.2424E+00  0.2424E+00
    -35.709  0.0000E+00  0.0000E+00  0.2424E+00  0.2424E+00
    -35.492  0.0000E+00  0.0000E+00  0.2424E+00  0.2424E+00
    -35.274  0.0000E+00  0.0000E+00  0.2424E+00  0.2424E+00
    -35.057  0.0000E+00  0.0000E+00  0.2424E+00  0.2424E+00
    -34.839  0.0000E+00  0.0000E+00  0.2424E+00  0.2424E+00
    -34.622  0.0000E+00  0.0000E+00  0.2424E+00  0.2424E+00
    -34.404  0.0000E+00  0.0000E+00  0.2424E+00  0.2424E+00
    -34.186  0.0000E+00  0.0000E+00  0.2424E+00  0.2424E+00
    -33.969  0.0000E+00  0.0000E+00  0.2424E+00  0.2424E+00
    -33.751  0.0000E+00  0.0000E+00  0.2424E+00  0.2424E+00
    -33.534  0.0000E+00  0.0000E+00  0.2424E+00  0.2424E+00
    -33.316  0.0000E+00  0.0000E+00  0.2424E+00  0.2424E+00
    -33.099  0.0000E+00  0.0000E+00  0.2424E+00  0.2424E+00
    -32.881  0.0000E+00  0.0000E+00  0.2424E+00  0.2424E+00
    -32.664  0.0000E+00  0.0000E+00  0.2424E+00  0.2424E+00
    -32.446  0.0000E+00  0.0000E+00  0.2424E+00  0.2424E+00
    -32.228  0.0000E+00  0.0000E+00  0.2424E+00  0.2424E+00
    -32.011  0.0000E+00  0.0000E+00  0.2424E+00  0.2424E+00
    -31.793  0.0000E+00  0.0000E+00  0.2424E+00  0.2424E+00
    -31.576  0.0000E+00  0.0000E+00  0.2424E+00  0.2424E+00
    -31.358  0.0000E+00  0.0000E+00  0.2424E+00  0.2424E+00
    -31.141  0.0000E+00  0.0000E+00  0.2424E+00  0.2424E+00
    -30.923  0.0000E+00  0.0000E+00  0.2424E+00  0.2424E+00
    -30.706  0.0000E+00  0.0000E+00  0.2424E+00  0.2424E+00
    -30.488  0.0000E+00  0.0000E+00  0.2424E+00  0.2424E+00
    -30.270  0.0000E+00  0.0000E+00  0.2424E+00  0.2424E+00
    -30.053  0.0000E+00  0.0000E+00  0.2424E+00  0.2424E+00
    -29.835  0.0000E+00  0.0000E+00  0.2424E+00  0.2424E+00
    -29.618  0.0000E+00  0.0000E+00  0.2424E+00  0.2424E+00
    -29.400  0.0000E+00  0.0000E+00  0.2424E+00  0.2424E+00
    -29.183  0.0000E+00  0.0000E+00  0.2424E+00  0.2424E+00
    -28.965  0.0000E+00  0.0000E+00  0.2424E+00  0.2424E+00
    -28.748  0.0000E+00  0.0000E+00  0.2424E+00  0.2424E+00
    -28.530  0.0000E+00  0.0000E+00  0.2424E+00  0.2424E+00
    -28.312  0.0000E+00  0.0000E+00  0.2424E+00  0.2424E+00
    -28.095  0.0000E+00  0.0000E+00  0.2424E+00  0.2424E+00
    -27.877  0.0000E+00  0.0000E+00  0.2424E+00  0.2424E+00
    -27.660  0.0000E+00  0.0000E+00  0.2424E+00  0.2424E+00
    -27.442  0.0000E+00  0.0000E+00  0.2424E+00  0.2424E+00
    -27.225  0.0000E+00  0.0000E+00  0.2424E+00  0.2424E+00
    -27.007  0.0000E+00  0.0000E+00  0.2424E+00  0.2424E+00
    -26.790  0.0000E+00  0.0000E+00  0.2424E+00  0.2424E+00
    -26.572  0.0000E+00  0.0000E+00  0.2424E+00  0.2424E+00
    -26.354  0.0000E+00  0.0000E+00  0.2424E+00  0.2424E+00
    -26.137  0.0000E+00  0.0000E+00  0.2424E+00  0.2424E+00
    -25.919  0.0000E+00  0.0000E+00  0.2424E+00  0.2424E+00
    -25.702  0.0000E+00  0.0000E+00  0.2424E+00  0.2424E+00
    -25.484  0.0000E+00  0.0000E+00  0.2424E+00  0.2424E+00
    -25.267  0.0000E+00  0.0000E+00  0.2424E+00  0.2424E+00
    -25.049  0.0000E+00  0.0000E+00  0.2424E+00  0.2424E+00
    -24.832  0.0000E+00  0.0000E+00  0.2424E+00  0.2424E+00
    -24.614  0.0000E+00  0.0000E+00  0.2424E+00  0.2424E+00
    -24.396  0.0000E+00  0.0000E+00  0.2424E+00  0.2424E+00
    -24.179  0.0000E+00  0.0000E+00  0.2424E+00  0.2424E+00
    -23.961  0.0000E+00  0.0000E+00  0.2424E+00  0.2424E+00
    -23.744  0.0000E+00  0.0000E+00  0.2424E+00  0.2424E+00
    -23.526  0.0000E+00  0.0000E+00  0.2424E+00  0.2424E+00
    -23.309  0.0000E+00  0.0000E+00  0.2424E+00  0.2424E+00
    -23.091  0.0000E+00  0.0000E+00  0.2424E+00  0.2424E+00
    -22.874  0.0000E+00  0.0000E+00  0.2424E+00  0.2424E+00
    -22.656  0.0000E+00  0.0000E+00  0.2424E+00  0.2424E+00
    -22.439  0.0000E+00  0.0000E+00  0.2424E+00  0.2424E+00
    -22.221  0.0000E+00  0.0000E+00  0.2424E+00  0.2424E+00
    -22.003  0.0000E+00  0.0000E+00  0.2424E+00  0.2424E+00
    -21.786  0.0000E+00  0.0000E+00  0.2424E+00  0.2424E+00
    -21.568  0.0000E+00  0.0000E+00  0.2424E+00  0.2424E+00
    -21.351  0.0000E+00  0.0000E+00  0.2424E+00  0.2424E+00
    -21.133  0.0000E+00  0.0000E+00  0.2424E+00  0.2424E+00
    -20.916  0.0000E+00  0.0000E+00  0.2424E+00  0.2424E+00
    -20.698  0.0000E+00  0.0000E+00  0.2424E+00  0.2424E+00
    -20.481  0.0000E+00  0.0000E+00  0.2424E+00  0.2424E+00
    -20.263  0.0000E+00  0.0000E+00  0.2424E+00  0.2424E+00
    -20.045  0.0000E+00  0.0000E+00  0.2424E+00  0.2424E+00
    -19.828  0.0000E+00  0.0000E+00  0.2424E+00  0.2424E+00
    -19.610  0.0000E+00  0.0000E+00  0.2424E+00  0.2424E+00
    -19.393  0.0000E+00  0.0000E+00  0.2424E+00  0.2424E+00
    -19.175  0.0000E+00  0.0000E+00  0.2424E+00  0.2424E+00
    -18.958  0.0000E+00  0.0000E+00  0.2424E+00  0.2424E+00
    -18.740  0.0000E+00  0.0000E+00  0.2424E+00  0.2424E+00
    -18.523  0.0000E+00  0.0000E+00  0.2424E+00  0.2424E+00
    -18.305  0.0000E+00  0.0000E+00  0.2424E+00  0.2424E+00
    -18.087  0.0000E+00  0.0000E+00  0.2424E+00  0.2424E+00
    -17.870  0.0000E+00  0.0000E+00  0.2424E+00  0.2424E+00
    -17.652  0.0000E+00  0.0000E+00  0.2424E+00  0.2424E+00
    -17.435  0.0000E+00  0.0000E+00  0.2424E+00  0.2424E+00
    -17.217  0.0000E+00  0.0000E+00  0.2424E+00  0.2424E+00
    -17.000  0.0000E+00  0.0000E+00  0.2424E+00  0.2424E+00
    -16.782  0.0000E+00  0.0000E+00  0.2424E+00  0.2424E+00
    -16.565  0.0000E+00  0.0000E+00  0.2424E+00  0.2424E+00
    -16.347  0.0000E+00  0.0000E+00  0.2424E+00  0.2424E+00
    -16.129  0.0000E+00  0.0000E+00  0.2424E+00  0.2424E+00
    -15.912  0.0000E+00  0.0000E+00  0.2424E+00  0.2424E+00
    -15.694  0.0000E+00  0.0000E+00  0.2424E+00  0.2424E+00
    -15.477  0.0000E+00  0.0000E+00  0.2424E+00  0.2424E+00
    -15.259  0.0000E+00  0.0000E+00  0.2424E+00  0.2424E+00
    -15.042  0.0000E+00  0.0000E+00  0.2424E+00  0.2424E+00
    -14.824  0.0000E+00  0.0000E+00  0.2424E+00  0.2424E+00
    -14.607  0.0000E+00  0.0000E+00  0.2424E+00  0.2424E+00
    -14.389  0.0000E+00  0.0000E+00  0.2424E+00  0.2424E+00
    -14.171  0.0000E+00  0.0000E+00  0.2424E+00  0.2424E+00
    -13.954  0.0000E+00  0.0000E+00  0.2424E+00  0.2424E+00
    -13.736  0.0000E+00  0.0000E+00  0.2424E+00  0.2424E+00
    -13.519  0.0000E+00  0.0000E+00  0.2424E+00  0.2424E+00
    -13.301  0.0000E+00  0.0000E+00  0.2424E+00  0.2424E+00
    -13.084  0.0000E+00  0.0000E+00  0.2424E+00  0.2424E+00
    -12.866  0.0000E+00  0.0000E+00  0.2424E+00  0.2424E+00
    -12.649  0.0000E+00  0.0000E+00  0.2424E+00  0.2424E+00
    -12.431  0.0000E+00  0.0000E+00  0.2424E+00  0.2424E+00
    -12.213  0.0000E+00  0.0000E+00  0.2424E+00  0.2424E+00
    -11.996  0.0000E+00  0.0000E+00  0.2424E+00  0.2424E+00
    -11.778  0.0000E+00  0.0000E+00  0.2424E+00  0.2424E+00
    -11.561  0.0000E+00  0.0000E+00  0.2424E+00  0.2424E+00
    -11.343  0.0000E+00  0.0000E+00  0.2424E+00  0.2424E+00
    -11.126  0.0000E+00  0.0000E+00  0.2424E+00  0.2424E+00
    -10.908  0.0000E+00  0.0000E+00  0.2424E+00  0.2424E+00
    -10.691  0.8576E-07  0.8576E-07  0.2424E+00  0.2424E+00
    -10.473  0.2796E-02  0.2796E-02  0.2430E+00  0.2430E+00
    -10.255  0.1336E-01  0.1336E-01  0.2459E+00  0.2459E+00
    -10.038  0.2279E-01  0.2279E-01  0.2509E+00  0.2509E+00
     -9.820  0.3172E-01  0.3172E-01  0.2578E+00  0.2578E+00
     -9.603  0.4617E-01  0.4617E-01  0.2678E+00  0.2678E+00
     -9.385  0.9019E-01  0.9019E-01  0.2875E+00  0.2875E+00
     -9.168  0.8869E-01  0.8869E-01  0.3068E+00  0.3068E+00
     -8.950  0.6935E-01  0.6935E-01  0.3218E+00  0.3218E+00
     -8.733  0.6377E-02  0.6377E-02  0.3232E+00  0.3232E+00
     -8.515  0.1759E-05  0.1759E-05  0.3232E+00  0.3232E+00
     -8.297  0.0000E+00  0.0000E+00  0.3232E+00  0.3232E+00
     -8.080  0.0000E+00  0.0000E+00  0.3232E+00  0.3232E+00
     -7.862  0.0000E+00  0.0000E+00  0.3232E+00  0.3232E+00
     -7.645  0.0000E+00  0.0000E+00  0.3232E+00  0.3232E+00
     -7.427  0.0000E+00  0.0000E+00  0.3232E+00  0.3232E+00
     -7.210  0.0000E+00  0.0000E+00  0.3232E+00  0.3232E+00
     -6.992  0.0000E+00  0.0000E+00  0.3232E+00  0.3232E+00
     -6.775  0.0000E+00  0.0000E+00  0.3232E+00  0.3232E+00
     -6.557  0.0000E+00  0.0000E+00  0.3232E+00  0.3232E+00
     -6.339  0.0000E+00  0.0000E+00  0.3232E+00  0.3232E+00
     -6.122  0.0000E+00  0.0000E+00  0.3232E+00  0.3232E+00
     -5.904  0.0000E+00  0.0000E+00  0.3232E+00  0.3232E+00
     -5.687  0.0000E+00  0.0000E+00  0.3232E+00  0.3232E+00
     -5.469  0.0000E+00  0.0000E+00  0.3232E+00  0.3232E+00
     -5.252  0.0000E+00  0.0000E+00  0.3232E+00  0.3232E+00
     -5.034  0.0000E+00  0.0000E+00  0.3232E+00  0.3232E+00
     -4.817  0.0000E+00  0.0000E+00  0.3232E+00  0.3232E+00
     -4.599  0.0000E+00  0.0000E+00  0.3232E+00  0.3232E+00
     -4.381  0.0000E+00  0.0000E+00  0.3232E+00  0.3232E+00
     -4.164  0.0000E+00  0.0000E+00  0.3232E+00  0.3232E+00
     -3.946  0.0000E+00  0.0000E+00  0.3232E+00  0.3232E+00
     -3.729  0.0000E+00  0.0000E+00  0.3232E+00  0.3232E+00
     -3.511  0.0000E+00  0.0000E+00  0.3232E+00  0.3232E+00
     -3.294  0.0000E+00  0.0000E+00  0.3232E+00  0.3232E+00
     -3.076  0.0000E+00  0.0000E+00  0.3232E+00  0.3232E+00
     -2.859  0.0000E+00  0.0000E+00  0.3232E+00  0.3232E+00
     -2.641  0.2542E-09  0.2542E-09  0.3232E+00  0.3232E+00
     -2.423  0.4281E-03  0.4281E-03  0.3233E+00  0.3233E+00
     -2.206  0.4269E-02  0.4269E-02  0.3243E+00  0.3243E+00
     -1.988  0.1554E-01  0.1554E-01  0.3276E+00  0.3276E+00
     -1.771  0.5168E-01  0.5168E-01  0.3389E+00  0.3389E+00
     -1.553  0.7874E-01  0.7874E-01  0.3560E+00  0.3560E+00
     -1.336  0.6279E-01  0.6279E-01  0.3697E+00  0.3697E+00
     -1.118  0.5409E-01  0.5409E-01  0.3814E+00  0.3814E+00
     -0.901  0.6290E-01  0.6290E-01  0.3951E+00  0.3951E+00
     -0.683  0.8041E-01  0.8041E-01  0.4126E+00  0.4126E+00
     -0.465  0.6467E-01  0.6467E-01  0.4267E+00  0.4267E+00
     -0.248  0.9782E-01  0.9782E-01  0.4480E+00  0.4480E+00
     -0.030  0.1174E+00  0.1174E+00  0.4735E+00  0.4735E+00
      0.187  0.9914E-01  0.9914E-01  0.4951E+00  0.4951E+00
      0.405  0.1239E+00  0.1239E+00  0.5220E+00  0.5220E+00
      0.622  0.8457E-01  0.8457E-01  0.5404E+00  0.5404E+00
      0.840  0.6970E-01  0.6970E-01  0.5556E+00  0.5556E+00
      1.057  0.8991E-01  0.8991E-01  0.5752E+00  0.5752E+00
      1.275  0.1096E+00  0.1096E+00  0.5990E+00  0.5990E+00
      1.493  0.1231E+00  0.1231E+00  0.6258E+00  0.6258E+00
      1.710  0.1860E+00  0.1860E+00  0.6662E+00  0.6662E+00
      1.928  0.1609E+00  0.1609E+00  0.7012E+00  0.7012E+00
      2.145  0.8410E-01  0.8410E-01  0.7195E+00  0.7195E+00
      2.363  0.7885E-01  0.7885E-01  0.7367E+00  0.7367E+00
      2.580  0.5843E-01  0.5843E-01  0.7494E+00  0.7494E+00
      2.798  0.5920E-01  0.5920E-01  0.7623E+00  0.7623E+00
      3.015  0.4273E-01  0.4273E-01  0.7716E+00  0.7716E+00
      3.233  0.4320E-01  0.4320E-01  0.7810E+00  0.7810E+00
      3.451  0.6695E-01  0.6695E-01  0.7955E+00  0.7955E+00
      3.668  0.8274E-01  0.8274E-01  0.8135E+00  0.8135E+00
      3.886  0.8381E-01  0.8381E-01  0.8318E+00  0.8318E+00
      4.103  0.1481E+00  0.1481E+00  0.8640E+00  0.8640E+00
      4.321  0.9818E-01  0.9818E-01  0.8854E+00  0.8854E+00
      4.538  0.1027E+00  0.1027E+00  0.9077E+00  0.9077E+00
      4.756  0.8259E-01  0.8259E-01  0.9257E+00  0.9257E+00
      4.973  0.9869E-01  0.9869E-01  0.9471E+00  0.9471E+00
      5.191  0.5654E-01  0.5654E-01  0.9594E+00  0.9594E+00
      5.409  0.1104E-01  0.1104E-01  0.9618E+00  0.9618E+00
      5.626  0.1195E-01  0.1195E-01  0.9644E+00  0.9644E+00
      5.844  0.1486E-01  0.1486E-01  0.9677E+00  0.9677E+00
      6.061  0.8945E-02  0.8945E-02  0.9696E+00  0.9696E+00
      6.279  0.6495E-02  0.6494E-02  0.9710E+00  0.9710E+00
      6.496  0.6176E-02  0.6176E-02  0.9724E+00  0.9724E+00
      6.714  0.8599E-02  0.8599E-02  0.9742E+00  0.9742E+00
      6.931  0.1534E-01  0.1533E-01  0.9776E+00  0.9776E+00
      7.149  0.2088E-01  0.2087E-01  0.9821E+00  0.9821E+00
      7.367  0.3471E-01  0.3478E-01  0.9897E+00  0.9897E+00
      7.584  0.4488E-01  0.4485E-01  0.9994E+00  0.9994E+00
      7.802  0.3340E-01  0.3315E-01  0.1007E+01  0.1007E+01
      8.019  0.1253E-01  0.1274E-01  0.1009E+01  0.1009E+01
      8.237  0.3087E-02  0.3088E-02  0.1010E+01  0.1010E+01
      8.454  0.1741E-07  0.2562E-07  0.1010E+01  0.1010E+01
      8.672  0.0000E+00  0.0000E+00  0.1010E+01  0.1010E+01
      8.889  0.0000E+00  0.0000E+00  0.1010E+01  0.1010E+01
      9.107  0.0000E+00  0.0000E+00  0.1010E+01  0.1010E+01
      9.324  0.0000E+00  0.0000E+00  0.1010E+01  0.1010E+01
      9.542  0.0000E+00  0.0000E+00  0.1010E+01  0.1010E+01
      9.760  0.0000E+00  0.0000E+00  0.1010E+01  0.1010E+01
      9.977  0.0000E+00  0.0000E+00  0.1010E+01  0.1010E+01
     10.195  0.0000E+00  0.0000E+00  0.1010E+01  0.1010E+01
     10.412  0.0000E+00  0.0000E+00  0.1010E+01  0.1010E+01
     10.630  0.0000E+00  0.0000E+00  0.1010E+01  0.1010E+01
     10.847  0.0000E+00  0.0000E+00  0.1010E+01  0.1010E+01
     11.065  0.0000E+00  0.0000E+00  0.1010E+01  0.1010E+01
     11.06493557    -54.20150542  301      3.58747697      1.00000000
    -54.202  0.0000E+00  0.0000E+00  0.0000E+00  0.0000E+00  0.0000E+00  0.0000E+00  0.0000E+00  0.0000E+00  0.0000E+00  0.0000E+00  0.0000E+00  0.0000E+00  0.0000E+00  0.0000E+00  0.0000E+00  0.0000E+00  0.0000E+00  0.0000E+00
    -53.984  0.0000E+00  0.0000E+00  0.0000E+00  0.0000E+00  0.0000E+00  0.0000E+00  0.0000E+00  0.0000E+00  0.0000E+00  0.0000E+00  0.0000E+00  0.0000E+00  0.0000E+00  0.0000E+00  0.0000E+00  0.0000E+00  0.0000E+00  0.0000E+00
    -53.766  0.0000E+00  0.0000E+00  0.0000E+00  0.0000E+00  0.0000E+00  0.0000E+00  0.0000E+00  0.0000E+00  0.0000E+00  0.0000E+00  0.0000E+00  0.0000E+00  0.0000E+00  0.0000E+00  0.0000E+00  0.0000E+00  0.0000E+00  0.0000E+00
    -53.549  0.0000E+00  0.0000E+00  0.0000E+00  0.0000E+00  0.0000E+00  0.0000E+00  0.0000E+00  0.0000E+00  0.0000E+00  0.0000E+00  0.0000E+00  0.0000E+00  0.0000E+00  0.0000E+00  0.0000E+00  0.0000E+00  0.0000E+00  0.0000E+00
    -53.331  0.0000E+00  0.0000E+00  0.0000E+00  0.0000E+00  0.0000E+00  0.0000E+00  0.0000E+00  0.0000E+00  0.0000E+00  0.0000E+00  0.0000E+00  0.0000E+00  0.0000E+00  0.0000E+00  0.0000E+00  0.0000E+00  0.0000E+00  0.0000E+00
    -53.114  0.0000E+00  0.0000E+00  0.0000E+00  0.0000E+00  0.0000E+00  0.0000E+00  0.0000E+00  0.0000E+00  0.0000E+00  0.0000E+00  0.0000E+00  0.0000E+00  0.0000E+00  0.0000E+00  0.0000E+00  0.0000E+00  0.0000E+00  0.0000E+00
    -52.896  0.0000E+00  0.0000E+00  0.0000E+00  0.0000E+00  0.0000E+00  0.0000E+00  0.0000E+00  0.0000E+00  0.0000E+00  0.0000E+00  0.0000E+00  0.0000E+00  0.0000E+00  0.0000E+00  0.0000E+00  0.0000E+00  0.0000E+00  0.0000E+00
    -52.679  0.0000E+00  0.0000E+00  0.0000E+00  0.0000E+00  0.0000E+00  0.0000E+00  0.0000E+00  0.0000E+00  0.0000E+00  0.0000E+00  0.0000E+00  0.0000E+00  0.0000E+00  0.0000E+00  0.0000E+00  0.0000E+00  0.0000E+00  0.0000E+00
    -52.461  0.0000E+00  0.0000E+00  0.0000E+00  0.0000E+00  0.0000E+00  0.0000E+00  0.0000E+00  0.0000E+00  0.0000E+00  0.0000E+00  0.0000E+00  0.0000E+00  0.0000E+00  0.0000E+00  0.0000E+00  0.0000E+00  0.0000E+00  0.0000E+00
    -52.244  0.0000E+00  0.0000E+00  0.0000E+00  0.0000E+00  0.0000E+00  0.0000E+00  0.0000E+00  0.0000E+00  0.0000E+00  0.0000E+00  0.0000E+00  0.0000E+00  0.0000E+00  0.0000E+00  0.0000E+00  0.0000E+00  0.0000E+00  0.0000E+00
    -52.026  0.0000E+00  0.0000E+00  0.0000E+00  0.0000E+00  0.0000E+00  0.0000E+00  0.0000E+00  0.0000E+00  0.0000E+00  0.0000E+00  0.0000E+00  0.0000E+00  0.0000E+00  0.0000E+00  0.0000E+00  0.0000E+00  0.0000E+00  0.0000E+00
    -51.808  0.0000E+00  0.0000E+00  0.0000E+00  0.0000E+00  0.0000E+00  0.0000E+00  0.0000E+00  0.0000E+00  0.0000E+00  0.0000E+00  0.0000E+00  0.0000E+00  0.0000E+00  0.0000E+00  0.0000E+00  0.0000E+00  0.0000E+00  0.0000E+00
    -51.591  0.0000E+00  0.0000E+00  0.0000E+00  0.0000E+00  0.0000E+00  0.0000E+00  0.0000E+00  0.0000E+00  0.0000E+00  0.0000E+00  0.0000E+00  0.0000E+00  0.0000E+00  0.0000E+00  0.0000E+00  0.0000E+00  0.0000E+00  0.0000E+00
    -51.373  0.5040E-15  0.2453E-10  0.2503E-04  0.1245E-08  0.7096E-04  0.9670E-10  0.7497E-14  0.5901E-12  0.4264E-10  0.6633E-13  0.2215E-14  0.5114E-11  0.1842E-14  0.7167E-11  0.1122E-09  0.4361E-14  0.1908E-14  0.2818E-10
    -51.156  0.2527E-06  0.1327E-05  0.1317E+01  0.6682E-04  0.3161E+01  0.4461E-05  0.4555E-01  0.5992E-07  0.2414E-05  0.5632E-08  0.1416E-09  0.2282E-06  0.1154E-06  0.3953E-06  0.5823E-05  0.2241E-09  0.3464E-06  0.1479E-05
    -50.938  0.7465E-04  0.2597E-05  0.3258E+01  0.1481E-03  0.1416E+01  0.2938E-06  0.2249E+01  0.1248E-05  0.6040E-05  0.9797E-07  0.6137E-09  0.1523E-07  0.3412E-04  0.1015E-05  0.2590E-05  0.1474E-09  0.1024E-03  0.3192E-05
    -50.721  0.7502E-04  0.4618E-08  0.2994E-02  0.2034E-06  0.1089E-02  0.9297E-09  0.2237E+01  0.5919E-06  0.4993E-08  0.5042E-07  0.3858E-09  0.4526E-10  0.3425E-04  0.1789E-08  0.1909E-08  0.8851E-10  0.1028E-03  0.3030E-08
    -50.503  0.2638E-06  0.8218E-11  0.4351E-12  0.2709E-09  0.3489E-13  0.2985E-11  0.4666E-01  0.9585E-08  0.1482E-12  0.8351E-09  0.1608E-11  0.4766E-12  0.1204E-06  0.3211E-11  0.8579E-13  0.3323E-11  0.3615E-06  0.5402E-12
    -50.286  0.0000E+00  0.0000E+00  0.0000E+00  0.0000E+00  0.0000E+00  0.0000E+00  0.0000E+00  0.0000E+00  0.0000E+00  0.0000E+00  0.0000E+00  0.0000E+00  0.0000E+00  0.0000E+00  0.0000E+00  0.0000E+00  0.0000E+00  0.0000E+00
    -50.068  0.0000E+00  0.0000E+00  0.0000E+00  0.0000E+00  0.0000E+00  0.0000E+00  0.0000E+00  0.0000E+00  0.0000E+00  0.0000E+00  0.0000E+00  0.0000E+00  0.0000E+00  0.0000E+00  0.0000E+00  0.0000E+00  0.0000E+00  0.0000E+00
    -49.850  0.0000E+00  0.0000E+00  0.0000E+00  0.0000E+00  0.0000E+00  0.0000E+00  0.0000E+00  0.0000E+00  0.0000E+00  0.0000E+00  0.0000E+00  0.0000E+00  0.0000E+00  0.0000E+00  0.0000E+00  0.0000E+00  0.0000E+00  0.0000E+00
    -49.633  0.0000E+00  0.0000E+00  0.0000E+00  0.0000E+00  0.0000E+00  0.0000E+00  0.0000E+00  0.0000E+00  0.0000E+00  0.0000E+00  0.0000E+00  0.0000E+00  0.0000E+00  0.0000E+00  0.0000E+00  0.0000E+00  0.0000E+00  0.0000E+00
    -49.415  0.0000E+00  0.0000E+00  0.0000E+00  0.0000E+00  0.0000E+00  0.0000E+00  0.0000E+00  0.0000E+00  0.0000E+00  0.0000E+00  0.0000E+00  0.0000E+00  0.0000E+00  0.0000E+00  0.0000E+00  0.0000E+00  0.0000E+00  0.0000E+00
    -49.198  0.0000E+00  0.0000E+00  0.0000E+00  0.0000E+00  0.0000E+00  0.0000E+00  0.0000E+00  0.0000E+00  0.0000E+00  0.0000E+00  0.0000E+00  0.0000E+00  0.0000E+00  0.0000E+00  0.0000E+00  0.0000E+00  0.0000E+00  0.0000E+00
    -48.980  0.0000E+00  0.0000E+00  0.0000E+00  0.0000E+00  0.0000E+00  0.0000E+00  0.0000E+00  0.0000E+00  0.0000E+00  0.0000E+00  0.0000E+00  0.0000E+00  0.0000E+00  0.0000E+00  0.0000E+00  0.0000E+00  0.0000E+00  0.0000E+00
    -48.763  0.0000E+00  0.0000E+00  0.0000E+00  0.0000E+00  0.0000E+00  0.0000E+00  0.0000E+00  0.0000E+00  0.0000E+00  0.0000E+00  0.0000E+00  0.0000E+00  0.0000E+00  0.0000E+00  0.0000E+00  0.0000E+00  0.0000E+00  0.0000E+00
    -48.545  0.1116E-10  0.1039E-11  0.5599E-09  0.8077E-05  0.1023E-10  0.9267E-05  0.6871E-12  0.3668E-06  0.3406E-13  0.1742E-10  0.1223E-11  0.9970E-15  0.3398E-11  0.4688E-12  0.3657E-15  0.1998E-10  0.1249E-10  0.1415E-11
    -48.328  0.2836E-05  0.1704E-04  0.1436E-03  0.2051E+01  0.2554E-05  0.2311E+01  0.8688E-06  0.1025E+01  0.6905E-07  0.4569E-05  0.3032E-06  0.1004E-08  0.8645E-06  0.7739E-05  0.1419E-09  0.5197E-05  0.3150E-05  0.2331E-04
    -48.110  0.2147E-06  0.1220E-03  0.1024E-04  0.1654E+00  0.1476E-06  0.1707E+00  0.1056E-05  0.1950E+01  0.9616E-07  0.3767E-06  0.1622E-07  0.3185E-08  0.7202E-07  0.5579E-04  0.6256E-10  0.3922E-06  0.2422E-06  0.1678E-03
    -47.892  0.2621E-05  0.4323E-04  0.1101E-03  0.2363E+01  0.8091E-06  0.2097E+01  0.5429E-06  0.1604E+01  0.4915E-07  0.5346E-05  0.4725E-07  0.8849E-09  0.1032E-05  0.1981E-04  0.1057E-09  0.4781E-05  0.3166E-05  0.5955E-04
    -47.675  0.3352E-10  0.1173E-08  0.1426E-08  0.3058E-04  0.1039E-10  0.2670E-04  0.7514E-10  0.3017E-03  0.7800E-11  0.6641E-10  0.5999E-12  0.4122E-13  0.1320E-10  0.5395E-09  0.1051E-13  0.5892E-10  0.4075E-10  0.1619E-08
    -47.457  0.0000E+00  0.0000E+00  0.0000E+00  0.0000E+00  0.0000E+00  0.0000E+00  0.0000E+00  0.0000E+00  0.0000E+00  0.0000E+00  0.0000E+00  0.0000E+00  0.0000E+00  0.0000E+00  0.0000E+00  0.0000E+00  0.0000E+00  0.0000E+00
    -47.240  0.0000E+00  0.0000E+00  0.0000E+00  0.0000E+00  0.0000E+00  0.0000E+00  0.0000E+00  0.0000E+00  0.0000E+00  0.0000E+00  0.0000E+00  0.0000E+00  0.0000E+00  0.0000E+00  0.0000E+00  0.0000E+00  0.0000E+00  0.0000E+00
    -47.022  0.0000E+00  0.0000E+00  0.0000E+00  0.0000E+00  0.0000E+00  0.0000E+00  0.0000E+00  0.0000E+00  0.0000E+00  0.0000E+00  0.0000E+00  0.0000E+00  0.0000E+00  0.0000E+00  0.0000E+00  0.0000E+00  0.0000E+00  0.0000E+00
    -46.805  0.0000E+00  0.0000E+00  0.0000E+00  0.0000E+00  0.0000E+00  0.0000E+00  0.0000E+00  0.0000E+00  0.0000E+00  0.0000E+00  0.0000E+00  0.0000E+00  0.0000E+00  0.0000E+00  0.0000E+00  0.0000E+00  0.0000E+00  0.0000E+00
    -46.587  0.0000E+00  0.0000E+00  0.0000E+00  0.0000E+00  0.0000E+00  0.0000E+00  0.0000E+00  0.0000E+00  0.0000E+00  0.0000E+00  0.0000E+00  0.0000E+00  0.0000E+00  0.0000E+00  0.0000E+00  0.0000E+00  0.0000E+00  0.0000E+00
    -46.370  0.0000E+00  0.0000E+00  0.0000E+00  0.0000E+00  0.0000E+00  0.0000E+00  0.0000E+00  0.0000E+00  0.0000E+00  0.0000E+00  0.0000E+00  0.0000E+00  0.0000E+00  0.0000E+00  0.0000E+00  0.0000E+00  0.0000E+00  0.0000E+00
    -46.152  0.0000E+00  0.0000E+00  0.0000E+00  0.0000E+00  0.0000E+00  0.0000E+00  0.0000E+00  0.0000E+00  0.0000E+00  0.0000E+00  0.0000E+00  0.0000E+00  0.0000E+00  0.0000E+00  0.0000E+00  0.0000E+00  0.0000E+00  0.0000E+00
    -45.934  0.0000E+00  0.0000E+00  0.0000E+00  0.0000E+00  0.0000E+00  0.0000E+00  0.0000E+00  0.0000E+00  0.0000E+00  0.0000E+00  0.0000E+00  0.0000E+00  0.0000E+00  0.0000E+00  0.0000E+00  0.0000E+00  0.0000E+00  0.0000E+00
    -45.717  0.0000E+00  0.0000E+00  0.0000E+00  0.0000E+00  0.0000E+00  0.0000E+00  0.0000E+00  0.0000E+00  0.0000E+00  0.0000E+00  0.0000E+00  0.0000E+00  0.0000E+00  0.0000E+00  0.0000E+00  0.0000E+00  0.0000E+00  0.0000E+00
    -45.499  0.0000E+00  0.0000E+00  0.0000E+00  0.0000E+00  0.0000E+00  0.0000E+00  0.0000E+00  0.0000E+00  0.0000E+00  0.0000E+00  0.0000E+00  0.0000E+00  0.0000E+00  0.0000E+00  0.0000E+00  0.0000E+00  0.0000E+00  0.0000E+00
    -45.282  0.0000E+00  0.0000E+00  0.0000E+00  0.0000E+00  0.0000E+00  0.0000E+00  0.0000E+00  0.0000E+00  0.0000E+00  0.0000E+00  0.0000E+00  0.0000E+00  0.0000E+00  0.0000E+00  0.0000E+00  0.0000E+00  0.0000E+00  0.0000E+00
    -45.064  0.0000E+00  0.0000E+00  0.0000E+00  0.0000E+00  0.0000E+00  0.0000E+00  0.0000E+00  0.0000E+00  0.0000E+00  0.0000E+00  0.0000E+00  0.0000E+00  0.0000E+00  0.0000E+00  0.0000E+00  0.0000E+00  0.0000E+00  0.0000E+00
    -44.847  0.0000E+00  0.0000E+00  0.0000E+00  0.0000E+00  0.0000E+00  0.0000E+00  0.0000E+00  0.0000E+00  0.0000E+00  0.0000E+00  0.0000E+00  0.0000E+00  0.0000E+00  0.0000E+00  0.0000E+00  0.0000E+00  0.0000E+00  0.0000E+00
    -44.629  0.0000E+00  0.0000E+00  0.0000E+00  0.0000E+00  0.0000E+00  0.0000E+00  0.0000E+00  0.0000E+00  0.0000E+00  0.0000E+00  0.0000E+00  0.0000E+00  0.0000E+00  0.0000E+00  0.0000E+00  0.0000E+00  0.0000E+00  0.0000E+00
    -44.412  0.0000E+00  0.0000E+00  0.0000E+00  0.0000E+00  0.0000E+00  0.0000E+00  0.0000E+00  0.0000E+00  0.0000E+00  0.0000E+00  0.0000E+00  0.0000E+00  0.0000E+00  0.0000E+00  0.0000E+00  0.0000E+00  0.0000E+00  0.0000E+00
    -44.194  0.0000E+00  0.0000E+00  0.0000E+00  0.0000E+00  0.0000E+00  0.0000E+00  0.0000E+00  0.0000E+00  0.0000E+00  0.0000E+00  0.0000E+00  0.0000E+00  0.0000E+00  0.0000E+00  0.0000E+00  0.0000E+00  0.0000E+00  0.0000E+00
    -43.976  0.0000E+00  0.0000E+00  0.0000E+00  0.0000E+00  0.0000E+00  0.0000E+00  0.0000E+00  0.0000E+00  0.0000E+00  0.0000E+00  0.0000E+00  0.0000E+00  0.0000E+00  0.0000E+00  0.0000E+00  0.0000E+00  0.0000E+00  0.0000E+00
    -43.759  0.0000E+00  0.0000E+00  0.0000E+00  0.0000E+00  0.0000E+00  0.0000E+00  0.0000E+00  0.0000E+00  0.0000E+00  0.0000E+00  0.0000E+00  0.0000E+00  0.0000E+00  0.0000E+00  0.0000E+00  0.0000E+00  0.0000E+00  0.0000E+00
    -43.541  0.0000E+00  0.0000E+00  0.0000E+00  0.0000E+00  0.0000E+00  0.0000E+00  0.0000E+00  0.0000E+00  0.0000E+00  0.0000E+00  0.0000E+00  0.0000E+00  0.0000E+00  0.0000E+00  0.0000E+00  0.0000E+00  0.0000E+00  0.0000E+00
    -43.324  0.0000E+00  0.0000E+00  0.0000E+00  0.0000E+00  0.0000E+00  0.0000E+00  0.0000E+00  0.0000E+00  0.0000E+00  0.0000E+00  0.0000E+00  0.0000E+00  0.0000E+00  0.0000E+00  0.0000E+00  0.0000E+00  0.0000E+00  0.0000E+00