       N       E                     dE             d eps       ncg     rms          rms(c)
DAV:   1     0.200924149992E+04    0.20092E+04   -0.88914E+04 35440   0.195E+03
DAV:   2     0.121940318397E+03   -0.18873E+04   -0.18329E+04 32000   0.568E+02
DAV:   3    -0.853247782284E+02   -0.20727E+03   -0.18454E+03 46020   0.186E+02
DAV:   4    -0.997648217556E+02   -0.14440E+02   -0.14131E+02 46980   0.509E+01
DAV:   5    -0.100106065988E+03   -0.34124E+00   -0.34053E+00 45100   0.826E+00    0.277E+01
RMM:   6    -0.113722977404E+03   -0.13617E+02   -0.17405E+02 32070   0.854E+01    0.536E+01
RMM:   7    -0.909650130768E+02    0.22758E+02   -0.44468E+01 32018   0.513E+01    0.114E+01
RMM:   8    -0.915418190528E+02   -0.57681E+00   -0.29870E+00 41237   0.504E+00    0.537E+00
RMM:   9    -0.916210820454E+02   -0.79263E-01   -0.89229E-01 44505   0.289E+00    0.277E+00
RMM:  10    -0.916449102126E+02   -0.23828E-01   -0.28452E-01 46115   0.159E+00    0.155E+00
RMM:  11    -0.916454548115E+02   -0.54460E-03   -0.62523E-02 42231   0.104E+00    0.566E-01
RMM:  12    -0.916535741080E+02   -0.81193E-02   -0.18970E-02 43270   0.478E-01    0.319E-01
RMM:  13    -0.916536888679E+02   -0.11476E-03   -0.46564E-03 38500   0.228E-01    0.143E-01
RMM:  14    -0.916536387018E+02    0.50166E-04   -0.14189E-03 26711   0.140E-01
   1 F= -.98278804E+02 E0= -.98269302E+02  d E =-.982788E+02  mag=    -0.0000
       N       E                     dE             d eps       ncg     rms          rms(c)
DAV:   1    -0.916909517016E+02   -0.37263E-01   -0.84826E-01 38240   0.378E+00    0.131E+00
RMM:   2    -0.916687230903E+02    0.22229E-01   -0.50703E-02 35110   0.158E+00    0.102E+00
RMM:   3    -0.916621734342E+02    0.65497E-02   -0.40267E-02 32064   0.132E+00    0.673E-01
RMM:   4    -0.916576620448E+02    0.45114E-02   -0.11915E-02 32565   0.601E-01    0.215E-01
RMM:   5    -0.916578520238E+02   -0.18998E-03   -0.32729E-03 32926   0.228E-01    0.139E-01
RMM:   6    -0.916576935859E+02    0.15844E-03   -0.66250E-04 22944   0.148E-01
   2 F= -.98283649E+02 E0= -.98274377E+02  d E =-.484458E-02  mag=     0.0000
       N       E                     dE             d eps       ncg     rms          rms(c)
DAV:   1    -0.917071075149E+02   -0.49255E-01   -0.12528E+00 35060   0.458E+00    0.159E+00
RMM:   2    -0.916743651172E+02    0.32742E-01   -0.75433E-02 35146   0.192E+00    0.125E+00
RMM:   3    -0.916642474932E+02    0.10118E-01   -0.59495E-02 32064   0.162E+00    0.812E-01
RMM:   4    -0.916577790802E+02    0.64684E-02   -0.17768E-02 33295   0.718E-01    0.269E-01
RMM:   5    -0.916580484853E+02   -0.26941E-03   -0.50463E-03 34791   0.273E-01    0.175E-01
RMM:   6    -0.916578026953E+02    0.24579E-03   -0.10388E-03 26353   0.185E-01    0.707E-02
RMM:   7    -0.916578254293E+02   -0.22734E-04   -0.45936E-04 20829   0.905E-02
   3 F= -.98284723E+02 E0= -.98275700E+02  d E =-.591847E-02  mag=     0.0000
       N       E                     dE             d eps       ncg     rms          rms(c)
DAV:   1    -0.916656852482E+02   -0.78826E-02   -0.39914E-01 33840   0.215E+00    0.673E-01
RMM:   2    -0.916627889243E+02    0.28963E-02   -0.27939E-02 33680   0.102E+00    0.610E-01
RMM:   3    -0.916606556853E+02    0.21332E-02   -0.14861E-02 33075   0.790E-01    0.288E-01
RMM:   4    -0.916601714906E+02    0.48419E-03   -0.43016E-03 31942   0.288E-01    0.103E-01
RMM:   5    -0.916602440104E+02   -0.72520E-04   -0.10097E-03 25438   0.130E-01
   4 F= -.98287705E+02 E0= -.98278633E+02  d E =-.298272E-02  mag=    -0.0000
       N       E                     dE             d eps       ncg     rms          rms(c)
DAV:   1    -0.916755440854E+02   -0.15373E-01   -0.10570E+00 32120   0.348E+00    0.109E+00
RMM:   2    -0.916675448132E+02    0.79993E-02   -0.71123E-02 34084   0.163E+00    0.961E-01
RMM:   3    -0.916625849902E+02    0.49598E-02   -0.38396E-02 33096   0.126E+00    0.478E-01
RMM:   4    -0.916611148957E+02    0.14701E-02   -0.11153E-02 34607   0.477E-01    0.168E-01
RMM:   5    -0.916613418653E+02   -0.22697E-03   -0.27937E-03 32164   0.206E-01    0.125E-01
RMM:   6    -0.916612282599E+02    0.11361E-03   -0.43207E-04 20396   0.122E-01
   5 F= -.98289598E+02 E0= -.98280493E+02  d E =-.487494E-02  mag=     0.0000
       N       E                     dE             d eps       ncg     rms          rms(c)
DAV:   1    -0.916684088233E+02   -0.70670E-02   -0.16084E-01 36960   0.163E+00    0.579E-01
RMM:   2    -0.916632819753E+02    0.51268E-02   -0.62665E-03 34571   0.558E-01    0.278E-01
RMM:   3    -0.916621714159E+02    0.11106E-02   -0.37954E-03 30952   0.261E-01    0.720E-02
RMM:   4    -0.916622299518E+02   -0.58536E-04   -0.74401E-04 23601   0.150E-01
   6 F= -.98290482E+02 E0= -.98281335E+02  d E =-.884131E-03  mag=    -0.0000
       N       E                     dE             d eps       ncg     rms          rms(c)
DAV:   1    -0.917179766764E+02   -0.55805E-01   -0.14296E+00 32520   0.486E+00    0.174E+00
RMM:   2    -0.916719513978E+02    0.46025E-01   -0.55981E-02 34408   0.167E+00    0.844E-01
RMM:   3    -0.916620472580E+02    0.99041E-02   -0.35152E-02 34215   0.790E-01    0.272E-01
RMM:   4    -0.916626126431E+02   -0.56539E-03   -0.73278E-03 34715   0.495E-01    0.180E-01
RMM:   5    -0.916625073195E+02    0.10532E-03   -0.25700E-03 29869   0.286E-01    0.990E-02
RMM:   6    -0.916624058496E+02    0.10147E-03   -0.10870E-03 26078   0.135E-01
   7 F= -.98290369E+02 E0= -.98280954E+02  d E =-.771870E-03  mag=    -0.0000
