 vasp.6.4.1 05Apr23 (build Jun 01 2023 13:46:15) complex                        
  
 executed on             LinuxIFC date 2023.12.16  21:21:04
 running   20 mpi-ranks, on    5 nodes
 distrk:  each k-point on   20 cores,    1 groups
 distr:  one band on NCORE=   1 cores,   20 groups


--------------------------------------------------------------------------------------------------------


 INCAR:
   ALGO = Fast
   EDIFF = 0.0002
   ENCUT = 550
   IBRION = 2
   ISIF = 4
   ISMEAR = 0
   ISPIN = 2
   IVDW = 13
   LASPH = True
   LMAXMIX = 4
   LORBIT = 11
   LREAL = Auto
   LWAVE = False
   MAGMOM = 1*2.609 2*-2.609 2*2.609 2*-2.609 1*2.609 8*0.0
   NELM = 100
   NSW = 99
   PREC = Accurate
   SIGMA = 0.05

 POTCAR:   PAW_PBE Fe_pv 06Sep2000                
 POTCAR:   PAW_PBE Se 06Sep2000                   
 -----------------------------------------------------------------------------
|                                                                             |
|           W    W    AA    RRRRR   N    N  II  N    N   GGGG   !!!           |
|           W    W   A  A   R    R  NN   N  II  NN   N  G    G  !!!           |
|           W    W  A    A  R    R  N N  N  II  N N  N  G       !!!           |
|           W WW W  AAAAAA  RRRRR   N  N N  II  N  N N  G  GGG   !            |
|           WW  WW  A    A  R   R   N   NN  II  N   NN  G    G                |
|           W    W  A    A  R    R  N    N  II  N    N   GGGG   !!!           |
|                                                                             |
|     For optimal performance we recommend to set                             |
|       NCORE = 2 up to number-of-cores-per-socket                            |
|     NCORE specifies how many cores store one orbital (NPAR=cpu/NCORE).      |
|     This setting can greatly improve the performance of VASP for DFT.       |
|     The default, NCORE=1 might be grossly inefficient on modern             |
|     multi-core architectures or massively parallel machines. Do your        |
|     own testing! More info at https://www.vasp.at/wiki/index.php/NCORE      |
|     Unfortunately you need to use the default for GW and RPA                |
|     calculations (for HF NCORE is supported but not extensively tested      |
|     yet).                                                                   |
|                                                                             |
 -----------------------------------------------------------------------------

 POTCAR:   PAW_PBE Fe_pv 06Sep2000                
   VRHFIN =Fe:  3pd7s1                                                                              
   LEXCH  = PE                                                                                      
   EATOM  =  2456.8974 eV,  180.5769 Ry                                                             
                                                                                                    
   TITEL  = PAW_PBE Fe_pv 06Sep2000                                                                 
   LULTRA =        F    use ultrasoft PP ?                                                          
   IUNSCR =        1    unscreen: 0-lin 1-nonlin 2-no                                               
   RPACOR =    1.750    partial core radius                                                         
   POMASS =   55.847; ZVAL   =   14.000    mass and valenz                                          
   RCORE  =    2.200    outmost cutoff radius                                                       
   RWIGS  =    2.200; RWIGS  =    1.164    wigner-seitz radius (au A)                               
   ENMAX  =  293.238; ENMIN  =  219.929 eV                                                          
   RCLOC  =    1.701    cutoff for local pot                                                        
   LCOR   =        T    correct aug charges                                                         
   LPAW   =        T    paw PP                                                                      
   EAUG   =  578.342                                                                                
   DEXC   =    -.002                                                                                
   RMAX   =    2.693    core radius for proj-oper                                                   
   RAUG   =    1.300    factor for augmentation sphere                                              
   RDEP   =    2.296    radius for radial grids                                                     
   QCUT   =   -4.642; QGAM   =    9.285    optimization parameters                                  
                                                                                                    
   Description                                                                                      
     l     E      TYP  RCUT    TYP  RCUT                                                            
     1   .000     23  2.000                                                                         
     1  -.400     23  2.000                                                                         
     2   .000     23  2.200                                                                         
     2   .000     23  2.200                                                                         
     0   .000     23  2.000                                                                         
     0  2.000     23  2.000                                                                         
     3   .000      7   .000                                                                         
  local pseudopotential read in
  partial core-charges read in
  atomic valenz-charges read in
  non local Contribution for L=           1  read in
    real space projection operators read in
  non local Contribution for L=           1  read in
    real space projection operators read in
  non local Contribution for L=           2  read in
    real space projection operators read in
  non local Contribution for L=           2  read in
    real space projection operators read in
  non local Contribution for L=           0  read in
    real space projection operators read in
  non local Contribution for L=           0  read in
    real space projection operators read in
    PAW grid and wavefunctions read in
 
   number of l-projection  operators is LMAX  =           6
   number of lm-projection operators is LMMAX =          18
 
 POTCAR:   PAW_PBE Se 06Sep2000                   
   VRHFIN =Se: s2p4                                                                                 
   LEXCH  = PE                                                                                      
   EATOM  =   256.9644 eV,   18.8864 Ry                                                             
                                                                                                    
   TITEL  = PAW_PBE Se 06Sep2000                                                                    
   LULTRA =        F    use ultrasoft PP ?                                                          
   IUNSCR =        1    unscreen: 0-lin 1-nonlin 2-no                                               
   RPACOR =    1.900    partial core radius                                                         
   POMASS =   78.960; ZVAL   =    6.000    mass and valenz                                          
   RCORE  =    2.100    outmost cutoff radius                                                       
   RWIGS  =    2.200; RWIGS  =    1.164    wigner-seitz radius (au A)                               
   ENMAX  =  211.534; ENMIN  =  158.651 eV                                                          
   ICORE  =        3    local potential                                                             
   LCOR   =        T    correct aug charges                                                         
   LPAW   =        T    paw PP                                                                      
   EAUG   =  446.842                                                                                
   DEXC   =    -.031                                                                                
   RMAX   =    3.170    core radius for proj-oper                                                   
   RAUG   =    1.300    factor for augmentation sphere                                              
   RDEP   =    2.177    radius for radial grids                                                     
   QCUT   =   -3.943; QGAM   =    7.886    optimization parameters                                  
                                                                                                    
   Description                                                                                      
     l     E      TYP  RCUT    TYP  RCUT                                                            
     0   .000     23  2.100                                                                         
     0   .000     23  2.100                                                                         
     1   .000     23  2.100                                                                         
     1   .000     23  2.100                                                                         
     2   .000     23  2.100                                                                         
     3  -.100      7  2.100                                                                         
  local pseudopotential read in
  partial core-charges read in
  atomic valenz-charges read in
  non local Contribution for L=           0  read in
    real space projection operators read in
  non local Contribution for L=           0  read in
    real space projection operators read in
  non local Contribution for L=           1  read in
    real space projection operators read in
  non local Contribution for L=           1  read in
    real space projection operators read in
  non local Contribution for L=           2  read in
    real space projection operators read in
    PAW grid and wavefunctions read in
 
   number of l-projection  operators is LMAX  =           5
   number of lm-projection operators is LMMAX =          13
 
 Optimization of the real space projectors (new method)

 maximal supplied QI-value         = 17.01
 optimisation between [QCUT,QGAM] = [ 11.91, 23.98] = [ 39.69,161.04] Ry 
 Optimized for a Real-space Cutoff    1.45 Angstroem

   l    n(q)    QCUT    max X(q) W(low)/X(q) W(high)/X(q)  e(spline) 
   1     10    11.905     4.550    0.27E-05    0.11E-05    0.28E-07
   1     10    11.905     5.234    0.10E-04    0.61E-04    0.17E-06
   2      9    11.905     3.960    0.19E-04    0.73E-05    0.50E-07
   2      9    11.905    29.565    0.24E-03    0.51E-04    0.27E-06
   0     10    11.905    23.582    0.17E-04    0.10E-05    0.14E-07
   0     10    11.905    39.747    0.23E-04    0.68E-05    0.74E-07
 Optimization of the real space projectors (new method)

 maximal supplied QI-value         = 17.95
 optimisation between [QCUT,QGAM] = [ 11.85, 23.88] = [ 39.31,159.64] Ry 
 Optimized for a Real-space Cutoff    1.18 Angstroem

   l    n(q)    QCUT    max X(q) W(low)/X(q) W(high)/X(q)  e(spline) 
   0      8    11.849     6.499    0.17E-04    0.94E-05    0.89E-08
   0      8    11.849    52.623    0.21E-03    0.78E-04    0.81E-07
   1      8    11.849     4.229    0.79E-04    0.83E-04    0.23E-07
   1      8    11.849    29.991    0.12E-03    0.43E-03    0.14E-06
   2      7    11.849     3.719    0.22E-03    0.64E-04    0.38E-07
 PAW_PBE Fe_pv 06Sep2000                :
 energy of atom  1       EATOM=-2456.8974
 kinetic energy error for atom=    0.0060 (will be added to EATOM!!)
 PAW_PBE Se 06Sep2000                   :
 energy of atom  2       EATOM= -256.9644
 kinetic energy error for atom=    0.0007 (will be added to EATOM!!)
 
 
 POSCAR: Fe8 Se8
  positions in direct lattice
  No initial velocities read in
 exchange correlation table for  LEXCH =        8
   RHO(1)=    0.500       N(1)  =     2000
   RHO(2)=  100.500       N(2)  =     4000
 


--------------------------------------------------------------------------------------------------------


 ion  position               nearest neighbor table
   1  0.000  0.000  0.000-  11 2.28  14 2.28   5 2.42   8 2.42
   2  0.000  0.500  0.000-  12 2.28  13 2.28   6 2.42   7 2.42
   3  0.500  0.000  0.000-   9 2.28  16 2.28   6 2.42   7 2.42
   4  0.500  0.500  0.000-  10 2.28  15 2.28   5 2.42   8 2.42
   5  0.250  0.250  0.000-   9 2.28  13 2.28   1 2.42   4 2.42
   6  0.250  0.750  0.000-  10 2.28  14 2.28   2 2.42   3 2.42
   7  0.750  0.250  0.000-  11 2.28  15 2.28   2 2.42   3 2.42
   8  0.750  0.750  0.000-  12 2.28  16 2.28   1 2.42   4 2.42
   9  0.375  0.125  0.692-   3 2.28   5 2.28
  10  0.375  0.625  0.692-   4 2.28   6 2.28
  11  0.875  0.125  0.692-   1 2.28   7 2.28
  12  0.875  0.625  0.692-   2 2.28   8 2.28
  13  0.125  0.375  0.308-   2 2.28   5 2.28
  14  0.125  0.875  0.308-   1 2.28   6 2.28
  15  0.625  0.375  0.308-   4 2.28   7 2.28
  16  0.625  0.875  0.308-   3 2.28   8 2.28
 
  LATTYP: Found a base centered orthorhombic cell.
 ALAT       =     9.6621001078
 B/A-ratio  =     1.1906166872
 C/A-ratio  =     0.5940652036
  
  Lattice vectors:
  
 A1 = (   4.8310500539,  -5.7519288109,   0.0000000000)
 A2 = (   4.8310500539,   5.7519288109,   0.0000000000)
 A3 = (   0.0000000000,   0.0000000000,   5.7399174677)


Analysis of symmetry for initial positions (statically):
=====================================================================
 Subroutine PRICEL returns following result:
 
  LATTYP: Found a base centered orthorhombic cell.
 ALAT       =     4.8310500539
 B/A-ratio  =     1.1906166872
 C/A-ratio  =     1.1881304072
  
  Lattice vectors:
  
 A1 = (   2.4155250270,  -2.8759644055,   0.0000000000)
 A2 = (   2.4155250270,   2.8759644055,   0.0000000000)
 A3 = (   0.0000000000,   0.0000000000,   5.7399174677)
 
   4 primitive cells build up your supercell.
 

 Routine SETGRP: Setting up the symmetry group for a 
 base centered orthorhombic supercell.


 Subroutine GETGRP returns: Found  8 space group operations
 (whereof  4 operations were pure point group operations)
 out of a pool of  8 trial point group operations.


The static configuration has the point symmetry C_2h.
 The point group associated with its full space group is D_2h.


Analysis of symmetry for dynamics (positions and initial velocities):
=====================================================================
 Subroutine PRICEL returns following result:
 
  LATTYP: Found a base centered orthorhombic cell.
 ALAT       =     4.8310500539
 B/A-ratio  =     1.1906166872
 C/A-ratio  =     1.1881304072
  
  Lattice vectors:
  
 A1 = (   2.4155250270,  -2.8759644055,   0.0000000000)
 A2 = (   2.4155250270,   2.8759644055,   0.0000000000)
 A3 = (   0.0000000000,   0.0000000000,   5.7399174677)
 
   4 primitive cells build up your supercell.
 

 Routine SETGRP: Setting up the symmetry group for a 
 base centered orthorhombic supercell.


 Subroutine GETGRP returns: Found  8 space group operations
 (whereof  4 operations were pure point group operations)
 out of a pool of  8 trial point group operations.


The dynamic configuration has the point symmetry C_2h.
 The point group associated with its full space group is D_2h.


Analysis of structural, dynamic, and magnetic symmetry:
=====================================================================
 Subroutine PRICEL returns following result:
 
  LATTYP: Found a base centered orthorhombic cell.
 ALAT       =     4.8310500539
 B/A-ratio  =     1.1906166872
 C/A-ratio  =     1.1881304072
  
  Lattice vectors:
  
 A1 = (   2.4155250270,  -2.8759644055,   0.0000000000)
 A2 = (   2.4155250270,   2.8759644055,   0.0000000000)
 A3 = (   0.0000000000,   0.0000000000,   5.7399174677)
 
   4 primitive cells build up your supercell.
 

 Routine SETGRP: Setting up the symmetry group for a 
 base centered orthorhombic supercell.


 Subroutine GETGRP returns: Found  8 space group operations
 (whereof  4 operations were pure point group operations)
 out of a pool of  8 trial point group operations.


The overall configuration has the point symmetry C_2h.
 The point group associated with its full space group is D_2h.


 Subroutine INISYM returns: Found  8 space group operations
 (whereof  4 operations are pure point group operations),
 and found     4 'primitive' translations


----------------------------------------------------------------------------------------

                                     Primitive cell                                     

  volume of cell :      79.7500

  direct lattice vectors                    reciprocal lattice vectors
     2.415525027 -2.875964405  0.000000000     0.206994336 -0.173854725  0.000000000
     2.415525027  2.875964405  0.000000000     0.206994336  0.173854725  0.000000000
     0.000000000  0.000000000  5.739917468     0.000000000  0.000000000  0.174218533

  length of vectors
     3.755786524  3.755786524  5.739917468     0.270318554  0.270318554  0.174218533

  position of ions in fractional coordinates (direct lattice)
     0.000000000  0.000000000  0.000000000
     0.500000000  0.500000000  0.000000000
     0.750000000  0.250000000  0.691888793
     0.250000000  0.750000000  0.308111207

  ion indices of the primitive-cell ions
   primitive index   ion index
                 1           1
                 2           5
                 3          11
                 4          14

----------------------------------------------------------------------------------------

 
 
 KPOINTS: KPOINTS                                 

Automatic generation of k-mesh.
 Grid dimensions read from file:
 generate k-points for:    7    7    9

 Generating k-lattice:

  Cartesian coordinates                     Fractional coordinates (reciprocal lattice)
     0.014785310 -0.012418195  0.000000000     0.142857143  0.000000000  0.000000000
     0.014785310  0.012418195  0.000000000     0.000000000  0.142857143  0.000000000
     0.000000000  0.000000000  0.019357615     0.000000000  0.000000000  0.111111111

  Length of vectors
     0.019308468  0.019308468  0.019357615

  Shift w.r.t. Gamma in fractional coordinates (k-lattice)
     0.000000000  0.000000000  0.000000000

 
 Subroutine IBZKPT returns following result:
 ===========================================
 
 Found     80 irreducible k-points:
 
 Following reciprocal coordinates:
            Coordinates               Weight
  0.000000  0.000000  0.000000      1.000000
  0.142857  0.000000  0.000000      4.000000
  0.285714  0.000000  0.000000      4.000000
  0.428571  0.000000  0.000000      4.000000
  0.142857  0.142857  0.000000      2.000000
  0.285714  0.142857  0.000000      4.000000
  0.428571  0.142857  0.000000      4.000000
 -0.428571  0.142857  0.000000      4.000000
 -0.285714  0.142857  0.000000      4.000000
 -0.142857  0.142857  0.000000      2.000000
  0.285714  0.285714  0.000000      2.000000
  0.428571  0.285714  0.000000      4.000000
 -0.428571  0.285714  0.000000      4.000000
 -0.285714  0.285714  0.000000      2.000000
  0.428571  0.428571  0.000000      2.000000
 -0.428571  0.428571  0.000000      2.000000
  0.000000  0.000000  0.111111      2.000000
  0.142857  0.000000  0.111111      8.000000
  0.285714  0.000000  0.111111      8.000000
  0.428571  0.000000  0.111111      8.000000
  0.142857  0.142857  0.111111      4.000000
  0.285714  0.142857  0.111111      8.000000
  0.428571  0.142857  0.111111      8.000000
 -0.428571  0.142857  0.111111      8.000000
 -0.285714  0.142857  0.111111      8.000000
 -0.142857  0.142857  0.111111      4.000000
  0.285714  0.285714  0.111111      4.000000
  0.428571  0.285714  0.111111      8.000000
 -0.428571  0.285714  0.111111      8.000000
 -0.285714  0.285714  0.111111      4.000000
  0.428571  0.428571  0.111111      4.000000
 -0.428571  0.428571  0.111111      4.000000
  0.000000  0.000000  0.222222      2.000000
  0.142857  0.000000  0.222222      8.000000
  0.285714  0.000000  0.222222      8.000000
  0.428571  0.000000  0.222222      8.000000
  0.142857  0.142857  0.222222      4.000000
  0.285714  0.142857  0.222222      8.000000
  0.428571  0.142857  0.222222      8.000000
 -0.428571  0.142857  0.222222      8.000000
 -0.285714  0.142857  0.222222      8.000000
 -0.142857  0.142857  0.222222      4.000000
  0.285714  0.285714  0.222222      4.000000
  0.428571  0.285714  0.222222      8.000000
 -0.428571  0.285714  0.222222      8.000000
 -0.285714  0.285714  0.222222      4.000000
  0.428571  0.428571  0.222222      4.000000
 -0.428571  0.428571  0.222222      4.000000
  0.000000  0.000000  0.333333      2.000000
  0.142857  0.000000  0.333333      8.000000
  0.285714  0.000000  0.333333      8.000000
  0.428571  0.000000  0.333333      8.000000
  0.142857  0.142857  0.333333      4.000000
  0.285714  0.142857  0.333333      8.000000
  0.428571  0.142857  0.333333      8.000000
 -0.428571  0.142857  0.333333      8.000000
 -0.285714  0.142857  0.333333      8.000000
 -0.142857  0.142857  0.333333      4.000000
  0.285714  0.285714  0.333333      4.000000
  0.428571  0.285714  0.333333      8.000000
 -0.428571  0.285714  0.333333      8.000000
 -0.285714  0.285714  0.333333      4.000000
  0.428571  0.428571  0.333333      4.000000
 -0.428571  0.428571  0.333333      4.000000
  0.000000  0.000000  0.444444      2.000000
  0.142857  0.000000  0.444444      8.000000
  0.285714  0.000000  0.444444      8.000000
  0.428571  0.000000  0.444444      8.000000
  0.142857  0.142857  0.444444      4.000000
  0.285714  0.142857  0.444444      8.000000
  0.428571  0.142857  0.444444      8.000000
 -0.428571  0.142857  0.444444      8.000000
 -0.285714  0.142857  0.444444      8.000000
 -0.142857  0.142857  0.444444      4.000000
  0.285714  0.285714  0.444444      4.000000
  0.428571  0.285714  0.444444      8.000000
 -0.428571  0.285714  0.444444      8.000000
 -0.285714  0.285714  0.444444      4.000000
  0.428571  0.428571  0.444444      4.000000
 -0.428571  0.428571  0.444444      4.000000
 
 Following cartesian coordinates:
            Coordinates               Weight
  0.000000  0.000000  0.000000      1.000000
  0.014785 -0.012418  0.000000      4.000000
  0.029571 -0.024836  0.000000      4.000000
  0.044356 -0.037255  0.000000      4.000000
  0.029571  0.000000  0.000000      2.000000
  0.044356 -0.012418  0.000000      4.000000
  0.059141 -0.024836  0.000000      4.000000
 -0.029571  0.049673  0.000000      4.000000
 -0.014785  0.037255  0.000000      4.000000
  0.000000  0.024836  0.000000      2.000000
  0.059141  0.000000  0.000000      2.000000
  0.073927 -0.012418  0.000000      4.000000
 -0.014785  0.062091  0.000000      4.000000
 -0.000000  0.049673  0.000000      2.000000
  0.088712  0.000000  0.000000      2.000000
  0.000000  0.074509  0.000000      2.000000
  0.000000  0.000000  0.019358      2.000000
  0.014785 -0.012418  0.019358      8.000000
  0.029571 -0.024836  0.019358      8.000000
  0.044356 -0.037255  0.019358      8.000000
  0.029571  0.000000  0.019358      4.000000
  0.044356 -0.012418  0.019358      8.000000
  0.059141 -0.024836  0.019358      8.000000
 -0.029571  0.049673  0.019358      8.000000
 -0.014785  0.037255  0.019358      8.000000
  0.000000  0.024836  0.019358      4.000000
  0.059141  0.000000  0.019358      4.000000
  0.073927 -0.012418  0.019358      8.000000
 -0.014785  0.062091  0.019358      8.000000
 -0.000000  0.049673  0.019358      4.000000
  0.088712  0.000000  0.019358      4.000000
  0.000000  0.074509  0.019358      4.000000
  0.000000  0.000000  0.038715      2.000000
  0.014785 -0.012418  0.038715      8.000000
  0.029571 -0.024836  0.038715      8.000000
  0.044356 -0.037255  0.038715      8.000000
  0.029571  0.000000  0.038715      4.000000
  0.044356 -0.012418  0.038715      8.000000
  0.059141 -0.024836  0.038715      8.000000
 -0.029571  0.049673  0.038715      8.000000
 -0.014785  0.037255  0.038715      8.000000
  0.000000  0.024836  0.038715      4.000000
  0.059141  0.000000  0.038715      4.000000
  0.073927 -0.012418  0.038715      8.000000
 -0.014785  0.062091  0.038715      8.000000
 -0.000000  0.049673  0.038715      4.000000
  0.088712  0.000000  0.038715      4.000000
  0.000000  0.074509  0.038715      4.000000
  0.000000  0.000000  0.058073      2.000000
  0.014785 -0.012418  0.058073      8.000000
  0.029571 -0.024836  0.058073      8.000000
  0.044356 -0.037255  0.058073      8.000000
  0.029571  0.000000  0.058073      4.000000
  0.044356 -0.012418  0.058073      8.000000
  0.059141 -0.024836  0.058073      8.000000
 -0.029571  0.049673  0.058073      8.000000
 -0.014785  0.037255  0.058073      8.000000
  0.000000  0.024836  0.058073      4.000000
  0.059141  0.000000  0.058073      4.000000
  0.073927 -0.012418  0.058073      8.000000
 -0.014785  0.062091  0.058073      8.000000
 -0.000000  0.049673  0.058073      4.000000
  0.088712  0.000000  0.058073      4.000000
  0.000000  0.074509  0.058073      4.000000
  0.000000  0.000000  0.077430      2.000000
  0.014785 -0.012418  0.077430      8.000000
  0.029571 -0.024836  0.077430      8.000000
  0.044356 -0.037255  0.077430      8.000000
  0.029571  0.000000  0.077430      4.000000
  0.044356 -0.012418  0.077430      8.000000
  0.059141 -0.024836  0.077430      8.000000
 -0.029571  0.049673  0.077430      8.000000
 -0.014785  0.037255  0.077430      8.000000
  0.000000  0.024836  0.077430      4.000000
  0.059141  0.000000  0.077430      4.000000
  0.073927 -0.012418  0.077430      8.000000
 -0.014785  0.062091  0.077430      8.000000
 -0.000000  0.049673  0.077430      4.000000
  0.088712  0.000000  0.077430      4.000000
  0.000000  0.074509  0.077430      4.000000
 


--------------------------------------------------------------------------------------------------------




 Dimension of arrays:
   k-points           NKPTS =     80   k-points in BZ     NKDIM =     80   number of bands    NBANDS=    100
   number of dos      NEDOS =    301   number of ions     NIONS =     16
   non local maximal  LDIM  =      6   non local SUM 2l+1 LMDIM =     18
   total plane-waves  NPLWV = 172800
   max r-space proj   IRMAX =   6938   max aug-charges    IRDMAX=  23820
   dimension x,y,z NGX =    60 NGY =   60 NGZ =   48
   dimension x,y,z NGXF=   120 NGYF=  120 NGZF=   96
   support grid    NGXF=   120 NGYF=  120 NGZF=   96
   ions per type =               8   8
   NGX,Y,Z   is equivalent  to a cutoff of  13.28, 13.28, 13.90 a.u.
   NGXF,Y,Z  is equivalent  to a cutoff of  26.56, 26.56, 27.80 a.u.

 SYSTEM =  unknown system                          
 POSCAR =  Fe8 Se8                                 

 Startparameter for this run:
   NWRITE =      2    write-flag & timer
   PREC   = accura    normal or accurate (medium, high low for compatibility)
   ISTART =      0    job   : 0-new  1-cont  2-samecut
   ICHARG =      2    charge: 1-file 2-atom 10-const
   ISPIN  =      2    spin polarized calculation?
   LNONCOLLINEAR =      F non collinear calculations
   LSORBIT =      F    spin-orbit coupling
   INIWAV =      1    electr: 0-lowe 1-rand  2-diag
   LASPH  =      T    aspherical Exc in radial PAW
 Electronic Relaxation 1
   ENCUT  =  550.0 eV  40.42 Ry    6.36 a.u.  14.36 14.36 10.98*2*pi/ulx,y,z
   ENINI  =  550.0     initial cutoff
   ENAUG  =  578.3 eV  augmentation charge cutoff
   NELM   =    100;   NELMIN=  2; NELMDL=  0     # of ELM steps 
   EDIFF  = 0.2E-03   stopping-criterion for ELM
   LREAL  =      T    real-space projection
   NLSPLINE    = F    spline interpolate recip. space projectors
   LCOMPAT=      F    compatible to vasp.4.4
   GGA_COMPAT  = T    GGA compatible to vasp.4.4-vasp.4.6
   LMAXPAW     = -100 max onsite density
   LMAXMIX     =    4 max onsite mixed and CHGCAR
   VOSKOWN=      0    Vosko Wilk Nusair interpolation
   ROPT   =   -0.00025  -0.00025
 Ionic relaxation
   EDIFFG = 0.2E-02   stopping-criterion for IOM
   NSW    =     99    number of steps for IOM
   NBLOCK =      1;   KBLOCK =     99    inner block; outer block 
   IBRION =      2    ionic relax: 0-MD 1-quasi-New 2-CG
   NFREE  =      1    steps in history (QN), initial steepest desc. (CG)
   ISIF   =      4    stress and relaxation
   IWAVPR =     11    prediction:  0-non 1-charg 2-wave 3-comb
   ISYM   =      2    0-nonsym 1-usesym 2-fastsym
   LCORR  =      T    Harris-Foulkes like correction to forces

   POTIM  = 0.5000    time-step for ionic-motion
   TEIN   =    0.0    initial temperature
   TEBEG  =    0.0;   TEEND  =   0.0 temperature during run
   SMASS  =  -3.00    Nose mass-parameter (am)
   estimated Nose-frequenzy (Omega)   =  0.10E-29 period in steps = 0.13E+47 mass=  -0.129E-26a.u.
   SCALEE = 1.0000    scale energy and forces
   NPACO  =    256;   APACO  = 10.0  distance and # of slots for P.C.
   PSTRESS=    0.0 pullay stress

  Mass of Ions in am
   POMASS =  55.85 78.96
  Ionic Valenz
   ZVAL   =  14.00  6.00
  Atomic Wigner-Seitz radii
   RWIGS  =  -1.00 -1.00
  virtual crystal weights 
   VCA    =   1.00  1.00
   NELECT =     160.0000    total number of electrons
   NUPDOWN=      -1.0000    fix difference up-down

 DOS related values:
   EMIN   =  10.00;   EMAX   =-10.00  energy-range for DOS
   EFERMI =   0.00;   METHOD = LEGACY      
   ISMEAR =     0;   SIGMA  =   0.05  broadening in eV -4-tet -1-fermi 0-gaus

 Electronic relaxation 2 (details)
   IALGO  =     68    algorithm
   LDIAG  =      T    sub-space diagonalisation (order eigenvalues)
   LSUBROT=      F    optimize rotation matrix (better conditioning)
   TURBO    =      0    0=normal 1=particle mesh
   IRESTART =      0    0=no restart 2=restart with 2 vectors
   NREBOOT  =      0    no. of reboots
   NMIN     =      0    reboot dimension
   EREF     =   0.00    reference energy to select bands
   IMIX   =      4    mixing-type and parameters
     AMIX     =   0.40;   BMIX     =  1.00
     AMIX_MAG =   1.60;   BMIX_MAG =  1.00
     AMIN     =   0.10
     WC   =   100.;   INIMIX=   1;  MIXPRE=   1;  MAXMIX= -45

 Intra band minimization:
   WEIMIN = 0.0010     energy-eigenvalue tresh-hold
   EBREAK =  0.50E-06  absolut break condition
   DEPER  =   0.30     relativ break condition  

   TIME   =   0.40     timestep for ELM

  volume/ion in A,a.u.               =      19.94       134.54
  Fermi-wavevector in a.u.,A,eV,Ry     =   1.300722  2.458009 23.019406  1.691879
  Thomas-Fermi vector in A             =   2.431903
 
 Write flags
   LWAVE        =      F    write WAVECAR
   LDOWNSAMPLE  =      F    k-point downsampling of WAVECAR
   LCHARG       =      T    write CHGCAR
   LVTOT        =      F    write LOCPOT, total local potential
   LVHAR        =      F    write LOCPOT, Hartree potential only
   LELF         =      F    write electronic localiz. function (ELF)
   LORBIT       =     11    0 simple, 1 ext, 2 COOP (PROOUT), +10 PAW based schemes


 Dipole corrections
   LMONO  =      F    monopole corrections only (constant potential shift)
   LDIPOL =      F    correct potential (dipole corrections)
   IDIPOL =      0    1-x, 2-y, 3-z, 4-all directions 
   EPSILON=  1.0000000 bulk dielectric constant

 Exchange correlation treatment:
   GGA     =    --    GGA type
   LEXCH   =     8    internal setting for exchange type
   LIBXC   =     F    Libxc                    
   VOSKOWN =     0    Vosko Wilk Nusair interpolation
   LHFCALC =     F    Hartree Fock is set to
   LHFONE  =     F    Hartree Fock one center treatment
   AEXX    =    0.0000 exact exchange contribution

 Linear response parameters
   LEPSILON=     F    determine dielectric tensor
   LRPA    =     F    only Hartree local field effects (RPA)
   LNABLA  =     F    use nabla operator in PAW spheres
   LVEL    =     F    velocity operator in full k-point grid
   CSHIFT  =0.1000    complex shift for real part using Kramers Kronig
   OMEGAMAX=  -1.0    maximum frequency
   DEG_THRESHOLD= 0.2000000E-02 threshold for treating states as degnerate
   RTIME   =   -0.100 relaxation time in fs
  (WPLASMAI=    0.000 imaginary part of plasma frequency in eV, 0.658/RTIME)
   DFIELD  = 0.0000000 0.0000000 0.0000000 field for delta impulse in time
 
  Optional k-point grid parameters
   LKPOINTS_OPT  =     F    use optional k-point grid
   KPOINTS_OPT_MODE=     1    mode for optional k-point grid
 
 Orbital magnetization related:
   ORBITALMAG=     F  switch on orbital magnetization
   LCHIMAG   =     F  perturbation theory with respect to B field
   DQ        =  0.001000  dq finite difference perturbation B field
   LLRAUG    =     F  two centre corrections for induced B field
   LBONE     =     F  B-component reconstruction in AE one-centre
   LVGVCALC  =     T  calculate vGv susceptibility
   LVGVAPPL  =     F  apply vGv susceptibility instead of pGv for G=0

 Random number generation:
   RANDOM_GENERATOR = DEFAULT
   PCG_SEED         = not used


--------------------------------------------------------------------------------------------------------


 conjugate gradient relaxation of ions
 charge density and potential will be updated during run
 spin polarized calculation
 RMM-DIIS sequential band-by-band and
  variant of blocked Davidson during initial phase
 perform sub-space diagonalisation
    before iterative eigenvector-optimisation
 modified Broyden-mixing scheme, WC =      100.0
 initial mixing is a Kerker type mixing with AMIX =  0.4000 and BMIX =      1.0000
 Hartree-type preconditioning will be used
 using additional bands           20
 real space projection scheme for non local part
 use partial core corrections
 calculate Harris-corrections to forces 
   (improved forces if not selfconsistent)
 use gradient corrections 
 use of overlap-Matrix (Vanderbilt PP)
 Gauss-broadening in eV      SIGMA  =   0.05


--------------------------------------------------------------------------------------------------------


  energy-cutoff  :      550.00
  volume of cell :      319.00
      direct lattice vectors                 reciprocal lattice vectors
     4.831050054 -5.751928811  0.000000000     0.103497168 -0.086927362  0.000000000
     4.831050054  5.751928811  0.000000000     0.103497168  0.086927362  0.000000000
     0.000000000  0.000000000  5.739917468     0.000000000  0.000000000  0.174218533

  length of vectors
     7.511573049  7.511573049  5.739917468     0.135159277  0.135159277  0.174218533


 
 k-points in units of 2pi/SCALE and weight: KPOINTS                                 
   0.00000000  0.00000000  0.00000000       0.002
   0.01478531 -0.01241819  0.00000000       0.009
   0.02957062 -0.02483639  0.00000000       0.009
   0.04435593 -0.03725458  0.00000000       0.009
   0.02957062 -0.00000000  0.00000000       0.005
   0.04435593 -0.01241819  0.00000000       0.009
   0.05914124 -0.02483639  0.00000000       0.009
  -0.02957062  0.04967278  0.00000000       0.009
  -0.01478531  0.03725458  0.00000000       0.009
  -0.00000000  0.02483639  0.00000000       0.005
   0.05914124 -0.00000000  0.00000000       0.005
   0.07392655 -0.01241819  0.00000000       0.009
  -0.01478531  0.06209097  0.00000000       0.009
   0.00000000  0.04967278  0.00000000       0.005
   0.08871186  0.00000000  0.00000000       0.005
  -0.00000000  0.07450917  0.00000000       0.005
   0.00000000  0.00000000  0.01935761       0.005
   0.01478531 -0.01241819  0.01935761       0.018
   0.02957062 -0.02483639  0.01935761       0.018
   0.04435593 -0.03725458  0.01935761       0.018
   0.02957062 -0.00000000  0.01935761       0.009
   0.04435593 -0.01241819  0.01935761       0.018
   0.05914124 -0.02483639  0.01935761       0.018
  -0.02957062  0.04967278  0.01935761       0.018
  -0.01478531  0.03725458  0.01935761       0.018
  -0.00000000  0.02483639  0.01935761       0.009
   0.05914124 -0.00000000  0.01935761       0.009
   0.07392655 -0.01241819  0.01935761       0.018
  -0.01478531  0.06209097  0.01935761       0.018
   0.00000000  0.04967278  0.01935761       0.009
   0.08871186  0.00000000  0.01935761       0.009
  -0.00000000  0.07450917  0.01935761       0.009
   0.00000000  0.00000000  0.03871523       0.005
   0.01478531 -0.01241819  0.03871523       0.018
   0.02957062 -0.02483639  0.03871523       0.018
   0.04435593 -0.03725458  0.03871523       0.018
   0.02957062 -0.00000000  0.03871523       0.009
   0.04435593 -0.01241819  0.03871523       0.018
   0.05914124 -0.02483639  0.03871523       0.018
  -0.02957062  0.04967278  0.03871523       0.018
  -0.01478531  0.03725458  0.03871523       0.018
  -0.00000000  0.02483639  0.03871523       0.009
   0.05914124 -0.00000000  0.03871523       0.009
   0.07392655 -0.01241819  0.03871523       0.018
  -0.01478531  0.06209097  0.03871523       0.018
   0.00000000  0.04967278  0.03871523       0.009
   0.08871186  0.00000000  0.03871523       0.009
  -0.00000000  0.07450917  0.03871523       0.009
   0.00000000  0.00000000  0.05807284       0.005
   0.01478531 -0.01241819  0.05807284       0.018
   0.02957062 -0.02483639  0.05807284       0.018
   0.04435593 -0.03725458  0.05807284       0.018
   0.02957062 -0.00000000  0.05807284       0.009
   0.04435593 -0.01241819  0.05807284       0.018
   0.05914124 -0.02483639  0.05807284       0.018
  -0.02957062  0.04967278  0.05807284       0.018
  -0.01478531  0.03725458  0.05807284       0.018
  -0.00000000  0.02483639  0.05807284       0.009
   0.05914124 -0.00000000  0.05807284       0.009
   0.07392655 -0.01241819  0.05807284       0.018
  -0.01478531  0.06209097  0.05807284       0.018
   0.00000000  0.04967278  0.05807284       0.009
   0.08871186  0.00000000  0.05807284       0.009
  -0.00000000  0.07450917  0.05807284       0.009
   0.00000000  0.00000000  0.07743046       0.005
   0.01478531 -0.01241819  0.07743046       0.018
   0.02957062 -0.02483639  0.07743046       0.018
   0.04435593 -0.03725458  0.07743046       0.018
   0.02957062 -0.00000000  0.07743046       0.009
   0.04435593 -0.01241819  0.07743046       0.018
   0.05914124 -0.02483639  0.07743046       0.018
  -0.02957062  0.04967278  0.07743046       0.018
  -0.01478531  0.03725458  0.07743046       0.018
  -0.00000000  0.02483639  0.07743046       0.009
   0.05914124 -0.00000000  0.07743046       0.009
   0.07392655 -0.01241819  0.07743046       0.018
  -0.01478531  0.06209097  0.07743046       0.018
   0.00000000  0.04967278  0.07743046       0.009
   0.08871186  0.00000000  0.07743046       0.009
  -0.00000000  0.07450917  0.07743046       0.009
 
 k-points in reciprocal lattice and weights: KPOINTS                                 
   0.00000000  0.00000000  0.00000000       0.002
   0.14285714  0.00000000  0.00000000       0.009
   0.28571429  0.00000000  0.00000000       0.009
   0.42857143  0.00000000  0.00000000       0.009
   0.14285714  0.14285714  0.00000000       0.005
   0.28571429  0.14285714  0.00000000       0.009
   0.42857143  0.14285714  0.00000000       0.009
  -0.42857143  0.14285714  0.00000000       0.009
  -0.28571429  0.14285714  0.00000000       0.009
  -0.14285714  0.14285714  0.00000000       0.005
   0.28571429  0.28571429  0.00000000       0.005
   0.42857143  0.28571429  0.00000000       0.009
  -0.42857143  0.28571429  0.00000000       0.009
  -0.28571429  0.28571429  0.00000000       0.005
   0.42857143  0.42857143  0.00000000       0.005
  -0.42857143  0.42857143  0.00000000       0.005
   0.00000000  0.00000000  0.11111111       0.005
   0.14285714  0.00000000  0.11111111       0.018
   0.28571429  0.00000000  0.11111111       0.018
   0.42857143  0.00000000  0.11111111       0.018
   0.14285714  0.14285714  0.11111111       0.009
   0.28571429  0.14285714  0.11111111       0.018
   0.42857143  0.14285714  0.11111111       0.018
  -0.42857143  0.14285714  0.11111111       0.018
  -0.28571429  0.14285714  0.11111111       0.018
  -0.14285714  0.14285714  0.11111111       0.009
   0.28571429  0.28571429  0.11111111       0.009
   0.42857143  0.28571429  0.11111111       0.018
  -0.42857143  0.28571429  0.11111111       0.018
  -0.28571429  0.28571429  0.11111111       0.009
   0.42857143  0.42857143  0.11111111       0.009
  -0.42857143  0.42857143  0.11111111       0.009
   0.00000000  0.00000000  0.22222222       0.005
   0.14285714  0.00000000  0.22222222       0.018
   0.28571429  0.00000000  0.22222222       0.018
   0.42857143  0.00000000  0.22222222       0.018
   0.14285714  0.14285714  0.22222222       0.009
   0.28571429  0.14285714  0.22222222       0.018
   0.42857143  0.14285714  0.22222222       0.018
  -0.42857143  0.14285714  0.22222222       0.018
  -0.28571429  0.14285714  0.22222222       0.018
  -0.14285714  0.14285714  0.22222222       0.009
   0.28571429  0.28571429  0.22222222       0.009
   0.42857143  0.28571429  0.22222222       0.018
  -0.42857143  0.28571429  0.22222222       0.018
  -0.28571429  0.28571429  0.22222222       0.009
   0.42857143  0.42857143  0.22222222       0.009
  -0.42857143  0.42857143  0.22222222       0.009
   0.00000000  0.00000000  0.33333333       0.005
   0.14285714  0.00000000  0.33333333       0.018
   0.28571429  0.00000000  0.33333333       0.018
   0.42857143  0.00000000  0.33333333       0.018
   0.14285714  0.14285714  0.33333333       0.009
   0.28571429  0.14285714  0.33333333       0.018
   0.42857143  0.14285714  0.33333333       0.018
  -0.42857143  0.14285714  0.33333333       0.018
  -0.28571429  0.14285714  0.33333333       0.018
  -0.14285714  0.14285714  0.33333333       0.009
   0.28571429  0.28571429  0.33333333       0.009
   0.42857143  0.28571429  0.33333333       0.018
  -0.42857143  0.28571429  0.33333333       0.018
  -0.28571429  0.28571429  0.33333333       0.009
   0.42857143  0.42857143  0.33333333       0.009
  -0.42857143  0.42857143  0.33333333       0.009
   0.00000000  0.00000000  0.44444444       0.005
   0.14285714  0.00000000  0.44444444       0.018
   0.28571429  0.00000000  0.44444444       0.018
   0.42857143  0.00000000  0.44444444       0.018
   0.14285714  0.14285714  0.44444444       0.009
   0.28571429  0.14285714  0.44444444       0.018
   0.42857143  0.14285714  0.44444444       0.018
  -0.42857143  0.14285714  0.44444444       0.018
  -0.28571429  0.14285714  0.44444444       0.018
  -0.14285714  0.14285714  0.44444444       0.009
   0.28571429  0.28571429  0.44444444       0.009
   0.42857143  0.28571429  0.44444444       0.018
  -0.42857143  0.28571429  0.44444444       0.018
  -0.28571429  0.28571429  0.44444444       0.009
   0.42857143  0.42857143  0.44444444       0.009
  -0.42857143  0.42857143  0.44444444       0.009
 
 position of ions in fractional coordinates (direct lattice) 
   0.00000000  0.00000000  0.00000000
   0.00000000  0.50000000  0.00000000
   0.50000000  0.00000000  0.00000000
   0.50000000  0.50000000  0.00000000
   0.25000000  0.25000000  0.00000000
   0.25000000  0.75000000  0.00000000
   0.75000000  0.25000000  0.00000000
   0.75000000  0.75000000  0.00000000
   0.37500000  0.12500000  0.69188879
   0.37500000  0.62500000  0.69188879
   0.87500000  0.12500000  0.69188879
   0.87500000  0.62500000  0.69188879
   0.12500000  0.37500000  0.30811121
   0.12500000  0.87500000  0.30811121
   0.62500000  0.37500000  0.30811121
   0.62500000  0.87500000  0.30811121
 
 position of ions in cartesian coordinates  (Angst):
   0.00000000  0.00000000  0.00000000
   2.41552503  2.87596441  0.00000000
   2.41552503 -2.87596441  0.00000000
   4.83105005  0.00000000  0.00000000
   2.41552503  0.00000000  0.00000000
   4.83105005  2.87596441  0.00000000
   4.83105005 -2.87596441  0.00000000
   7.24657508  0.00000000  0.00000000
   2.41552503 -1.43798220  3.97138457
   4.83105005  1.43798220  3.97138457
   4.83105005 -4.31394661  3.97138457
   7.24657508 -1.43798220  3.97138457
   2.41552503  1.43798220  1.76853290
   4.83105005  4.31394661  1.76853290
   4.83105005 -1.43798220  1.76853290
   7.24657508  1.43798220  1.76853290
 


--------------------------------------------------------------------------------------------------------


 k-point   1 :   0.0000 0.0000 0.0000  plane waves:    9335
 k-point   2 :   0.1429 0.0000 0.0000  plane waves:    9324
 k-point   3 :   0.2857 0.0000 0.0000  plane waves:    9335
 k-point   4 :   0.4286 0.0000 0.0000  plane waves:    9315
 k-point   5 :   0.1429 0.1429 0.0000  plane waves:    9291
 k-point   6 :   0.2857 0.1429 0.0000  plane waves:    9324
 k-point   7 :   0.4286 0.1429 0.0000  plane waves:    9303
 k-point   8 :  -0.4286 0.1429 0.0000  plane waves:    9330
 k-point   9 :  -0.2857 0.1429 0.0000  plane waves:    9331
 k-point  10 :  -0.1429 0.1429 0.0000  plane waves:    9328
 k-point  11 :   0.2857 0.2857 0.0000  plane waves:    9324
 k-point  12 :   0.4286 0.2857 0.0000  plane waves:    9320
 k-point  13 :  -0.4286 0.2857 0.0000  plane waves:    9347
 k-point  14 :  -0.2857 0.2857 0.0000  plane waves:    9348
 k-point  15 :   0.4286 0.4286 0.0000  plane waves:    9348
 k-point  16 :  -0.4286 0.4286 0.0000  plane waves:    9348
 k-point  17 :   0.0000 0.0000 0.1111  plane waves:    9346
 k-point  18 :   0.1429 0.0000 0.1111  plane waves:    9328
 k-point  19 :   0.2857 0.0000 0.1111  plane waves:    9338
 k-point  20 :   0.4286 0.0000 0.1111  plane waves:    9332
 k-point  21 :   0.1429 0.1429 0.1111  plane waves:    9338
 k-point  22 :   0.2857 0.1429 0.1111  plane waves:    9324
 k-point  23 :   0.4286 0.1429 0.1111  plane waves:    9319
 k-point  24 :  -0.4286 0.1429 0.1111  plane waves:    9335
 k-point  25 :  -0.2857 0.1429 0.1111  plane waves:    9342
 k-point  26 :  -0.1429 0.1429 0.1111  plane waves:    9351
 k-point  27 :   0.2857 0.2857 0.1111  plane waves:    9324
 k-point  28 :   0.4286 0.2857 0.1111  plane waves:    9334
 k-point  29 :  -0.4286 0.2857 0.1111  plane waves:    9339
 k-point  30 :  -0.2857 0.2857 0.1111  plane waves:    9346
 k-point  31 :   0.4286 0.4286 0.1111  plane waves:    9343
 k-point  32 :  -0.4286 0.4286 0.1111  plane waves:    9343
 k-point  33 :   0.0000 0.0000 0.2222  plane waves:    9364
 k-point  34 :   0.1429 0.0000 0.2222  plane waves:    9349
 k-point  35 :   0.2857 0.0000 0.2222  plane waves:    9347
 k-point  36 :   0.4286 0.0000 0.2222  plane waves:    9351
 k-point  37 :   0.1429 0.1429 0.2222  plane waves:    9341
 k-point  38 :   0.2857 0.1429 0.2222  plane waves:    9337
 k-point  39 :   0.4286 0.1429 0.2222  plane waves:    9335
 k-point  40 :  -0.4286 0.1429 0.2222  plane waves:    9343
 k-point  41 :  -0.2857 0.1429 0.2222  plane waves:    9344
 k-point  42 :  -0.1429 0.1429 0.2222  plane waves:    9365
 k-point  43 :   0.2857 0.2857 0.2222  plane waves:    9331
 k-point  44 :   0.4286 0.2857 0.2222  plane waves:    9338
 k-point  45 :  -0.4286 0.2857 0.2222  plane waves:    9346
 k-point  46 :  -0.2857 0.2857 0.2222  plane waves:    9340
 k-point  47 :   0.4286 0.4286 0.2222  plane waves:    9343
 k-point  48 :  -0.4286 0.4286 0.2222  plane waves:    9341
 k-point  49 :   0.0000 0.0000 0.3333  plane waves:    9358
 k-point  50 :   0.1429 0.0000 0.3333  plane waves:    9363
 k-point  51 :   0.2857 0.0000 0.3333  plane waves:    9346
 k-point  52 :   0.4286 0.0000 0.3333  plane waves:    9350
 k-point  53 :   0.1429 0.1429 0.3333  plane waves:    9359
 k-point  54 :   0.2857 0.1429 0.3333  plane waves:    9344
 k-point  55 :   0.4286 0.1429 0.3333  plane waves:    9353
 k-point  56 :  -0.4286 0.1429 0.3333  plane waves:    9342
 k-point  57 :  -0.2857 0.1429 0.3333  plane waves:    9356
 k-point  58 :  -0.1429 0.1429 0.3333  plane waves:    9362
 k-point  59 :   0.2857 0.2857 0.3333  plane waves:    9336
 k-point  60 :   0.4286 0.2857 0.3333  plane waves:    9355
 k-point  61 :  -0.4286 0.2857 0.3333  plane waves:    9338
 k-point  62 :  -0.2857 0.2857 0.3333  plane waves:    9361
 k-point  63 :   0.4286 0.4286 0.3333  plane waves:    9330
 k-point  64 :  -0.4286 0.4286 0.3333  plane waves:    9333
 k-point  65 :   0.0000 0.0000 0.4444  plane waves:    9354
 k-point  66 :   0.1429 0.0000 0.4444  plane waves:    9366
 k-point  67 :   0.2857 0.0000 0.4444  plane waves:    9363
 k-point  68 :   0.4286 0.0000 0.4444  plane waves:    9356
 k-point  69 :   0.1429 0.1429 0.4444  plane waves:    9369
 k-point  70 :   0.2857 0.1429 0.4444  plane waves:    9358
 k-point  71 :   0.4286 0.1429 0.4444  plane waves:    9354
 k-point  72 :  -0.4286 0.1429 0.4444  plane waves:    9360
 k-point  73 :  -0.2857 0.1429 0.4444  plane waves:    9368
 k-point  74 :  -0.1429 0.1429 0.4444  plane waves:    9366
 k-point  75 :   0.2857 0.2857 0.4444  plane waves:    9328
 k-point  76 :   0.4286 0.2857 0.4444  plane waves:    9334
 k-point  77 :  -0.4286 0.2857 0.4444  plane waves:    9344
 k-point  78 :  -0.2857 0.2857 0.4444  plane waves:    9362
 k-point  79 :   0.4286 0.4286 0.4444  plane waves:    9306
 k-point  80 :  -0.4286 0.4286 0.4444  plane waves:    9315

 maximum and minimum number of plane-waves per node :      9369     9291

 maximum number of plane-waves:      9369
 maximum index in each direction: 
   IXMAX=   14   IYMAX=   14   IZMAX=   10
   IXMIN=  -14   IYMIN=  -14   IZMIN=  -11


 serial   3D FFT for wavefunctions
 parallel 3D FFT for charge:
    minimum data exchange during FFTs selected (reduces bandwidth)


 total amount of memory used by VASP MPI-rank0   190154. kBytes
=======================================================================

   base      :      30000. kBytes
   nonlr-proj:      13621. kBytes
   fftplans  :       3084. kBytes
   grid      :      19560. kBytes
   one-center:        497. kBytes
   wavefun   :     123392. kBytes
 
     INWAV:  cpu time      0.0000: real time      0.0002
 Broyden mixing: mesh for mixing (old mesh)
   NGX = 29   NGY = 29   NGZ = 21
  (NGX  =120   NGY  =120   NGZ  = 96)
  gives a total of  17661 points

 initial charge density was supplied:
 charge density of overlapping atoms calculated
 number of electron     160.0000000 magnetization      -0.0000000
 keeping initial charge density in first step


--------------------------------------------------------------------------------------------------------


 Maximum index for non-local projection operator         6681
 Maximum index for augmentation-charges         1163 (set IRDMAX)


--------------------------------------------------------------------------------------------------------


 First call to EWALD:  gamma=   0.259
 Maximum number of real-space cells 3x 3x 3
 Maximum number of reciprocal cells 3x 3x 2

    FEWALD:  cpu time      0.0016: real time      0.0017


--------------------------------------- Ionic step        1  -------------------------------------------




--------------------------------------- Iteration      1(   1)  ---------------------------------------


    POTLOK:  cpu time      0.0729: real time      0.0800
    SETDIJ:  cpu time      0.2733: real time      0.2745
     EDDAV:  cpu time     30.0711: real time     30.2353
       DOS:  cpu time      0.0027: real time      0.0028
    --------------------------------------------
      LOOP:  cpu time     30.4201: real time     30.5926

 eigenvalue-minimisations  : 35340
 total energy-change (2. order) : 0.2012218E+04  (-0.8896592E+04)
 number of electron     160.0000000 magnetization      -0.0000000
 augmentation part      160.0000000 magnetization      -0.0000000

 Free energy of the ion-electron system (eV)
  ---------------------------------------------------
  alpha Z        PSCENC =       796.08647423
  Ewald energy   TEWEN  =    -11013.92505902
  -Hartree energ DENC   =     -9281.12499281
  -exchange      EXHF   =         0.00000000
  -V(xc)+E(xc)   XCENC  =       565.21699293
  PAW double counting   =     15528.04585519   -16123.82046358
  entropy T*S    EENTRO =        -0.00857634
  eigenvalues    EBANDS =      -169.09330296
  atomic energy  EATOM  =     21710.84102437
  Solvation  Ediel_sol  =         0.00000000
  ---------------------------------------------------
  free energy    TOTEN  =      2012.21795201 eV

  energy without entropy =     2012.22652835  energy(sigma->0) =     2012.22224018


--------------------------------------------------------------------------------------------------------




--------------------------------------- Iteration      1(   2)  ---------------------------------------


     EDDAV:  cpu time     27.2521: real time     27.4543
       DOS:  cpu time      0.0022: real time      0.0022
    --------------------------------------------
      LOOP:  cpu time     27.2543: real time     27.4564

 eigenvalue-minimisations  : 32000
 total energy-change (2. order) :-0.1889242E+04  (-0.1834982E+04)
 number of electron     160.0000000 magnetization      -0.0000000
 augmentation part      160.0000000 magnetization      -0.0000000

 Free energy of the ion-electron system (eV)
  ---------------------------------------------------
  alpha Z        PSCENC =       796.08647423
  Ewald energy   TEWEN  =    -11013.92505902
  -Hartree energ DENC   =     -9281.12499281
  -exchange      EXHF   =         0.00000000
  -V(xc)+E(xc)   XCENC  =       565.21699293
  PAW double counting   =     15528.04585519   -16123.82046358
  entropy T*S    EENTRO =        -0.01567867
  eigenvalues    EBANDS =     -2058.32862544
  atomic energy  EATOM  =     21710.84102437
  Solvation  Ediel_sol  =         0.00000000
  ---------------------------------------------------
  free energy    TOTEN  =       122.97552720 eV

  energy without entropy =      122.99120587  energy(sigma->0) =      122.98336654


--------------------------------------------------------------------------------------------------------




--------------------------------------- Iteration      1(   3)  ---------------------------------------


     EDDAV:  cpu time     37.6598: real time     37.8866
       DOS:  cpu time      0.0022: real time      0.0022
    --------------------------------------------
      LOOP:  cpu time     37.6620: real time     37.8889

 eigenvalue-minimisations  : 45860
 total energy-change (2. order) :-0.2081714E+03  (-0.1852847E+03)
 number of electron     160.0000000 magnetization      -0.0000000
 augmentation part      160.0000000 magnetization      -0.0000000

 Free energy of the ion-electron system (eV)
  ---------------------------------------------------
  alpha Z        PSCENC =       796.08647423
  Ewald energy   TEWEN  =    -11013.92505902
  -Hartree energ DENC   =     -9281.12499281
  -exchange      EXHF   =         0.00000000
  -V(xc)+E(xc)   XCENC  =       565.21699293
  PAW double counting   =     15528.04585519   -16123.82046358
  entropy T*S    EENTRO =        -0.02680975
  eigenvalues    EBANDS =     -2266.48886023
  atomic energy  EATOM  =     21710.84102437
  Solvation  Ediel_sol  =         0.00000000
  ---------------------------------------------------
  free energy    TOTEN  =       -85.19583867 eV

  energy without entropy =      -85.16902892  energy(sigma->0) =      -85.18243379


--------------------------------------------------------------------------------------------------------




--------------------------------------- Iteration      1(   4)  ---------------------------------------


     EDDAV:  cpu time     38.0684: real time     38.3139
       DOS:  cpu time      0.0021: real time      0.0021
    --------------------------------------------
      LOOP:  cpu time     38.0705: real time     38.3161

 eigenvalue-minimisations  : 47140
 total energy-change (2. order) :-0.1454842E+02  (-0.1424211E+02)
 number of electron     160.0000000 magnetization      -0.0000000
 augmentation part      160.0000000 magnetization      -0.0000000

 Free energy of the ion-electron system (eV)
  ---------------------------------------------------
  alpha Z        PSCENC =       796.08647423
  Ewald energy   TEWEN  =    -11013.92505902
  -Hartree energ DENC   =     -9281.12499281
  -exchange      EXHF   =         0.00000000
  -V(xc)+E(xc)   XCENC  =       565.21699293
  PAW double counting   =     15528.04585519   -16123.82046358
  entropy T*S    EENTRO =        -0.02937365
  eigenvalues    EBANDS =     -2281.03471817
  atomic energy  EATOM  =     21710.84102437
  Solvation  Ediel_sol  =         0.00000000
  ---------------------------------------------------
  free energy    TOTEN  =       -99.74426051 eV

  energy without entropy =      -99.71488686  energy(sigma->0) =      -99.72957368


--------------------------------------------------------------------------------------------------------




--------------------------------------- Iteration      1(   5)  ---------------------------------------


     EDDAV:  cpu time     36.0105: real time     36.2193
       DOS:  cpu time      0.0021: real time      0.0021
    CHARGE:  cpu time      1.1195: real time      1.1261
    MIXING:  cpu time      0.0017: real time      0.0017
    --------------------------------------------
      LOOP:  cpu time     37.1339: real time     37.3493

 eigenvalue-minimisations  : 44740
 total energy-change (2. order) :-0.3398124E+00  (-0.3390476E+00)
 number of electron     160.0000050 magnetization      -0.0000000
 augmentation part       53.0993872 magnetization      -0.0000000

 Broyden mixing:
  rms(total) = 0.27588E+01    rms(broyden)= 0.27583E+01
  rms(prec ) = 0.43322E+01
  weight for this iteration     100.00

 Free energy of the ion-electron system (eV)
  ---------------------------------------------------
  alpha Z        PSCENC =       796.08647423
  Ewald energy   TEWEN  =    -11013.92505902
  -Hartree energ DENC   =     -9281.12499281
  -exchange      EXHF   =         0.00000000
  -V(xc)+E(xc)   XCENC  =       565.21699293
  PAW double counting   =     15528.04585519   -16123.82046358
  entropy T*S    EENTRO =        -0.02937914
  eigenvalues    EBANDS =     -2281.37452503
  atomic energy  EATOM  =     21710.84102437
  Solvation  Ediel_sol  =         0.00000000
  ---------------------------------------------------
  free energy    TOTEN  =      -100.08407286 eV

  energy without entropy =     -100.05469372  energy(sigma->0) =     -100.06938329


--------------------------------------------------------------------------------------------------------




--------------------------------------- Iteration      1(   6)  ---------------------------------------


    POTLOK:  cpu time      0.0664: real time      0.1083
    SETDIJ:  cpu time      0.2682: real time      0.2692
    EDDIAG:  cpu time      4.6546: real time      4.6812
  RMM-DIIS:  cpu time     17.5734: real time     17.6593
    ORTHCH:  cpu time      0.5991: real time      0.6017
       DOS:  cpu time      0.0023: real time      0.0023
    CHARGE:  cpu time      1.1488: real time      1.1559
    MIXING:  cpu time      0.0019: real time      0.0019
    --------------------------------------------
      LOOP:  cpu time     24.3146: real time     24.4797

 eigenvalue-minimisations  : 32068
 total energy-change (2. order) :-0.1285679E+02  (-0.1726302E+02)
 number of electron     160.0000057 magnetization      -0.0000000
 augmentation part       70.1257518 magnetization      -0.0000000

 Broyden mixing:
  rms(total) = 0.52646E+01    rms(broyden)= 0.52645E+01
  rms(prec ) = 0.83704E+01
  weight for this iteration     100.00

 eigenvalues of (default mixing * dielectric matrix)
  average eigenvalue GAMMA=   0.2955
  0.2955

 Free energy of the ion-electron system (eV)
  ---------------------------------------------------
  alpha Z        PSCENC =       796.08647423
  Ewald energy   TEWEN  =    -11013.92505902
  -Hartree energ DENC   =     -8818.90988878
  -exchange      EXHF   =         0.00000000
  -V(xc)+E(xc)   XCENC  =       553.17922255
  PAW double counting   =     14985.71567699   -15549.71016770
  entropy T*S    EENTRO =        -0.03171976
  eigenvalues    EBANDS =     -2776.18642657
  atomic energy  EATOM  =     21710.84102437
  Solvation  Ediel_sol  =         0.00000000
  ---------------------------------------------------
  free energy    TOTEN  =      -112.94086370 eV

  energy without entropy =     -112.90914394  energy(sigma->0) =     -112.92500382


--------------------------------------------------------------------------------------------------------




--------------------------------------- Iteration      1(   7)  ---------------------------------------


    POTLOK:  cpu time      0.0779: real time      0.1057
    SETDIJ:  cpu time      0.2701: real time      0.2711
    EDDIAG:  cpu time      4.6847: real time      4.7083
  RMM-DIIS:  cpu time     17.6969: real time     17.7823
    ORTHCH:  cpu time      0.5862: real time      0.5888
       DOS:  cpu time      0.0022: real time      0.0022
    CHARGE:  cpu time      1.1338: real time      1.1397
    MIXING:  cpu time      0.0017: real time      0.0017
    --------------------------------------------
      LOOP:  cpu time     24.4533: real time     24.5996

 eigenvalue-minimisations  : 32024
 total energy-change (2. order) : 0.2199824E+02  (-0.4391087E+01)
 number of electron     160.0000049 magnetization       0.0000000
 augmentation part       57.8395128 magnetization       0.0000000

 Broyden mixing:
  rms(total) = 0.11191E+01    rms(broyden)= 0.11184E+01
  rms(prec ) = 0.13428E+01
  weight for this iteration     100.00

 eigenvalues of (default mixing * dielectric matrix)
  average eigenvalue GAMMA=   0.4449
  0.6228  0.2670

 Free energy of the ion-electron system (eV)
  ---------------------------------------------------
  alpha Z        PSCENC =       796.08647423
  Ewald energy   TEWEN  =    -11013.92505902
  -Hartree energ DENC   =     -9103.70888276
  -exchange      EXHF   =         0.00000000
  -V(xc)+E(xc)   XCENC  =       558.26111251
  PAW double counting   =     15481.81198702   -16079.11458441
  entropy T*S    EENTRO =        -0.03553606
  eigenvalues    EBANDS =     -2441.15915922
  atomic energy  EATOM  =     21710.84102437
  Solvation  Ediel_sol  =         0.00000000
  ---------------------------------------------------
  free energy    TOTEN  =       -90.94262335 eV

  energy without entropy =      -90.90708729  energy(sigma->0) =      -90.92485532


--------------------------------------------------------------------------------------------------------




--------------------------------------- Iteration      1(   8)  ---------------------------------------


    POTLOK:  cpu time      0.0626: real time      0.0631
    SETDIJ:  cpu time      0.2680: real time      0.2692
    EDDIAG:  cpu time      4.6556: real time      4.6804
  RMM-DIIS:  cpu time     21.0193: real time     21.1264
    ORTHCH:  cpu time      0.5931: real time      0.5958
       DOS:  cpu time      0.0023: real time      0.0023
    CHARGE:  cpu time      1.1250: real time      1.1312
    MIXING:  cpu time      0.0017: real time      0.0017
    --------------------------------------------
      LOOP:  cpu time     27.7276: real time     27.8701

 eigenvalue-minimisations  : 41159
 total energy-change (2. order) :-0.5821426E+00  (-0.3067496E+00)
 number of electron     160.0000048 magnetization       0.0000000
 augmentation part       58.3728794 magnetization       0.0000000

 Broyden mixing:
  rms(total) = 0.51809E+00    rms(broyden)= 0.51776E+00
  rms(prec ) = 0.68050E+00
  weight for this iteration     100.00

 eigenvalues of (default mixing * dielectric matrix)
  average eigenvalue GAMMA=   0.6401
  0.3073  0.8066  0.8066

 Free energy of the ion-electron system (eV)
  ---------------------------------------------------
  alpha Z        PSCENC =       796.08647423
  Ewald energy   TEWEN  =    -11013.92505902
  -Hartree energ DENC   =     -9092.10016225
  -exchange      EXHF   =         0.00000000
  -V(xc)+E(xc)   XCENC  =       558.71763791
  PAW double counting   =     15537.19269174   -16141.45311340
  entropy T*S    EENTRO =        -0.02788691
  eigenvalues    EBANDS =     -2446.85637267
  atomic energy  EATOM  =     21710.84102437
  Solvation  Ediel_sol  =         0.00000000
  ---------------------------------------------------
  free energy    TOTEN  =       -91.52476599 eV

  energy without entropy =      -91.49687908  energy(sigma->0) =      -91.51082254


--------------------------------------------------------------------------------------------------------




--------------------------------------- Iteration      1(   9)  ---------------------------------------


    POTLOK:  cpu time      0.0601: real time      0.0909
    SETDIJ:  cpu time      0.2654: real time      0.2664
    EDDIAG:  cpu time      4.5436: real time      4.5676
  RMM-DIIS:  cpu time     23.0303: real time     23.1495
    ORTHCH:  cpu time      0.6025: real time      0.6050
       DOS:  cpu time      0.0021: real time      0.0021
    CHARGE:  cpu time      1.1122: real time      1.1180
    MIXING:  cpu time      0.0018: real time      0.0018
    --------------------------------------------
      LOOP:  cpu time     29.6180: real time     29.8015

 eigenvalue-minimisations  : 44556
 total energy-change (2. order) :-0.8764110E-01  (-0.8912450E-01)
 number of electron     160.0000048 magnetization       0.0000000
 augmentation part       58.7796594 magnetization       0.0000000

 Broyden mixing:
  rms(total) = 0.27744E+00    rms(broyden)= 0.27689E+00
  rms(prec ) = 0.33802E+00
  weight for this iteration     100.00

 eigenvalues of (default mixing * dielectric matrix)
  average eigenvalue GAMMA=   0.8538
  1.2017  1.2017  0.3023  0.7095

 Free energy of the ion-electron system (eV)
  ---------------------------------------------------
  alpha Z        PSCENC =       796.08647423
  Ewald energy   TEWEN  =    -11013.92505902
  -Hartree energ DENC   =     -9076.58235672
  -exchange      EXHF   =         0.00000000
  -V(xc)+E(xc)   XCENC  =       558.92791556
  PAW double counting   =     15623.10234530   -16233.81890178
  entropy T*S    EENTRO =        -0.01857015
  eigenvalues    EBANDS =     -2456.22527888
  atomic energy  EATOM  =     21710.84102437
  Solvation  Ediel_sol  =         0.00000000
  ---------------------------------------------------
  free energy    TOTEN  =       -91.61240709 eV

  energy without entropy =      -91.59383695  energy(sigma->0) =      -91.60312202


--------------------------------------------------------------------------------------------------------




--------------------------------------- Iteration      1(  10)  ---------------------------------------


    POTLOK:  cpu time      0.0761: real time      0.0976
    SETDIJ:  cpu time      0.2694: real time      0.2703
    EDDIAG:  cpu time      4.6723: real time      4.6987
  RMM-DIIS:  cpu time     24.9836: real time     25.1071
    ORTHCH:  cpu time      0.5956: real time      0.5982
       DOS:  cpu time      0.0021: real time      0.0021
    CHARGE:  cpu time      1.0581: real time      1.0635
    MIXING:  cpu time      0.0017: real time      0.0017
    --------------------------------------------
      LOOP:  cpu time     31.6590: real time     31.8393

 eigenvalue-minimisations  : 45971
 total energy-change (2. order) :-0.1550892E-01  (-0.2805061E-01)
 number of electron     160.0000048 magnetization      -0.0000000
 augmentation part       58.9666268 magnetization      -0.0000000

 Broyden mixing:
  rms(total) = 0.14508E+00    rms(broyden)= 0.14479E+00
  rms(prec ) = 0.16585E+00
  weight for this iteration     100.00

 eigenvalues of (default mixing * dielectric matrix)
  average eigenvalue GAMMA=   1.0305
  1.9213  1.3380  0.3026  0.8699  0.7205

 Free energy of the ion-electron system (eV)
  ---------------------------------------------------
  alpha Z        PSCENC =       796.08647423
  Ewald energy   TEWEN  =    -11013.92505902
  -Hartree energ DENC   =     -9069.71713863
  -exchange      EXHF   =         0.00000000
  -V(xc)+E(xc)   XCENC  =       558.95345572
  PAW double counting   =     15685.12011124   -16299.88468632
  entropy T*S    EENTRO =        -0.01716827
  eigenvalues    EBANDS =     -2459.08492933
  atomic energy  EATOM  =     21710.84102437
  Solvation  Ediel_sol  =         0.00000000
  ---------------------------------------------------
  free energy    TOTEN  =       -91.62791602 eV

  energy without entropy =      -91.61074775  energy(sigma->0) =      -91.61933188


--------------------------------------------------------------------------------------------------------




--------------------------------------- Iteration      1(  11)  ---------------------------------------


    POTLOK:  cpu time      0.0689: real time      0.0945
    SETDIJ:  cpu time      0.2663: real time      0.2679
    EDDIAG:  cpu time      4.4563: real time      4.4793
  RMM-DIIS:  cpu time     22.0916: real time     22.2030
    ORTHCH:  cpu time      0.6063: real time      0.6094
       DOS:  cpu time      0.0022: real time      0.0022
    CHARGE:  cpu time      1.1090: real time      1.1150
    MIXING:  cpu time      0.0019: real time      0.0019
    --------------------------------------------
      LOOP:  cpu time     28.6026: real time     28.7733

 eigenvalue-minimisations  : 42228
 total energy-change (2. order) :-0.3547437E-02  (-0.6051373E-02)
 number of electron     160.0000048 magnetization       0.0000000
 augmentation part       58.9438159 magnetization       0.0000000

 Broyden mixing:
  rms(total) = 0.53794E-01    rms(broyden)= 0.53739E-01
  rms(prec ) = 0.59892E-01
  weight for this iteration     100.00

 eigenvalues of (default mixing * dielectric matrix)
  average eigenvalue GAMMA=   1.0947
  1.8787  1.8787  0.3026  0.9172  0.9172  0.6736

 Free energy of the ion-electron system (eV)
  ---------------------------------------------------
  alpha Z        PSCENC =       796.08647423
  Ewald energy   TEWEN  =    -11013.92505902
  -Hartree energ DENC   =     -9067.59392814
  -exchange      EXHF   =         0.00000000
  -V(xc)+E(xc)   XCENC  =       559.08444067
  PAW double counting   =     15738.56285596   -16356.13080356
  entropy T*S    EENTRO =        -0.01750705
  eigenvalues    EBANDS =     -2458.53896091
  atomic energy  EATOM  =     21710.84102437
  Solvation  Ediel_sol  =         0.00000000
  ---------------------------------------------------
  free energy    TOTEN  =       -91.63146345 eV

  energy without entropy =      -91.61395640  energy(sigma->0) =      -91.62270993


--------------------------------------------------------------------------------------------------------




--------------------------------------- Iteration      1(  12)  ---------------------------------------


    POTLOK:  cpu time      0.0815: real time      0.0964
    SETDIJ:  cpu time      0.2697: real time      0.2707
    EDDIAG:  cpu time      4.6590: real time      4.6845
  RMM-DIIS:  cpu time     23.1396: real time     23.2545
    ORTHCH:  cpu time      0.6030: real time      0.6057
       DOS:  cpu time      0.0023: real time      0.0023
    CHARGE:  cpu time      1.1309: real time      1.1368
    MIXING:  cpu time      0.0020: real time      0.0020
    --------------------------------------------
      LOOP:  cpu time     29.8880: real time     30.0527

 eigenvalue-minimisations  : 42971
 total energy-change (2. order) :-0.7385045E-02  (-0.1746468E-02)
 number of electron     160.0000048 magnetization       0.0000000
 augmentation part       58.9670631 magnetization       0.0000000

 Broyden mixing:
  rms(total) = 0.30296E-01    rms(broyden)= 0.30272E-01
  rms(prec ) = 0.35872E-01
  weight for this iteration     100.00

 eigenvalues of (default mixing * dielectric matrix)
  average eigenvalue GAMMA=   1.0785
  2.2746  0.3026  1.2973  1.2973  0.9491  0.7668  0.6620

 Free energy of the ion-electron system (eV)
  ---------------------------------------------------
  alpha Z        PSCENC =       796.08647423
  Ewald energy   TEWEN  =    -11013.92505902
  -Hartree energ DENC   =     -9067.17484211
  -exchange      EXHF   =         0.00000000
  -V(xc)+E(xc)   XCENC  =       559.09324260
  PAW double counting   =     15742.02933432   -16359.67613267
  entropy T*S    EENTRO =        -0.01797417
  eigenvalues    EBANDS =     -2458.89491605
  atomic energy  EATOM  =     21710.84102437
  Solvation  Ediel_sol  =         0.00000000
  ---------------------------------------------------
  free energy    TOTEN  =       -91.63884850 eV

  energy without entropy =      -91.62087433  energy(sigma->0) =      -91.62986142


--------------------------------------------------------------------------------------------------------




--------------------------------------- Iteration      1(  13)  ---------------------------------------


    POTLOK:  cpu time      0.0783: real time      0.0936
    SETDIJ:  cpu time      0.2692: real time      0.2701
    EDDIAG:  cpu time      4.6757: real time      4.6997
  RMM-DIIS:  cpu time     19.9206: real time     20.0221
    ORTHCH:  cpu time      0.5950: real time      0.5976
       DOS:  cpu time      0.0022: real time      0.0022
    CHARGE:  cpu time      1.0884: real time      1.0936
    MIXING:  cpu time      0.0017: real time      0.0017
    --------------------------------------------
      LOOP:  cpu time     26.6312: real time     26.7806

 eigenvalue-minimisations  : 37761
 total energy-change (2. order) : 0.6144829E-04  (-0.4285860E-03)
 number of electron     160.0000048 magnetization       0.0000000
 augmentation part       58.9783787 magnetization       0.0000000

 Broyden mixing:
  rms(total) = 0.13060E-01    rms(broyden)= 0.13047E-01
  rms(prec ) = 0.15758E-01
  weight for this iteration     100.00

 eigenvalues of (default mixing * dielectric matrix)
  average eigenvalue GAMMA=   1.1269
  2.6193  1.3668  1.3668  0.3026  1.1589  0.8380  0.7185  0.6447

 Free energy of the ion-electron system (eV)
  ---------------------------------------------------
  alpha Z        PSCENC =       796.08647423
  Ewald energy   TEWEN  =    -11013.92505902
  -Hartree energ DENC   =     -9067.00399243
  -exchange      EXHF   =         0.00000000
  -V(xc)+E(xc)   XCENC  =       559.12371836
  PAW double counting   =     15744.28892583   -16361.99680016
  entropy T*S    EENTRO =        -0.01786463
  eigenvalues    EBANDS =     -2459.03521361
  atomic energy  EATOM  =     21710.84102437
  Solvation  Ediel_sol  =         0.00000000
  ---------------------------------------------------
  free energy    TOTEN  =       -91.63878705 eV

  energy without entropy =      -91.62092242  energy(sigma->0) =      -91.62985474


--------------------------------------------------------------------------------------------------------




--------------------------------------- Iteration      1(  14)  ---------------------------------------


    POTLOK:  cpu time      0.0627: real time      0.1008
    SETDIJ:  cpu time      0.2653: real time      0.2663
    EDDIAG:  cpu time      4.6788: real time      4.7031
  RMM-DIIS:  cpu time     14.0787: real time     14.1507
    ORTHCH:  cpu time      0.6082: real time      0.6109
       DOS:  cpu time      0.0020: real time      0.0020
    --------------------------------------------
      LOOP:  cpu time     19.6957: real time     19.8338

 eigenvalue-minimisations  : 25773
 total energy-change (2. order) :-0.1610857E-04  (-0.1272760E-03)
 number of electron     160.0000048 magnetization       0.0000000
 augmentation part       58.9783787 magnetization       0.0000000

 Free energy of the ion-electron system (eV)
  ---------------------------------------------------
  alpha Z        PSCENC =       796.08647423
  Ewald energy   TEWEN  =    -11013.92505902
  -Hartree energ DENC   =     -9066.94077540
  -exchange      EXHF   =         0.00000000
  -V(xc)+E(xc)   XCENC  =       559.13852001
  PAW double counting   =     15745.72008984   -16363.42152200
  entropy T*S    EENTRO =        -0.01771344
  eigenvalues    EBANDS =     -2459.11984175
  atomic energy  EATOM  =     21710.84102437
  Solvation  Ediel_sol  =         0.00000000
  ---------------------------------------------------
  free energy    TOTEN  =       -91.63880316 eV

  energy without entropy =      -91.62108972  energy(sigma->0) =      -91.62994644


--------------------------------------------------------------------------------------------------------




 average (electrostatic) potential at core
  the test charge radii are     0.9500  1.0808
  (the norm of the test charge is              1.0000)
       1 -47.6120       2 -47.6120       3 -47.6120       4 -47.6120       5 -47.6120
       6 -47.6120       7 -47.6120       8 -47.6120       9 -55.1178      10 -55.1178
      11 -55.1178      12 -55.1178      13 -55.1178      14 -55.1178      15 -55.1178
      16 -55.1178
 
 
 
 E-fermi :   3.5777     XC(G=0): -10.2890     alpha+bet : -9.1214

 Fermi energy:         3.5777118032

 spin component 1

 k-point     1 :       0.0000    0.0000    0.0000
  band No.  band energies     occupation 
      1     -51.2439      1.00000
      2     -51.2364      1.00000
      3     -51.2364      1.00000
      4     -51.2317      1.00000
      5     -51.1120      1.00000
      6     -51.0522      1.00000
      7     -51.0472      1.00000
      8     -51.0472      1.00000
      9     -51.0398      1.00000
     10     -50.9503      1.00000
     11     -50.9503      1.00000
     12     -50.7860      1.00000
     13     -48.4157      1.00000
     14     -48.4139      1.00000
     15     -48.4139      1.00000
     16     -48.4136      1.00000
     17     -48.3852      1.00000
     18     -48.2058      1.00000
     19     -48.2058      1.00000
     20     -48.0540      1.00000
     21     -48.0540      1.00000
     22     -48.0537      1.00000
     23     -48.0518      1.00000
     24     -48.0233      1.00000
     25     -10.5949      1.00000
     26      -9.5251      1.00000
     27      -9.5251      1.00000
     28      -9.5090      1.00000
     29      -9.5090      1.00000
     30      -9.2294      1.00000
     31      -9.1285      1.00000
     32      -9.0318      1.00000
     33      -2.4806      1.00000
     34      -2.1487      1.00000
     35      -1.1728      1.00000
     36      -1.1728      1.00000
     37      -1.1564      1.00000
     38      -1.1564      1.00000
     39      -0.8776      1.00000
     40      -0.7327      1.00000
     41      -0.6439      1.00000
     42      -0.6439      1.00000
     43      -0.6373      1.00000
     44      -0.4384      1.00000
     45      -0.4353      1.00000
     46      -0.4295      1.00000
     47      -0.4295      1.00000
     48      -0.1831      1.00000
     49       0.1030      1.00000
     50       0.1030      1.00000
     51       0.1793      1.00000
     52       0.5214      1.00000
     53       0.5214      1.00000
     54       0.7172      1.00000
     55       0.8234      1.00000
     56       0.9175      1.00000
     57       1.1250      1.00000
     58       1.1250      1.00000
     59       1.2144      1.00000
     60       1.2144      1.00000
     61       1.3103      1.00000
     62       1.3467      1.00000
     63       1.4800      1.00000
     64       1.5780      1.00000
     65       1.7367      1.00000
     66       1.7543      1.00000
     67       1.7543      1.00000
     68       1.8641      1.00000
     69       1.9517      1.00000
     70       2.0744      1.00000
     71       2.0744      1.00000
     72       2.3379      1.00000
     73       2.7595      1.00000
     74       2.8213      1.00000
     75       2.8213      1.00000
     76       2.8942      1.00000
     77       2.8942      1.00000
     78       3.3211      1.00000
     79       3.3489      1.00000
     80       3.3876      1.00000
     81       3.4999      0.98618
     82       4.0296      0.00000
     83       4.0296      0.00000
     84       4.1083      0.00000
     85       4.1083      0.00000
     86       4.1270      0.00000
     87       4.1291      0.00000
     88       4.4135      0.00000
     89       4.4135      0.00000
     90       4.4156      0.00000
     91       4.4157      0.00000
     92       4.4599      0.00000
     93       4.9837      0.00000
[...]
         0         1         2         3         4         5         6         7         8         9
 total charge-density along one line
 
 soft charge-density along one line, spin component           2
         0         1         2         3         4         5         6         7         8         9
 total charge-density along one line
 
 pseudopotential strength for first ion, spin component:           1
-55.368   0.049   0.000  28.497  -0.039  -0.000   0.000   0.000
  0.049 -55.428  -0.000  -0.039  28.542   0.000  -0.000   0.000
  0.000  -0.000 -55.253  -0.000   0.000  28.407   0.000  -0.000
 28.497  -0.039  -0.000 -10.216   0.029   0.000  -0.000  -0.000
 -0.039  28.542   0.000   0.029 -10.248  -0.000   0.000  -0.000
 -0.000   0.000  28.407   0.000  -0.000 -10.156  -0.000   0.000
  0.000  -0.000   0.000  -0.000   0.000  -0.000  -9.047  -0.000
  0.000   0.000  -0.000  -0.000  -0.000   0.000  -0.000  -8.846
 -0.000   0.000  -0.000   0.000  -0.000   0.000  -0.000  -0.018
 -0.000   0.000   0.000   0.000  -0.000  -0.000  -0.030   0.000
 -0.000  -0.000   0.000   0.000   0.000  -0.000  -0.000  -0.098
 -0.000   0.000  -0.000   0.000  -0.000   0.000  -0.032   0.000
 -0.000  -0.000   0.000   0.000   0.000  -0.000   0.000  -0.081
  0.000  -0.000   0.000  -0.000   0.000  -0.000   0.000   0.004
  0.000  -0.000  -0.000  -0.000   0.000   0.000   0.006  -0.000
  0.000   0.000  -0.000  -0.000  -0.000   0.000   0.000   0.023
 -0.000  -0.000  -0.000   0.000   0.000   0.000  -0.000  -0.012
  0.000   0.000   0.000  -0.000  -0.000  -0.000   0.000   0.002
 pseudopotential strength for first ion, spin component:           2
-53.179   0.104   0.000  26.824  -0.074  -0.000   0.000   0.000
  0.104 -53.195  -0.000  -0.074  26.834   0.000  -0.000   0.000
  0.000  -0.000 -53.167  -0.000   0.000  26.807   0.000  -0.000
 26.824  -0.074  -0.000  -9.034   0.056   0.000  -0.000  -0.000
 -0.074  26.834   0.000   0.056  -9.042  -0.000   0.000  -0.000
 -0.000   0.000  26.807   0.000  -0.000  -9.024  -0.000   0.000
  0.000  -0.000   0.000  -0.000   0.000  -0.000  -6.899  -0.000
  0.000   0.000  -0.000  -0.000  -0.000   0.000  -0.000  -7.271
 -0.000   0.000  -0.000   0.000  -0.000   0.000  -0.000   0.088
 -0.000   0.000   0.000   0.000  -0.000  -0.000   0.115   0.000
 -0.000  -0.000   0.000   0.000   0.000  -0.000  -0.000   0.011
 -0.000   0.000  -0.000   0.000  -0.000   0.000  -0.534   0.000
 -0.000  -0.000   0.000   0.000   0.000  -0.000   0.000  -0.447
  0.000  -0.000   0.000  -0.000   0.000  -0.000   0.000  -0.019
  0.000  -0.000  -0.000  -0.000   0.000   0.000  -0.025  -0.000
  0.000   0.000  -0.000  -0.000  -0.000   0.000   0.000  -0.004
 -0.000  -0.000  -0.000   0.000   0.000   0.000  -0.000  -0.012
  0.000   0.000   0.000  -0.000  -0.000  -0.000   0.000   0.003
 total augmentation occupancy for first ion, spin component:           1
  2.009  -0.019  -0.000   0.056  -0.047  -0.000   0.000   0.000   0.000  -0.000  -0.000   0.000   0.000   0.000  -0.000   0.000
 -0.019   2.013   0.000  -0.047   0.064  -0.000   0.000   0.000   0.000  -0.000  -0.000   0.000   0.000  -0.000   0.000   0.000
 -0.000   0.000   2.009  -0.000  -0.000   0.052   0.000  -0.000   0.000  -0.000   0.000  -0.000   0.000   0.000   0.000   0.000
  0.056  -0.047   0.000   0.194  -0.113   0.000   0.000  -0.000   0.000   0.000  -0.000   0.000  -0.000   0.000   0.000  -0.000
 -0.047   0.064  -0.000  -0.113   0.215   0.000  -0.000   0.000   0.000   0.000  -0.000  -0.000   0.000   0.000   0.000   0.000
  0.000   0.000   0.052   0.000   0.000   0.177  -0.000   0.000   0.000   0.000  -0.000   0.000   0.000   0.000   0.000   0.000
  0.000   0.000   0.000   0.000  -0.000   0.000   1.244  -0.000  -0.000  -0.096   0.000  -0.079   0.000   0.000  -0.055   0.000
 -0.000   0.000  -0.000   0.000  -0.000   0.000   0.000   1.469  -0.001  -0.000  -0.091   0.000   0.087  -0.139  -0.000   0.102
  0.000   0.000   0.000   0.000   0.000   0.000  -0.000  -0.001   1.302   0.000  -0.168   0.000  -0.140   0.045   0.000  -0.089
 -0.000  -0.000   0.000   0.000   0.000   0.000  -0.096   0.000  -0.000   1.221   0.000  -0.057   0.000   0.000  -0.057  -0.000
 -0.000   0.000   0.000  -0.000   0.000  -0.000  -0.000  -0.091  -0.168   0.000   1.504  -0.000   0.106  -0.087  -0.000   0.141
  0.000   0.000  -0.000   0.000  -0.000   0.000  -0.079  -0.000   0.000  -0.057  -0.000   0.164  -0.000  -0.000  -0.028  -0.000
 -0.000   0.000   0.000   0.000   0.000   0.000  -0.000   0.087  -0.140  -0.000   0.106  -0.000   0.248  -0.069   0.000   0.090
 -0.000   0.000   0.000   0.000  -0.000   0.000  -0.000  -0.139   0.045   0.000  -0.087   0.000  -0.069   0.166  -0.000  -0.009
 -0.000   0.000   0.000   0.000   0.000   0.000  -0.055   0.000   0.000  -0.057  -0.000  -0.028  -0.000   0.000   0.161  -0.000
  0.000  -0.000   0.000   0.000   0.000   0.000   0.000   0.102  -0.089  -0.000   0.141   0.000   0.090  -0.009   0.000   0.140
  0.000   0.000   0.000   0.000   0.000   0.000  -0.000  -0.015  -0.034   0.000   0.095  -0.000  -0.331   0.028   0.000  -0.007
  0.000   0.000   0.000  -0.000  -0.000   0.000  -0.000   0.003   0.017  -0.000  -0.016   0.000   0.021  -0.005   0.000   0.004
 total augmentation occupancy for first ion, spin component:           2
 -0.006   0.000   0.000  -0.002  -0.000   0.000  -0.000  -0.000  -0.000   0.000   0.000   0.000   0.000   0.000   0.000  -0.000
  0.000  -0.008  -0.000  -0.000  -0.008  -0.000  -0.000  -0.000  -0.000   0.000   0.000   0.000   0.000   0.000   0.000  -0.000
  0.000   0.000  -0.008  -0.000   0.000  -0.006   0.000   0.000   0.000  -0.000   0.000  -0.000  -0.000   0.000  -0.000   0.000
 -0.002  -0.000   0.000   0.014  -0.002   0.000   0.000   0.000  -0.000  -0.000  -0.000   0.000  -0.000   0.000   0.000  -0.000
 -0.000  -0.008   0.000  -0.002   0.001   0.000   0.000   0.000   0.000   0.000   0.000  -0.000   0.000   0.000  -0.000   0.000
  0.000  -0.000  -0.006   0.000   0.000   0.009   0.000   0.000  -0.000   0.000   0.000   0.000   0.000   0.000   0.000   0.000
 -0.000  -0.000   0.000   0.000   0.000  -0.000   0.711  -0.000  -0.000   0.112  -0.000  -0.274   0.000   0.000   0.008   0.000
  0.000   0.000   0.000  -0.000   0.000   0.000   0.000   0.380   0.089   0.000   0.038   0.000  -0.204  -0.003  -0.000  -0.032
 -0.000  -0.000   0.000   0.000  -0.000  -0.000  -0.000   0.089   0.552  -0.000   0.217   0.000  -0.004  -0.222   0.000  -0.032
  0.000   0.000   0.000  -0.000   0.000   0.000   0.112   0.000  -0.000   0.708   0.000   0.010   0.000  -0.000  -0.271  -0.000
  0.000   0.000   0.000   0.000   0.000   0.000   0.000   0.038   0.217   0.000   0.258   0.000  -0.017  -0.026  -0.000  -0.156
  0.000   0.000   0.000   0.000  -0.000   0.000  -0.274  -0.000   0.000   0.010   0.000   0.056   0.000  -0.000   0.005  -0.000
  0.000   0.000   0.000  -0.000   0.000   0.000  -0.000  -0.204  -0.004   0.000  -0.017  -0.000   0.009   0.024   0.000  -0.002
  0.000  -0.000   0.000   0.000   0.000   0.000  -0.000  -0.003  -0.222  -0.000  -0.026  -0.000   0.024   0.016   0.000   0.013
  0.000   0.000  -0.000   0.000  -0.000  -0.000   0.008  -0.000   0.000  -0.271   0.000   0.005  -0.000   0.000   0.042   0.000
  0.000   0.000  -0.000  -0.000   0.000   0.000  -0.000  -0.032  -0.032   0.000  -0.156   0.000  -0.002   0.013   0.000  -0.011
  0.000  -0.000  -0.000   0.000   0.000   0.000   0.000   0.129   0.019  -0.000  -0.051  -0.000  -0.036   0.004   0.000  -0.026
  0.000   0.000  -0.000   0.000   0.000  -0.000   0.000   0.014   0.017  -0.000  -0.021   0.000  -0.004  -0.002   0.000   0.000


------------------------ aborting loop because EDIFF is reached ----------------------------------------





 total charge

# of ion       s       p       d       tot
------------------------------------------
    1        0.342   6.296   6.061  12.698
    2        0.342   6.296   6.061  12.698
    3        0.342   6.296   6.061  12.698
    4        0.342   6.296   6.061  12.698
    5        0.342   6.296   6.061  12.698
    6        0.342   6.296   6.061  12.698
    7        0.342   6.296   6.061  12.698
    8        0.342   6.296   6.061  12.698
    9        1.487   2.269   0.051   3.807
   10        1.487   2.269   0.051   3.807
   11        1.487   2.269   0.051   3.807
   12        1.487   2.269   0.051   3.807
   13        1.487   2.269   0.051   3.807
   14        1.487   2.269   0.051   3.807
   15        1.487   2.269   0.051   3.807
   16        1.487   2.269   0.051   3.807
--------------------------------------------------
tot         14.634  68.518  48.891 132.044



 magnetization (x)

# of ion       s       p       d       tot
------------------------------------------
    1        0.029   0.012   2.548   2.588
    2       -0.029  -0.012  -2.548  -2.588
    3       -0.029  -0.012  -2.548  -2.588
    4        0.029   0.012   2.548   2.588
    5        0.029   0.012   2.548   2.588
    6       -0.029  -0.012  -2.548  -2.588
    7       -0.029  -0.012  -2.548  -2.588
    8        0.029   0.012   2.548   2.588
    9        0.000   0.000   0.000   0.000
   10        0.000   0.000   0.000   0.000
   11        0.000   0.000   0.000   0.000
   12        0.000   0.000   0.000   0.000
   13        0.000   0.000   0.000   0.000
   14        0.000   0.000   0.000   0.000
   15        0.000   0.000   0.000   0.000
   16        0.000   0.000   0.000   0.000
--------------------------------------------------
tot         -0.000   0.000   0.000   0.000
 
    CHARGE:  cpu time      1.0918: real time      1.0982
    FORLOC:  cpu time      0.0033: real time      0.0033
    FORNL :  cpu time      6.7724: real time      6.8048
    STRESS:  cpu time     20.6183: real time     20.7209
    FORCOR:  cpu time      0.0526: real time      0.0529
    FORHAR:  cpu time      0.0070: real time      0.0071
    MIXING:  cpu time      0.0013: real time      0.0013
    OFIELD:  cpu time      0.0000: real time      0.0000
    FORVDW:  cpu time      0.7789: real time      0.7817

  FORCE on cell =-STRESS in cart. coord.  units (eV):
  Direction    XX          YY          ZZ          XY          YZ          ZX
  --------------------------------------------------------------------------------------
  Alpha Z   796.08647   796.08647   796.08647
  Ewald    -787.54483 -1648.27035 -8596.93250     0.00000    -0.00000     0.00000
  Hartree  5637.46079  4844.33398 -1435.00017    -0.00000     0.00000    -0.00000
  E(xc)    -896.68377  -898.64632  -897.89250    -0.00000     0.00000     0.00000
  Local   -6703.47999 -5051.25794  8197.71558    -0.00000    -0.00000     0.00000
  n-local  -275.16731  -247.76906  -239.84273    -0.92035    -0.23213    -0.72387
  augment   530.26942   516.05009   514.16695     0.00000     0.00000     0.00000
  Kinetic  1701.59345  1692.12302  1663.71945     3.45138    -0.33114     0.18703
  Fock        0.00000     0.00000     0.00000     0.00000     0.00000     0.00000
  vdW        -6.18835    -6.25910    -6.43779     0.00000     0.00000    -0.00000
  -------------------------------------------------------------------------------------
  Total      -3.65410    -3.60921    -4.41724     0.00000    -0.00000     0.00000
  in kB     -18.35274   -18.12728   -22.18558     0.00000    -0.00000     0.00000
  external pressure =      -19.56 kB  Pullay stress =        0.00 kB


 VOLUME and BASIS-vectors are now :
 -----------------------------------------------------------------------------
  energy-cutoff  :      550.00
  volume of cell :      319.00
      direct lattice vectors                 reciprocal lattice vectors
     4.817233296 -5.755968633  0.000000000     0.103794018 -0.086866352 -0.000000000
     4.817233296  5.755968633  0.000000000     0.103794018  0.086866352  0.000000000
     0.000000000 -0.000000000  5.752340552     0.000000000  0.000000000  0.173842281

  length of vectors
     7.505791866  7.505791866  5.752340552     0.135347558  0.135347558  0.173842281


 FORCES acting on ions
    electron-ion (+dipol)            ewald-force                    non-local-force                 convergence-correction
 -----------------------------------------------------------------------------------------------
   0.889E-14 -.143E-12 0.136E-13   0.711E-14 -.185E-12 -.142E-13   0.635E-22 0.107E-21 -.646E-22   0.370E-12 -.645E-13 0.228E-11
   0.765E-12 0.741E-12 0.238E-13   0.616E-15 -.178E-12 0.178E-14   0.711E-22 -.394E-21 -.484E-21   0.126E-11 -.226E-11 -.336E-12
   0.641E-12 -.155E-11 -.120E-10   0.512E-14 -.171E-12 0.142E-13   0.551E-22 -.163E-21 0.282E-21   -.399E-12 0.335E-12 0.232E-11
   -.493E-11 -.962E-11 -.899E-11   0.000E+00 -.178E-12 0.107E-13   0.614E-22 0.287E-21 -.626E-22   0.744E-12 0.175E-11 -.231E-11
   -.262E-11 -.395E-11 -.383E-11   -.247E-13 0.188E-12 0.160E-13   -.273E-22 -.982E-22 -.302E-22   -.136E-11 0.200E-11 -.377E-12
   0.432E-11 0.582E-11 -.446E-11   -.213E-13 0.188E-12 0.142E-13   -.336E-21 0.365E-21 0.102E-21   -.802E-12 0.310E-12 0.453E-12
   -.144E-10 -.295E-10 0.378E-10   -.213E-13 0.185E-12 -.107E-13   -.170E-21 0.681E-21 -.343E-21   0.844E-12 -.175E-11 0.142E-13
   0.103E-11 -.627E-11 0.359E-10   -.180E-13 0.171E-12 -.142E-13   -.187E-21 -.284E-21 0.487E-23   0.285E-12 0.371E-12 0.144E-11
   -.848E-09 -.859E-12 0.341E+03   -.782E-16 -.355E-14 -.342E+03   -.291E-18 0.291E-17 0.109E+01   0.301E-12 0.382E-12 0.757E-01
   -.847E-09 -.916E-12 0.341E+03   0.711E-14 -.349E-14 -.342E+03   0.479E-18 -.300E-17 0.109E+01   -.185E-13 -.363E-12 0.757E-01
   -.846E-09 0.952E-13 0.341E+03   0.000E+00 0.659E-14 -.342E+03   0.494E-18 -.136E-17 0.109E+01   0.331E-12 0.326E-12 0.757E-01
   -.847E-09 -.216E-12 0.341E+03   0.143E-13 0.355E-14 -.342E+03   -.254E-18 -.391E-17 0.109E+01   -.494E-12 -.175E-12 0.757E-01
   0.847E-09 -.317E-12 -.341E+03   0.113E-13 -.173E-13 0.342E+03   -.970E-18 -.500E-18 -.109E+01   -.263E-13 -.382E-13 -.757E-01
   0.847E-09 -.534E-12 -.341E+03   0.134E-13 -.192E-13 0.342E+03   0.263E-18 -.355E-17 -.109E+01   -.638E-13 0.113E-12 -.757E-01
   0.847E-09 0.268E-13 -.341E+03   0.149E-13 -.171E-14 0.342E+03   0.190E-17 0.553E-17 -.109E+01   -.260E-12 -.334E-12 -.757E-01
   0.846E-09 0.193E-11 -.341E+03   0.167E-13 -.398E-14 0.342E+03   0.351E-18 -.342E-18 -.109E+01   0.311E-12 0.155E-12 -.757E-01
 -----------------------------------------------------------------------------------------------
   -.153E-10 -.452E-10 0.454E-10   0.507E-14 -.178E-13 0.000E+00   0.197E-17 -.422E-17 0.222E-15   0.102E-11 0.762E-12 0.293E-11
 
 
 POSITION                                       TOTAL-FORCE (eV/Angst)
 -----------------------------------------------------------------------------------
      0.00000     -0.00000     -0.00000         0.000000      0.000000      0.000000
      2.40862      2.87798     -0.00000         0.000000      0.000000      0.000000
      2.40862     -2.87798     -0.00000         0.000000      0.000000      0.000000
      4.81723      0.00000     -0.00000         0.000000      0.000000      0.000000
      2.40862      0.00000     -0.00000         0.000000      0.000000      0.000000
      4.81723      2.87798     -0.00000         0.000000      0.000000      0.000000
      4.81723     -2.87798     -0.00000         0.000000      0.000000      0.000000
      7.22585      0.00000     -0.00000         0.000000      0.000000      0.000000
      2.40862     -1.43899      3.96683         0.000000      0.000000     -0.031480
      4.81723      1.43899      3.96683        -0.000000      0.000000     -0.031480
      4.81723     -4.31698      3.96683         0.000000      0.000000     -0.031480
      7.22585     -1.43899      3.96683        -0.000000      0.000000     -0.031480
      2.40862      1.43899      1.78551         0.000000     -0.000000      0.031480
      4.81723      4.31698      1.78551         0.000000     -0.000000      0.031480
      4.81723     -1.43899      1.78551        -0.000000     -0.000000      0.031480
      7.22585      1.43899      1.78551        -0.000000     -0.000000      0.031480
 -----------------------------------------------------------------------------------
    total drift:                               -0.000000     -0.000000      0.000000


--------------------------------------------------------------------------------------------------------



  FREE ENERGIE OF THE ION-ELECTRON SYSTEM (eV)
  ---------------------------------------------------
  free  energy   TOTEN  =       -98.27897114 eV

  energy  without entropy=      -98.25974520  energy(sigma->0) =      -98.26935817
 
 d Force = 0.5605744E-03[ 0.374E-03, 0.747E-03]  d Energy = 0.2756658E-03 0.285E-03
 d Force = 0.4069873E+01[ 0.407E+01, 0.407E+01]  d Ewald  = 0.2092081E+01 0.198E+01


--------------------------------------------------------------------------------------------------------


    POTLOK:  cpu time      0.3312: real time      0.3566


--------------------------------------------------------------------------------------------------------




--------------------------------------------------------------------------------------------------------


  
 reached required accuracy - stopping structural energy minimisation
     LOOP+:  cpu time     84.6765: real time     85.2143
    4ORBIT:  cpu time      0.0000: real time      0.0000



 total charge

# of ion       s       p       d       tot
------------------------------------------
    1        0.342   6.296   6.061  12.698
    2        0.342   6.296   6.061  12.698
    3        0.342   6.296   6.061  12.698
    4        0.342   6.296   6.061  12.698
    5        0.342   6.296   6.061  12.698
    6        0.342   6.296   6.061  12.698
    7        0.342   6.296   6.061  12.698
    8        0.342   6.296   6.061  12.698
    9        1.487   2.269   0.051   3.807
   10        1.487   2.269   0.051   3.807
   11        1.487   2.269   0.051   3.807
   12        1.487   2.269   0.051   3.807
   13        1.487   2.269   0.051   3.807
   14        1.487   2.269   0.051   3.807
   15        1.487   2.269   0.051   3.807
   16        1.487   2.269   0.051   3.807
--------------------------------------------------
tot         14.634  68.518  48.891 132.044



 magnetization (x)

# of ion       s       p       d       tot
------------------------------------------
    1        0.029   0.012   2.548   2.588
    2       -0.029  -0.012  -2.548  -2.588
    3       -0.029  -0.012  -2.548  -2.588
    4        0.029   0.012   2.548   2.588
    5        0.029   0.012   2.548   2.588
    6       -0.029  -0.012  -2.548  -2.588
    7       -0.029  -0.012  -2.548  -2.588
    8        0.029   0.012   2.548   2.588
    9        0.000   0.000   0.000   0.000
   10        0.000   0.000   0.000   0.000
   11        0.000   0.000   0.000   0.000
   12        0.000   0.000   0.000   0.000
   13        0.000   0.000   0.000   0.000
   14        0.000   0.000   0.000   0.000
   15        0.000   0.000   0.000   0.000
   16        0.000   0.000   0.000   0.000
--------------------------------------------------
tot         -0.000   0.000   0.000   0.000
 

 total amount of memory used by VASP MPI-rank0   190154. kBytes
=======================================================================

   base      :      30000. kBytes
   nonlr-proj:      13621. kBytes
   fftplans  :       3084. kBytes
   grid      :      19560. kBytes
   one-center:        497. kBytes
   wavefun   :     123392. kBytes
 
  
  
 General timing and accounting informations for this job:
 ========================================================
  
                  Total CPU time used (sec):      739.668
                            User time (sec):      736.999
                          System time (sec):        2.669
                         Elapsed time (sec):      745.288
  
                   Maximum memory used (kb):      487596.
                   Average memory used (kb):          N/A
  
                          Minor page faults:       234315
                          Major page faults:            0
                 Voluntary context switches:        37773
