 vasp.6.4.1 05Apr23 (build Jun 01 2023 13:46:15) complex                        
  
 executed on             LinuxIFC date 2023.12.16  21:59:00
 running   20 mpi-ranks, on    5 nodes
 distrk:  each k-point on   20 cores,    1 groups
 distr:  one band on NCORE=   1 cores,   20 groups


--------------------------------------------------------------------------------------------------------


 INCAR:
   ALGO = Fast
   EDIFF = 0.0002
   ENCUT = 550
   IBRION = -1
   ISIF = 4
   ISMEAR = -5
   ISPIN = 2
   IVDW = 13
   LASPH = True
   LMAXMIX = 4
   LORBIT = 11
   LREAL = Auto
   LWAVE = False
   MAGMOM = 1*2.601 2*-2.601 2*2.601 2*-2.601 1*2.601 8*0.0
   NELM = 100
   NSW = 0
   PREC = Accurate
   SIGMA = 0.05

 POTCAR:   PAW_PBE Fe_pv 06Sep2000                
 POTCAR:   PAW_PBE Se 06Sep2000                   
 -----------------------------------------------------------------------------
|                                                                             |
|           W    W    AA    RRRRR   N    N  II  N    N   GGGG   !!!           |
|           W    W   A  A   R    R  NN   N  II  NN   N  G    G  !!!           |
|           W    W  A    A  R    R  N N  N  II  N N  N  G       !!!           |
|           W WW W  AAAAAA  RRRRR   N  N N  II  N  N N  G  GGG   !            |
|           WW  WW  A    A  R   R   N   NN  II  N   NN  G    G                |
|           W    W  A    A  R    R  N    N  II  N    N   GGGG   !!!           |
|                                                                             |
|     For optimal performance we recommend to set                             |
|       NCORE = 2 up to number-of-cores-per-socket                            |
|     NCORE specifies how many cores store one orbital (NPAR=cpu/NCORE).      |
|     This setting can greatly improve the performance of VASP for DFT.       |
|     The default, NCORE=1 might be grossly inefficient on modern             |
|     multi-core architectures or massively parallel machines. Do your        |
|     own testing! More info at https://www.vasp.at/wiki/index.php/NCORE      |
|     Unfortunately you need to use the default for GW and RPA                |
|     calculations (for HF NCORE is supported but not extensively tested      |
|     yet).                                                                   |
|                                                                             |
 -----------------------------------------------------------------------------

 POTCAR:   PAW_PBE Fe_pv 06Sep2000                
   VRHFIN =Fe:  3pd7s1                                                                              
   LEXCH  = PE                                                                                      
   EATOM  =  2456.8974 eV,  180.5769 Ry                                                             
                                                                                                    
   TITEL  = PAW_PBE Fe_pv 06Sep2000                                                                 
   LULTRA =        F    use ultrasoft PP ?                                                          
   IUNSCR =        1    unscreen: 0-lin 1-nonlin 2-no                                               
   RPACOR =    1.750    partial core radius                                                         
   POMASS =   55.847; ZVAL   =   14.000    mass and valenz                                          
   RCORE  =    2.200    outmost cutoff radius                                                       
   RWIGS  =    2.200; RWIGS  =    1.164    wigner-seitz radius (au A)                               
   ENMAX  =  293.238; ENMIN  =  219.929 eV                                                          
   RCLOC  =    1.701    cutoff for local pot                                                        
   LCOR   =        T    correct aug charges                                                         
   LPAW   =        T    paw PP                                                                      
   EAUG   =  578.342                                                                                
   DEXC   =    -.002                                                                                
   RMAX   =    2.693    core radius for proj-oper                                                   
   RAUG   =    1.300    factor for augmentation sphere                                              
   RDEP   =    2.296    radius for radial grids                                                     
   QCUT   =   -4.642; QGAM   =    9.285    optimization parameters                                  
                                                                                                    
   Description                                                                                      
     l     E      TYP  RCUT    TYP  RCUT                                                            
     1   .000     23  2.000                                                                         
     1  -.400     23  2.000                                                                         
     2   .000     23  2.200                                                                         
     2   .000     23  2.200                                                                         
     0   .000     23  2.000                                                                         
     0  2.000     23  2.000                                                                         
     3   .000      7   .000                                                                         
  local pseudopotential read in
  partial core-charges read in
  atomic valenz-charges read in
  non local Contribution for L=           1  read in
    real space projection operators read in
  non local Contribution for L=           1  read in
    real space projection operators read in
  non local Contribution for L=           2  read in
    real space projection operators read in
  non local Contribution for L=           2  read in
    real space projection operators read in
  non local Contribution for L=           0  read in
    real space projection operators read in
  non local Contribution for L=           0  read in
    real space projection operators read in
    PAW grid and wavefunctions read in
 
   number of l-projection  operators is LMAX  =           6
   number of lm-projection operators is LMMAX =          18
 
 POTCAR:   PAW_PBE Se 06Sep2000                   
   VRHFIN =Se: s2p4                                                                                 
   LEXCH  = PE                                                                                      
   EATOM  =   256.9644 eV,   18.8864 Ry                                                             
                                                                                                    
   TITEL  = PAW_PBE Se 06Sep2000                                                                    
   LULTRA =        F    use ultrasoft PP ?                                                          
   IUNSCR =        1    unscreen: 0-lin 1-nonlin 2-no                                               
   RPACOR =    1.900    partial core radius                                                         
   POMASS =   78.960; ZVAL   =    6.000    mass and valenz                                          
   RCORE  =    2.100    outmost cutoff radius                                                       
   RWIGS  =    2.200; RWIGS  =    1.164    wigner-seitz radius (au A)                               
   ENMAX  =  211.534; ENMIN  =  158.651 eV                                                          
   ICORE  =        3    local potential                                                             
   LCOR   =        T    correct aug charges                                                         
   LPAW   =        T    paw PP                                                                      
   EAUG   =  446.842                                                                                
   DEXC   =    -.031                                                                                
   RMAX   =    3.170    core radius for proj-oper                                                   
   RAUG   =    1.300    factor for augmentation sphere                                              
   RDEP   =    2.177    radius for radial grids                                                     
   QCUT   =   -3.943; QGAM   =    7.886    optimization parameters                                  
                                                                                                    
   Description                                                                                      
     l     E      TYP  RCUT    TYP  RCUT                                                            
     0   .000     23  2.100                                                                         
     0   .000     23  2.100                                                                         
     1   .000     23  2.100                                                                         
     1   .000     23  2.100                                                                         
     2   .000     23  2.100                                                                         
     3  -.100      7  2.100                                                                         
  local pseudopotential read in
  partial core-charges read in
  atomic valenz-charges read in
  non local Contribution for L=           0  read in
    real space projection operators read in
  non local Contribution for L=           0  read in
    real space projection operators read in
  non local Contribution for L=           1  read in
    real space projection operators read in
  non local Contribution for L=           1  read in
    real space projection operators read in
  non local Contribution for L=           2  read in
    real space projection operators read in
    PAW grid and wavefunctions read in
 
   number of l-projection  operators is LMAX  =           5
   number of lm-projection operators is LMMAX =          13
 
 Optimization of the real space projectors (new method)

 maximal supplied QI-value         = 17.01
 optimisation between [QCUT,QGAM] = [ 11.91, 23.98] = [ 39.69,161.04] Ry 
 Optimized for a Real-space Cutoff    1.45 Angstroem

   l    n(q)    QCUT    max X(q) W(low)/X(q) W(high)/X(q)  e(spline) 
   1     10    11.905     4.550    0.27E-05    0.11E-05    0.28E-07
   1     10    11.905     5.234    0.10E-04    0.61E-04    0.17E-06
   2      9    11.905     3.960    0.19E-04    0.73E-05    0.50E-07
   2      9    11.905    29.565    0.24E-03    0.51E-04    0.27E-06
   0     10    11.905    23.582    0.17E-04    0.10E-05    0.14E-07
   0     10    11.905    39.747    0.23E-04    0.68E-05    0.74E-07
 Optimization of the real space projectors (new method)

 maximal supplied QI-value         = 17.95
 optimisation between [QCUT,QGAM] = [ 11.85, 23.88] = [ 39.31,159.64] Ry 
 Optimized for a Real-space Cutoff    1.18 Angstroem

   l    n(q)    QCUT    max X(q) W(low)/X(q) W(high)/X(q)  e(spline) 
   0      8    11.849     6.499    0.17E-04    0.94E-05    0.89E-08
   0      8    11.849    52.623    0.21E-03    0.78E-04    0.81E-07
   1      8    11.849     4.229    0.79E-04    0.83E-04    0.23E-07
   1      8    11.849    29.991    0.12E-03    0.43E-03    0.14E-06
   2      7    11.849     3.719    0.22E-03    0.64E-04    0.38E-07
 PAW_PBE Fe_pv 06Sep2000                :
 energy of atom  1       EATOM=-2456.8974
 kinetic energy error for atom=    0.0060 (will be added to EATOM!!)
 PAW_PBE Se 06Sep2000                   :
 energy of atom  2       EATOM= -256.9644
 kinetic energy error for atom=    0.0007 (will be added to EATOM!!)
 
 
 POSCAR: Fe8 Se8
  positions in direct lattice
  velocities in cartesian coordinates
 exchange correlation table for  LEXCH =        8
   RHO(1)=    0.500       N(1)  =     2000
   RHO(2)=  100.500       N(2)  =     4000
 


--------------------------------------------------------------------------------------------------------


 ion  position               nearest neighbor table
   1  0.000  0.000  0.000-  11 2.30  14 2.30   5 2.42   8 2.42
   2  0.000  0.500  0.000-  12 2.30  13 2.30   6 2.42   7 2.42
   3  0.500  0.000  0.000-   9 2.30  16 2.30   6 2.42   7 2.42
   4  0.500  0.500  0.000-  10 2.30  15 2.30   5 2.42   8 2.42
   5  0.250  0.250  0.000-   9 2.30  13 2.30   1 2.42   4 2.42
   6  0.250  0.750  0.000-  10 2.30  14 2.30   2 2.42   3 2.42
   7  0.750  0.250  0.000-  11 2.30  15 2.30   2 2.42   3 2.42
   8  0.750  0.750  0.000-  12 2.30  16 2.30   1 2.42   4 2.42
   9  0.375  0.125  0.686-   3 2.30   5 2.30
  10  0.375  0.625  0.686-   4 2.30   6 2.30
  11  0.875  0.125  0.686-   1 2.30   7 2.30
  12  0.875  0.625  0.686-   2 2.30   8 2.30
  13  0.125  0.375  0.314-   2 2.30   5 2.30
  14  0.125  0.875  0.314-   1 2.30   6 2.30
  15  0.625  0.375  0.314-   4 2.30   7 2.30
  16  0.625  0.875  0.314-   3 2.30   8 2.30
 
  LATTYP: Found a base centered orthorhombic cell.
 ALAT       =     9.6797512510
 B/A-ratio  =     1.1958604641
 C/A-ratio  =     0.5882305549
  
  Lattice vectors:
  
 A1 = (   4.8398756255,  -5.7878159119,   0.0000000000)
 A2 = (   4.8398756255,   5.7878159119,   0.0000000000)
 A3 = (   0.0000000000,   0.0000000000,   5.6939254492)


Analysis of symmetry for initial positions (statically):
=====================================================================
 Subroutine PRICEL returns following result:
 
  LATTYP: Found a base centered orthorhombic cell.
 ALAT       =     4.8398756255
 B/A-ratio  =     1.1958604641
 C/A-ratio  =     1.1764611097
  
  Lattice vectors:
  
 A1 = (   2.4199378128,  -2.8939079559,   0.0000000000)
 A2 = (   2.4199378128,   2.8939079559,   0.0000000000)
 A3 = (   0.0000000000,   0.0000000000,   5.6939254492)
 
   4 primitive cells build up your supercell.
 

 Routine SETGRP: Setting up the symmetry group for a 
 base centered orthorhombic supercell.


 Subroutine GETGRP returns: Found  8 space group operations
 (whereof  4 operations were pure point group operations)
 out of a pool of  8 trial point group operations.


The static configuration has the point symmetry C_2h.
 The point group associated with its full space group is D_2h.


Analysis of symmetry for dynamics (positions and initial velocities):
=====================================================================
 Subroutine PRICEL returns following result:
 
  LATTYP: Found a base centered orthorhombic cell.
 ALAT       =     4.8398756255
 B/A-ratio  =     1.1958604641
 C/A-ratio  =     1.1764611097
  
  Lattice vectors:
  
 A1 = (   2.4199378128,  -2.8939079559,   0.0000000000)
 A2 = (   2.4199378128,   2.8939079559,   0.0000000000)
 A3 = (   0.0000000000,   0.0000000000,   5.6939254492)
 
   4 primitive cells build up your supercell.
 

 Routine SETGRP: Setting up the symmetry group for a 
 base centered orthorhombic supercell.


 Subroutine GETGRP returns: Found  8 space group operations
 (whereof  4 operations were pure point group operations)
 out of a pool of  8 trial point group operations.


The dynamic configuration has the point symmetry C_2h.
 The point group associated with its full space group is D_2h.


Analysis of structural, dynamic, and magnetic symmetry:
=====================================================================
 Subroutine PRICEL returns following result:
 
  LATTYP: Found a base centered orthorhombic cell.
 ALAT       =     4.8398756255
 B/A-ratio  =     1.1958604641
 C/A-ratio  =     1.1764611097
  
  Lattice vectors:
  
 A1 = (   2.4199378128,  -2.8939079559,   0.0000000000)
 A2 = (   2.4199378128,   2.8939079559,   0.0000000000)
 A3 = (   0.0000000000,   0.0000000000,   5.6939254492)
 
   4 primitive cells build up your supercell.
 

 Routine SETGRP: Setting up the symmetry group for a 
 base centered orthorhombic supercell.


 Subroutine GETGRP returns: Found  8 space group operations
 (whereof  4 operations were pure point group operations)
 out of a pool of  8 trial point group operations.


The overall configuration has the point symmetry C_2h.
 The point group associated with its full space group is D_2h.


 Subroutine INISYM returns: Found  8 space group operations
 (whereof  4 operations are pure point group operations),
 and found     4 'primitive' translations


----------------------------------------------------------------------------------------

                                     Primitive cell                                     

  volume of cell :      79.7500

  direct lattice vectors                    reciprocal lattice vectors
     2.419937813 -2.893907956  0.000000000     0.206616880 -0.172776746  0.000000000
     2.419937813  2.893907956  0.000000000     0.206616880  0.172776746  0.000000000
     0.000000000  0.000000000  5.693925449     0.000000000  0.000000000  0.175625763

  length of vectors
     3.772373560  3.772373560  5.693925449     0.269336850  0.269336850  0.175625763

  position of ions in fractional coordinates (direct lattice)
     0.000000000  0.000000000  0.000000000
     0.500000000  0.500000000  0.000000000
     0.750000000  0.250000000  0.686460772
     0.250000000  0.750000000  0.313539228

  ion indices of the primitive-cell ions
   primitive index   ion index
                 1           1
                 2           5
                 3          11
                 4          14

----------------------------------------------------------------------------------------

 
 
 KPOINTS: KPOINTS                                 

Automatic generation of k-mesh.
 Grid dimensions read from file:
 generate k-points for:    7    7    9

 Generating k-lattice:

  Cartesian coordinates                     Fractional coordinates (reciprocal lattice)
     0.014758349 -0.012341196  0.000000000     0.142857143 -0.000000000  0.000000000
     0.014758349  0.012341196  0.000000000    -0.000000000  0.142857143  0.000000000
     0.000000000  0.000000000  0.019513974     0.000000000  0.000000000  0.111111111

  Length of vectors
     0.019238346  0.019238346  0.019513974

  Shift w.r.t. Gamma in fractional coordinates (k-lattice)
     0.000000000  0.000000000  0.000000000

 TETIRR: Found    664 inequivalent tetrahedra from     2646
 
 Subroutine IBZKPT returns following result:
 ===========================================
 
 Found     80 irreducible k-points:
 
 Following reciprocal coordinates:
            Coordinates               Weight
  0.000000  0.000000  0.000000      1.000000
  0.142857  0.000000  0.000000      4.000000
  0.285714 -0.000000  0.000000      4.000000
  0.428571 -0.000000  0.000000      4.000000
  0.142857  0.142857  0.000000      2.000000
  0.285714  0.142857  0.000000      4.000000
  0.428571  0.142857  0.000000      4.000000
 -0.428571  0.142857  0.000000      4.000000
 -0.285714  0.142857  0.000000      4.000000
 -0.142857  0.142857  0.000000      2.000000
  0.285714  0.285714  0.000000      2.000000
  0.428571  0.285714  0.000000      4.000000
 -0.428571  0.285714  0.000000      4.000000
 -0.285714  0.285714  0.000000      2.000000
  0.428571  0.428571  0.000000      2.000000
 -0.428571  0.428571  0.000000      2.000000
  0.000000  0.000000  0.111111      2.000000
  0.142857  0.000000  0.111111      8.000000
  0.285714 -0.000000  0.111111      8.000000
  0.428571 -0.000000  0.111111      8.000000
  0.142857  0.142857  0.111111      4.000000
  0.285714  0.142857  0.111111      8.000000
  0.428571  0.142857  0.111111      8.000000
 -0.428571  0.142857  0.111111      8.000000
 -0.285714  0.142857  0.111111      8.000000
 -0.142857  0.142857  0.111111      4.000000
  0.285714  0.285714  0.111111      4.000000
  0.428571  0.285714  0.111111      8.000000
 -0.428571  0.285714  0.111111      8.000000
 -0.285714  0.285714  0.111111      4.000000
  0.428571  0.428571  0.111111      4.000000
 -0.428571  0.428571  0.111111      4.000000
  0.000000  0.000000  0.222222      2.000000
  0.142857  0.000000  0.222222      8.000000
  0.285714 -0.000000  0.222222      8.000000
  0.428571 -0.000000  0.222222      8.000000
  0.142857  0.142857  0.222222      4.000000
  0.285714  0.142857  0.222222      8.000000
  0.428571  0.142857  0.222222      8.000000
 -0.428571  0.142857  0.222222      8.000000
 -0.285714  0.142857  0.222222      8.000000
 -0.142857  0.142857  0.222222      4.000000
  0.285714  0.285714  0.222222      4.000000
  0.428571  0.285714  0.222222      8.000000
 -0.428571  0.285714  0.222222      8.000000
 -0.285714  0.285714  0.222222      4.000000
  0.428571  0.428571  0.222222      4.000000
 -0.428571  0.428571  0.222222      4.000000
  0.000000  0.000000  0.333333      2.000000
  0.142857  0.000000  0.333333      8.000000
  0.285714 -0.000000  0.333333      8.000000
  0.428571 -0.000000  0.333333      8.000000
  0.142857  0.142857  0.333333      4.000000
  0.285714  0.142857  0.333333      8.000000
  0.428571  0.142857  0.333333      8.000000
 -0.428571  0.142857  0.333333      8.000000
 -0.285714  0.142857  0.333333      8.000000
 -0.142857  0.142857  0.333333      4.000000
  0.285714  0.285714  0.333333      4.000000
  0.428571  0.285714  0.333333      8.000000
 -0.428571  0.285714  0.333333      8.000000
 -0.285714  0.285714  0.333333      4.000000
  0.428571  0.428571  0.333333      4.000000
 -0.428571  0.428571  0.333333      4.000000
  0.000000  0.000000  0.444444      2.000000
  0.142857  0.000000  0.444444      8.000000
  0.285714 -0.000000  0.444444      8.000000
  0.428571 -0.000000  0.444444      8.000000
  0.142857  0.142857  0.444444      4.000000
  0.285714  0.142857  0.444444      8.000000
  0.428571  0.142857  0.444444      8.000000
 -0.428571  0.142857  0.444444      8.000000
 -0.285714  0.142857  0.444444      8.000000
 -0.142857  0.142857  0.444444      4.000000
  0.285714  0.285714  0.444444      4.000000
  0.428571  0.285714  0.444444      8.000000
 -0.428571  0.285714  0.444444      8.000000
 -0.285714  0.285714  0.444444      4.000000
  0.428571  0.428571  0.444444      4.000000
 -0.428571  0.428571  0.444444      4.000000
 
 Following cartesian coordinates:
            Coordinates               Weight
  0.000000  0.000000  0.000000      1.000000
  0.014758 -0.012341  0.000000      4.000000
  0.029517 -0.024682  0.000000      4.000000
  0.044275 -0.037024  0.000000      4.000000
  0.029517  0.000000  0.000000      2.000000
  0.044275 -0.012341  0.000000      4.000000
  0.059033 -0.024682  0.000000      4.000000
 -0.029517  0.049365  0.000000      4.000000
 -0.014758  0.037024  0.000000      4.000000
 -0.000000  0.024682  0.000000      2.000000
  0.059033  0.000000  0.000000      2.000000
  0.073792 -0.012341  0.000000      4.000000
 -0.014758  0.061706  0.000000      4.000000
  0.000000  0.049365  0.000000      2.000000
  0.088550 -0.000000  0.000000      2.000000
  0.000000  0.074047  0.000000      2.000000
  0.000000  0.000000  0.019514      2.000000
  0.014758 -0.012341  0.019514      8.000000
  0.029517 -0.024682  0.019514      8.000000
  0.044275 -0.037024  0.019514      8.000000
  0.029517  0.000000  0.019514      4.000000
  0.044275 -0.012341  0.019514      8.000000
  0.059033 -0.024682  0.019514      8.000000
 -0.029517  0.049365  0.019514      8.000000
 -0.014758  0.037024  0.019514      8.000000
 -0.000000  0.024682  0.019514      4.000000
  0.059033  0.000000  0.019514      4.000000
  0.073792 -0.012341  0.019514      8.000000
 -0.014758  0.061706  0.019514      8.000000
  0.000000  0.049365  0.019514      4.000000
  0.088550 -0.000000  0.019514      4.000000
  0.000000  0.074047  0.019514      4.000000
  0.000000  0.000000  0.039028      2.000000
  0.014758 -0.012341  0.039028      8.000000
  0.029517 -0.024682  0.039028      8.000000
  0.044275 -0.037024  0.039028      8.000000
  0.029517  0.000000  0.039028      4.000000
  0.044275 -0.012341  0.039028      8.000000
  0.059033 -0.024682  0.039028      8.000000
 -0.029517  0.049365  0.039028      8.000000
 -0.014758  0.037024  0.039028      8.000000
 -0.000000  0.024682  0.039028      4.000000
  0.059033  0.000000  0.039028      4.000000
  0.073792 -0.012341  0.039028      8.000000
 -0.014758  0.061706  0.039028      8.000000
  0.000000  0.049365  0.039028      4.000000
  0.088550 -0.000000  0.039028      4.000000
  0.000000  0.074047  0.039028      4.000000
  0.000000  0.000000  0.058542      2.000000
  0.014758 -0.012341  0.058542      8.000000
  0.029517 -0.024682  0.058542      8.000000
  0.044275 -0.037024  0.058542      8.000000
  0.029517  0.000000  0.058542      4.000000
  0.044275 -0.012341  0.058542      8.000000
  0.059033 -0.024682  0.058542      8.000000
 -0.029517  0.049365  0.058542      8.000000
 -0.014758  0.037024  0.058542      8.000000
 -0.000000  0.024682  0.058542      4.000000
  0.059033  0.000000  0.058542      4.000000
  0.073792 -0.012341  0.058542      8.000000
 -0.014758  0.061706  0.058542      8.000000
  0.000000  0.049365  0.058542      4.000000
  0.088550 -0.000000  0.058542      4.000000
  0.000000  0.074047  0.058542      4.000000
  0.000000  0.000000  0.078056      2.000000
  0.014758 -0.012341  0.078056      8.000000
  0.029517 -0.024682  0.078056      8.000000
  0.044275 -0.037024  0.078056      8.000000
  0.029517  0.000000  0.078056      4.000000
  0.044275 -0.012341  0.078056      8.000000
  0.059033 -0.024682  0.078056      8.000000
 -0.029517  0.049365  0.078056      8.000000
 -0.014758  0.037024  0.078056      8.000000
 -0.000000  0.024682  0.078056      4.000000
  0.059033  0.000000  0.078056      4.000000
  0.073792 -0.012341  0.078056      8.000000
 -0.014758  0.061706  0.078056      8.000000
  0.000000  0.049365  0.078056      4.000000
  0.088550 -0.000000  0.078056      4.000000
  0.000000  0.074047  0.078056      4.000000
 


--------------------------------------------------------------------------------------------------------




 Dimension of arrays:
   k-points           NKPTS =     80   k-points in BZ     NKDIM =     80   number of bands    NBANDS=    100
   number of dos      NEDOS =    301   number of ions     NIONS =     16
   non local maximal  LDIM  =      6   non local SUM 2l+1 LMDIM =     18
   total plane-waves  NPLWV = 172800
   max r-space proj   IRMAX =   6938   max aug-charges    IRDMAX=  23820
   dimension x,y,z NGX =    60 NGY =   60 NGZ =   48
   dimension x,y,z NGXF=   120 NGYF=  120 NGZF=   96
   support grid    NGXF=   120 NGYF=  120 NGZF=   96
   ions per type =               8   8
   NGX,Y,Z   is equivalent  to a cutoff of  13.22, 13.22, 14.01 a.u.
   NGXF,Y,Z  is equivalent  to a cutoff of  26.44, 26.44, 28.03 a.u.

 SYSTEM =  unknown system                          
 POSCAR =  Fe8 Se8                                 

 Startparameter for this run:
   NWRITE =      2    write-flag & timer
   PREC   = accura    normal or accurate (medium, high low for compatibility)
   ISTART =      0    job   : 0-new  1-cont  2-samecut
   ICHARG =      2    charge: 1-file 2-atom 10-const
   ISPIN  =      2    spin polarized calculation?
   LNONCOLLINEAR =      F non collinear calculations
   LSORBIT =      F    spin-orbit coupling
   INIWAV =      1    electr: 0-lowe 1-rand  2-diag
   LASPH  =      T    aspherical Exc in radial PAW
 Electronic Relaxation 1
   ENCUT  =  550.0 eV  40.42 Ry    6.36 a.u.  14.43 14.43 10.89*2*pi/ulx,y,z
   ENINI  =  550.0     initial cutoff
   ENAUG  =  578.3 eV  augmentation charge cutoff
   NELM   =    100;   NELMIN=  2; NELMDL=  0     # of ELM steps 
   EDIFF  = 0.2E-03   stopping-criterion for ELM
   LREAL  =      T    real-space projection
   NLSPLINE    = F    spline interpolate recip. space projectors
   LCOMPAT=      F    compatible to vasp.4.4
   GGA_COMPAT  = T    GGA compatible to vasp.4.4-vasp.4.6
   LMAXPAW     = -100 max onsite density
   LMAXMIX     =    4 max onsite mixed and CHGCAR
   VOSKOWN=      0    Vosko Wilk Nusair interpolation
   ROPT   =   -0.00025  -0.00025
 Ionic relaxation
   EDIFFG = 0.2E-02   stopping-criterion for IOM
   NSW    =      0    number of steps for IOM
   NBLOCK =      1;   KBLOCK =      1    inner block; outer block 
   IBRION =     -1    ionic relax: 0-MD 1-quasi-New 2-CG
   NFREE  =      0    steps in history (QN), initial steepest desc. (CG)
   ISIF   =      4    stress and relaxation
   IWAVPR =     10    prediction:  0-non 1-charg 2-wave 3-comb
   ISYM   =      2    0-nonsym 1-usesym 2-fastsym
   LCORR  =      T    Harris-Foulkes like correction to forces

   POTIM  = 0.5000    time-step for ionic-motion
   TEIN   =    0.0    initial temperature
   TEBEG  =    0.0;   TEEND  =   0.0 temperature during run
   SMASS  =  -3.00    Nose mass-parameter (am)
   estimated Nose-frequenzy (Omega)   =  0.10E-29 period in steps = 0.13E+47 mass=  -0.130E-26a.u.
   SCALEE = 1.0000    scale energy and forces
   NPACO  =    256;   APACO  = 10.0  distance and # of slots for P.C.
   PSTRESS=    0.0 pullay stress

  Mass of Ions in am
   POMASS =  55.85 78.96
  Ionic Valenz
   ZVAL   =  14.00  6.00
  Atomic Wigner-Seitz radii
   RWIGS  =  -1.00 -1.00
  virtual crystal weights 
   VCA    =   1.00  1.00
   NELECT =     160.0000    total number of electrons
   NUPDOWN=      -1.0000    fix difference up-down

 DOS related values:
   EMIN   =  10.00;   EMAX   =-10.00  energy-range for DOS
   EFERMI =   0.00;   METHOD = LEGACY      
   ISMEAR =    -5;   SIGMA  =   0.05  broadening in eV -4-tet -1-fermi 0-gaus

 Electronic relaxation 2 (details)
   IALGO  =     68    algorithm
   LDIAG  =      T    sub-space diagonalisation (order eigenvalues)
   LSUBROT=      F    optimize rotation matrix (better conditioning)
   TURBO    =      0    0=normal 1=particle mesh
   IRESTART =      0    0=no restart 2=restart with 2 vectors
   NREBOOT  =      0    no. of reboots
   NMIN     =      0    reboot dimension
   EREF     =   0.00    reference energy to select bands
   IMIX   =      4    mixing-type and parameters
     AMIX     =   0.40;   BMIX     =  1.00
     AMIX_MAG =   1.60;   BMIX_MAG =  1.00
     AMIN     =   0.10
     WC   =   100.;   INIMIX=   1;  MIXPRE=   1;  MAXMIX= -45

 Intra band minimization:
   WEIMIN = 0.0000     energy-eigenvalue tresh-hold
   EBREAK =  0.50E-06  absolut break condition
   DEPER  =   0.30     relativ break condition  

   TIME   =   0.40     timestep for ELM

  volume/ion in A,a.u.               =      19.94       134.54
  Fermi-wavevector in a.u.,A,eV,Ry     =   1.300722  2.458009 23.019406  1.691879
  Thomas-Fermi vector in A             =   2.431903
 
 Write flags
   LWAVE        =      F    write WAVECAR
   LDOWNSAMPLE  =      F    k-point downsampling of WAVECAR
   LCHARG       =      T    write CHGCAR
   LVTOT        =      F    write LOCPOT, total local potential
   LVHAR        =      F    write LOCPOT, Hartree potential only
   LELF         =      F    write electronic localiz. function (ELF)
   LORBIT       =     11    0 simple, 1 ext, 2 COOP (PROOUT), +10 PAW based schemes


 Dipole corrections
   LMONO  =      F    monopole corrections only (constant potential shift)
   LDIPOL =      F    correct potential (dipole corrections)
   IDIPOL =      0    1-x, 2-y, 3-z, 4-all directions 
   EPSILON=  1.0000000 bulk dielectric constant

 Exchange correlation treatment:
   GGA     =    --    GGA type
   LEXCH   =     8    internal setting for exchange type
   LIBXC   =     F    Libxc                    
   VOSKOWN =     0    Vosko Wilk Nusair interpolation
   LHFCALC =     F    Hartree Fock is set to
   LHFONE  =     F    Hartree Fock one center treatment
   AEXX    =    0.0000 exact exchange contribution

 Linear response parameters
   LEPSILON=     F    determine dielectric tensor
   LRPA    =     F    only Hartree local field effects (RPA)
   LNABLA  =     F    use nabla operator in PAW spheres
   LVEL    =     F    velocity operator in full k-point grid
   CSHIFT  =0.1000    complex shift for real part using Kramers Kronig
   OMEGAMAX=  -1.0    maximum frequency
   DEG_THRESHOLD= 0.2000000E-02 threshold for treating states as degnerate
   RTIME   =   -0.100 relaxation time in fs
  (WPLASMAI=    0.000 imaginary part of plasma frequency in eV, 0.658/RTIME)
   DFIELD  = 0.0000000 0.0000000 0.0000000 field for delta impulse in time
 
  Optional k-point grid parameters
   LKPOINTS_OPT  =     F    use optional k-point grid
   KPOINTS_OPT_MODE=     1    mode for optional k-point grid
 
 Orbital magnetization related:
   ORBITALMAG=     F  switch on orbital magnetization
   LCHIMAG   =     F  perturbation theory with respect to B field
   DQ        =  0.001000  dq finite difference perturbation B field
   LLRAUG    =     F  two centre corrections for induced B field
   LBONE     =     F  B-component reconstruction in AE one-centre
   LVGVCALC  =     T  calculate vGv susceptibility
   LVGVAPPL  =     F  apply vGv susceptibility instead of pGv for G=0

 Random number generation:
   RANDOM_GENERATOR = DEFAULT
   PCG_SEED         = not used


--------------------------------------------------------------------------------------------------------


 Static calculation
 charge density and potential will be updated during run
 spin polarized calculation
 RMM-DIIS sequential band-by-band and
  variant of blocked Davidson during initial phase
 perform sub-space diagonalisation
    before iterative eigenvector-optimisation
 modified Broyden-mixing scheme, WC =      100.0
 initial mixing is a Kerker type mixing with AMIX =  0.4000 and BMIX =      1.0000
 Hartree-type preconditioning will be used
 using additional bands           20
 real space projection scheme for non local part
 use partial core corrections
 calculate Harris-corrections to forces 
   (improved forces if not selfconsistent)
 use gradient corrections 
 use of overlap-Matrix (Vanderbilt PP)
 Fermi weights with tetrahedron method with Bloechl corrections


--------------------------------------------------------------------------------------------------------


  energy-cutoff  :      550.00
  volume of cell :      319.00
      direct lattice vectors                 reciprocal lattice vectors
     4.839875626 -5.787815912  0.000000000     0.103308440 -0.086388373  0.000000000
     4.839875626  5.787815912  0.000000000     0.103308440  0.086388373  0.000000000
     0.000000000  0.000000000  5.693925449     0.000000000  0.000000000  0.175625763

  length of vectors
     7.544747120  7.544747120  5.693925449     0.134668425  0.134668425  0.175625763


 
 k-points in units of 2pi/SCALE and weight: KPOINTS                                 
   0.00000000  0.00000000  0.00000000       0.002
   0.01475835 -0.01234120  0.00000000       0.009
   0.02951670 -0.02468239  0.00000000       0.009
   0.04427505 -0.03702359  0.00000000       0.009
   0.02951670 -0.00000000  0.00000000       0.005
   0.04427505 -0.01234120  0.00000000       0.009
   0.05903339 -0.02468239  0.00000000       0.009
  -0.02951670  0.04936478  0.00000000       0.009
  -0.01475835  0.03702359  0.00000000       0.009
   0.00000000  0.02468239  0.00000000       0.005
   0.05903339 -0.00000000  0.00000000       0.005
   0.07379174 -0.01234120  0.00000000       0.009
  -0.01475835  0.06170598  0.00000000       0.009
  -0.00000000  0.04936478  0.00000000       0.005
   0.08855009 -0.00000000  0.00000000       0.005
  -0.00000000  0.07404718  0.00000000       0.005
   0.00000000  0.00000000  0.01951397       0.005
   0.01475835 -0.01234120  0.01951397       0.018
   0.02951670 -0.02468239  0.01951397       0.018
   0.04427505 -0.03702359  0.01951397       0.018
   0.02951670 -0.00000000  0.01951397       0.009
   0.04427505 -0.01234120  0.01951397       0.018
   0.05903339 -0.02468239  0.01951397       0.018
  -0.02951670  0.04936478  0.01951397       0.018
  -0.01475835  0.03702359  0.01951397       0.018
   0.00000000  0.02468239  0.01951397       0.009
   0.05903339 -0.00000000  0.01951397       0.009
   0.07379174 -0.01234120  0.01951397       0.018
  -0.01475835  0.06170598  0.01951397       0.018
  -0.00000000  0.04936478  0.01951397       0.009
   0.08855009 -0.00000000  0.01951397       0.009
  -0.00000000  0.07404718  0.01951397       0.009
   0.00000000  0.00000000  0.03902795       0.005
   0.01475835 -0.01234120  0.03902795       0.018
   0.02951670 -0.02468239  0.03902795       0.018
   0.04427505 -0.03702359  0.03902795       0.018
   0.02951670 -0.00000000  0.03902795       0.009
   0.04427505 -0.01234120  0.03902795       0.018
   0.05903339 -0.02468239  0.03902795       0.018
  -0.02951670  0.04936478  0.03902795       0.018
  -0.01475835  0.03702359  0.03902795       0.018
   0.00000000  0.02468239  0.03902795       0.009
   0.05903339 -0.00000000  0.03902795       0.009
   0.07379174 -0.01234120  0.03902795       0.018
  -0.01475835  0.06170598  0.03902795       0.018
  -0.00000000  0.04936478  0.03902795       0.009
   0.08855009 -0.00000000  0.03902795       0.009
  -0.00000000  0.07404718  0.03902795       0.009
   0.00000000  0.00000000  0.05854192       0.005
   0.01475835 -0.01234120  0.05854192       0.018
   0.02951670 -0.02468239  0.05854192       0.018
   0.04427505 -0.03702359  0.05854192       0.018
   0.02951670 -0.00000000  0.05854192       0.009
   0.04427505 -0.01234120  0.05854192       0.018
   0.05903339 -0.02468239  0.05854192       0.018
  -0.02951670  0.04936478  0.05854192       0.018
  -0.01475835  0.03702359  0.05854192       0.018
   0.00000000  0.02468239  0.05854192       0.009
   0.05903339 -0.00000000  0.05854192       0.009
   0.07379174 -0.01234120  0.05854192       0.018
  -0.01475835  0.06170598  0.05854192       0.018
  -0.00000000  0.04936478  0.05854192       0.009
   0.08855009 -0.00000000  0.05854192       0.009
  -0.00000000  0.07404718  0.05854192       0.009
   0.00000000  0.00000000  0.07805589       0.005
   0.01475835 -0.01234120  0.07805589       0.018
   0.02951670 -0.02468239  0.07805589       0.018
   0.04427505 -0.03702359  0.07805589       0.018
   0.02951670 -0.00000000  0.07805589       0.009
   0.04427505 -0.01234120  0.07805589       0.018
   0.05903339 -0.02468239  0.07805589       0.018
  -0.02951670  0.04936478  0.07805589       0.018
  -0.01475835  0.03702359  0.07805589       0.018
   0.00000000  0.02468239  0.07805589       0.009
   0.05903339 -0.00000000  0.07805589       0.009
   0.07379174 -0.01234120  0.07805589       0.018
  -0.01475835  0.06170598  0.07805589       0.018
  -0.00000000  0.04936478  0.07805589       0.009
   0.08855009 -0.00000000  0.07805589       0.009
  -0.00000000  0.07404718  0.07805589       0.009
 
 k-points in reciprocal lattice and weights: KPOINTS                                 
   0.00000000  0.00000000  0.00000000       0.002
   0.14285714  0.00000000  0.00000000       0.009
   0.28571429 -0.00000000  0.00000000       0.009
   0.42857143 -0.00000000  0.00000000       0.009
   0.14285714  0.14285714  0.00000000       0.005
   0.28571429  0.14285714  0.00000000       0.009
   0.42857143  0.14285714  0.00000000       0.009
  -0.42857143  0.14285714  0.00000000       0.009
  -0.28571429  0.14285714  0.00000000       0.009
  -0.14285714  0.14285714  0.00000000       0.005
   0.28571429  0.28571429  0.00000000       0.005
   0.42857143  0.28571429  0.00000000       0.009
  -0.42857143  0.28571429  0.00000000       0.009
  -0.28571429  0.28571429  0.00000000       0.005
   0.42857143  0.42857143  0.00000000       0.005
  -0.42857143  0.42857143  0.00000000       0.005
   0.00000000  0.00000000  0.11111111       0.005
   0.14285714  0.00000000  0.11111111       0.018
   0.28571429 -0.00000000  0.11111111       0.018
   0.42857143 -0.00000000  0.11111111       0.018
   0.14285714  0.14285714  0.11111111       0.009
   0.28571429  0.14285714  0.11111111       0.018
   0.42857143  0.14285714  0.11111111       0.018
  -0.42857143  0.14285714  0.11111111       0.018
  -0.28571429  0.14285714  0.11111111       0.018
  -0.14285714  0.14285714  0.11111111       0.009
   0.28571429  0.28571429  0.11111111       0.009
   0.42857143  0.28571429  0.11111111       0.018
  -0.42857143  0.28571429  0.11111111       0.018
  -0.28571429  0.28571429  0.11111111       0.009
   0.42857143  0.42857143  0.11111111       0.009
  -0.42857143  0.42857143  0.11111111       0.009
   0.00000000  0.00000000  0.22222222       0.005
   0.14285714  0.00000000  0.22222222       0.018
   0.28571429 -0.00000000  0.22222222       0.018
   0.42857143 -0.00000000  0.22222222       0.018
   0.14285714  0.14285714  0.22222222       0.009
   0.28571429  0.14285714  0.22222222       0.018
   0.42857143  0.14285714  0.22222222       0.018
  -0.42857143  0.14285714  0.22222222       0.018
  -0.28571429  0.14285714  0.22222222       0.018
  -0.14285714  0.14285714  0.22222222       0.009
   0.28571429  0.28571429  0.22222222       0.009
   0.42857143  0.28571429  0.22222222       0.018
  -0.42857143  0.28571429  0.22222222       0.018
  -0.28571429  0.28571429  0.22222222       0.009
   0.42857143  0.42857143  0.22222222       0.009
  -0.42857143  0.42857143  0.22222222       0.009
   0.00000000  0.00000000  0.33333333       0.005
   0.14285714  0.00000000  0.33333333       0.018
   0.28571429 -0.00000000  0.33333333       0.018
   0.42857143 -0.00000000  0.33333333       0.018
   0.14285714  0.14285714  0.33333333       0.009
   0.28571429  0.14285714  0.33333333       0.018
   0.42857143  0.14285714  0.33333333       0.018
  -0.42857143  0.14285714  0.33333333       0.018
  -0.28571429  0.14285714  0.33333333       0.018
  -0.14285714  0.14285714  0.33333333       0.009
   0.28571429  0.28571429  0.33333333       0.009
   0.42857143  0.28571429  0.33333333       0.018
  -0.42857143  0.28571429  0.33333333       0.018
  -0.28571429  0.28571429  0.33333333       0.009
   0.42857143  0.42857143  0.33333333       0.009
  -0.42857143  0.42857143  0.33333333       0.009
   0.00000000  0.00000000  0.44444444       0.005
   0.14285714  0.00000000  0.44444444       0.018
   0.28571429 -0.00000000  0.44444444       0.018
   0.42857143 -0.00000000  0.44444444       0.018
   0.14285714  0.14285714  0.44444444       0.009
   0.28571429  0.14285714  0.44444444       0.018
   0.42857143  0.14285714  0.44444444       0.018
  -0.42857143  0.14285714  0.44444444       0.018
  -0.28571429  0.14285714  0.44444444       0.018
  -0.14285714  0.14285714  0.44444444       0.009
   0.28571429  0.28571429  0.44444444       0.009
   0.42857143  0.28571429  0.44444444       0.018
  -0.42857143  0.28571429  0.44444444       0.018
  -0.28571429  0.28571429  0.44444444       0.009
   0.42857143  0.42857143  0.44444444       0.009
  -0.42857143  0.42857143  0.44444444       0.009
 
 position of ions in fractional coordinates (direct lattice) 
   0.00000000  0.00000000  0.00000000
   0.00000000  0.50000000  0.00000000
   0.50000000  0.00000000  0.00000000
   0.50000000  0.50000000  0.00000000
   0.25000000  0.25000000  0.00000000
   0.25000000  0.75000000  0.00000000
   0.75000000  0.25000000  0.00000000
   0.75000000  0.75000000  0.00000000
   0.37500000  0.12500000  0.68646077
   0.37500000  0.62500000  0.68646077
   0.87500000  0.12500000  0.68646077
   0.87500000  0.62500000  0.68646077
   0.12500000  0.37500000  0.31353923
   0.12500000  0.87500000  0.31353923
   0.62500000  0.37500000  0.31353923
   0.62500000  0.87500000  0.31353923
 
 position of ions in cartesian coordinates  (Angst):
   0.00000000  0.00000000  0.00000000
   2.41993781  2.89390796  0.00000000
   2.41993781 -2.89390796  0.00000000
   4.83987563  0.00000000  0.00000000
   2.41993781  0.00000000  0.00000000
   4.83987563  2.89390796  0.00000000
   4.83987563 -2.89390796  0.00000000
   7.25981344  0.00000000  0.00000000
   2.41993781 -1.44695398  3.90865646
   4.83987563  1.44695398  3.90865646
   4.83987563 -4.34086193  3.90865646
   7.25981344 -1.44695398  3.90865646
   2.41993781  1.44695398  1.78526899
   4.83987563  4.34086193  1.78526899
   4.83987563 -1.44695398  1.78526899
   7.25981344  1.44695398  1.78526899
 


--------------------------------------------------------------------------------------------------------


 k-point   1 :   0.0000 0.0000 0.0000  plane waves:    9321
 k-point   2 :   0.1429 0.0000 0.0000  plane waves:    9337
 k-point   3 :   0.2857-0.0000 0.0000  plane waves:    9345
 k-point   4 :   0.4286-0.0000 0.0000  plane waves:    9330
 k-point   5 :   0.1429 0.1429 0.0000  plane waves:    9327
 k-point   6 :   0.2857 0.1429 0.0000  plane waves:    9322
 k-point   7 :   0.4286 0.1429 0.0000  plane waves:    9301
 k-point   8 :  -0.4286 0.1429 0.0000  plane waves:    9341
 k-point   9 :  -0.2857 0.1429 0.0000  plane waves:    9339
 k-point  10 :  -0.1429 0.1429 0.0000  plane waves:    9336
 k-point  11 :   0.2857 0.2857 0.0000  plane waves:    9326
 k-point  12 :   0.4286 0.2857 0.0000  plane waves:    9327
 k-point  13 :  -0.4286 0.2857 0.0000  plane waves:    9355
 k-point  14 :  -0.2857 0.2857 0.0000  plane waves:    9360
 k-point  15 :   0.4286 0.4286 0.0000  plane waves:    9340
 k-point  16 :  -0.4286 0.4286 0.0000  plane waves:    9350
 k-point  17 :   0.0000 0.0000 0.1111  plane waves:    9301
 k-point  18 :   0.1429 0.0000 0.1111  plane waves:    9336
 k-point  19 :   0.2857-0.0000 0.1111  plane waves:    9335
 k-point  20 :   0.4286-0.0000 0.1111  plane waves:    9329
 k-point  21 :   0.1429 0.1429 0.1111  plane waves:    9344
 k-point  22 :   0.2857 0.1429 0.1111  plane waves:    9322
 k-point  23 :   0.4286 0.1429 0.1111  plane waves:    9321
 k-point  24 :  -0.4286 0.1429 0.1111  plane waves:    9332
 k-point  25 :  -0.2857 0.1429 0.1111  plane waves:    9354
 k-point  26 :  -0.1429 0.1429 0.1111  plane waves:    9349
 k-point  27 :   0.2857 0.2857 0.1111  plane waves:    9342
 k-point  28 :   0.4286 0.2857 0.1111  plane waves:    9329
 k-point  29 :  -0.4286 0.2857 0.1111  plane waves:    9338
 k-point  30 :  -0.2857 0.2857 0.1111  plane waves:    9362
 k-point  31 :   0.4286 0.4286 0.1111  plane waves:    9326
 k-point  32 :  -0.4286 0.4286 0.1111  plane waves:    9341
 k-point  33 :   0.0000 0.0000 0.2222  plane waves:    9362
 k-point  34 :   0.1429 0.0000 0.2222  plane waves:    9351
 k-point  35 :   0.2857-0.0000 0.2222  plane waves:    9343
 k-point  36 :   0.4286-0.0000 0.2222  plane waves:    9336
 k-point  37 :   0.1429 0.1429 0.2222  plane waves:    9348
 k-point  38 :   0.2857 0.1429 0.2222  plane waves:    9348
 k-point  39 :   0.4286 0.1429 0.2222  plane waves:    9338
 k-point  40 :  -0.4286 0.1429 0.2222  plane waves:    9338
 k-point  41 :  -0.2857 0.1429 0.2222  plane waves:    9340
 k-point  42 :  -0.1429 0.1429 0.2222  plane waves:    9354
 k-point  43 :   0.2857 0.2857 0.2222  plane waves:    9333
 k-point  44 :   0.4286 0.2857 0.2222  plane waves:    9333
 k-point  45 :  -0.4286 0.2857 0.2222  plane waves:    9338
 k-point  46 :  -0.2857 0.2857 0.2222  plane waves:    9352
 k-point  47 :   0.4286 0.4286 0.2222  plane waves:    9329
 k-point  48 :  -0.4286 0.4286 0.2222  plane waves:    9318
 k-point  49 :   0.0000 0.0000 0.3333  plane waves:    9366
 k-point  50 :   0.1429 0.0000 0.3333  plane waves:    9376
 k-point  51 :   0.2857-0.0000 0.3333  plane waves:    9349
 k-point  52 :   0.4286-0.0000 0.3333  plane waves:    9347
 k-point  53 :   0.1429 0.1429 0.3333  plane waves:    9368
 k-point  54 :   0.2857 0.1429 0.3333  plane waves:    9348
 k-point  55 :   0.4286 0.1429 0.3333  plane waves:    9344
 k-point  56 :  -0.4286 0.1429 0.3333  plane waves:    9341
 k-point  57 :  -0.2857 0.1429 0.3333  plane waves:    9339
 k-point  58 :  -0.1429 0.1429 0.3333  plane waves:    9383
 k-point  59 :   0.2857 0.2857 0.3333  plane waves:    9334
 k-point  60 :   0.4286 0.2857 0.3333  plane waves:    9339
 k-point  61 :  -0.4286 0.2857 0.3333  plane waves:    9338
 k-point  62 :  -0.2857 0.2857 0.3333  plane waves:    9347
 k-point  63 :   0.4286 0.4286 0.3333  plane waves:    9326
 k-point  64 :  -0.4286 0.4286 0.3333  plane waves:    9319
 k-point  65 :   0.0000 0.0000 0.4444  plane waves:    9350
 k-point  66 :   0.1429 0.0000 0.4444  plane waves:    9369
 k-point  67 :   0.2857-0.0000 0.4444  plane waves:    9374
 k-point  68 :   0.4286-0.0000 0.4444  plane waves:    9351
 k-point  69 :   0.1429 0.1429 0.4444  plane waves:    9366
 k-point  70 :   0.2857 0.1429 0.4444  plane waves:    9358
 k-point  71 :   0.4286 0.1429 0.4444  plane waves:    9351
 k-point  72 :  -0.4286 0.1429 0.4444  plane waves:    9361
 k-point  73 :  -0.2857 0.1429 0.4444  plane waves:    9358
 k-point  74 :  -0.1429 0.1429 0.4444  plane waves:    9355
 k-point  75 :   0.2857 0.2857 0.4444  plane waves:    9334
 k-point  76 :   0.4286 0.2857 0.4444  plane waves:    9332
 k-point  77 :  -0.4286 0.2857 0.4444  plane waves:    9345
 k-point  78 :  -0.2857 0.2857 0.4444  plane waves:    9343
 k-point  79 :   0.4286 0.4286 0.4444  plane waves:    9317
 k-point  80 :  -0.4286 0.4286 0.4444  plane waves:    9324

 maximum and minimum number of plane-waves per node :      9383     9301

 maximum number of plane-waves:      9383
 maximum index in each direction: 
   IXMAX=   14   IYMAX=   14   IZMAX=   10
   IXMIN=  -14   IYMIN=  -14   IZMIN=  -11


 serial   3D FFT for wavefunctions
 parallel 3D FFT for charge:
    minimum data exchange during FFTs selected (reduces bandwidth)


 total amount of memory used by VASP MPI-rank0   190410. kBytes
=======================================================================

   base      :      30000. kBytes
   nonlr-proj:      13621. kBytes
   fftplans  :       3084. kBytes
   grid      :      19560. kBytes
   one-center:        497. kBytes
   wavefun   :     123648. kBytes
 
     INWAV:  cpu time      0.0000: real time      0.0002
 Broyden mixing: mesh for mixing (old mesh)
   NGX = 29   NGY = 29   NGZ = 21
  (NGX  =120   NGY  =120   NGZ  = 96)
  gives a total of  17661 points

 initial charge density was supplied:
 charge density of overlapping atoms calculated
 number of electron     160.0000000 magnetization      -0.0000000
 keeping initial charge density in first step


--------------------------------------------------------------------------------------------------------


 Maximum index for non-local projection operator         6687
 Maximum index for augmentation-charges         1169 (set IRDMAX)


--------------------------------------------------------------------------------------------------------


 First call to EWALD:  gamma=   0.259
 Maximum number of real-space cells 3x 3x 3
 Maximum number of reciprocal cells 3x 3x 2

    FEWALD:  cpu time      0.0016: real time      0.0016


--------------------------------------- Ionic step        1  -------------------------------------------




--------------------------------------- Iteration      1(   1)  ---------------------------------------


    POTLOK:  cpu time      0.0666: real time      0.0826
    SETDIJ:  cpu time      0.2693: real time      0.2706
     EDDAV:  cpu time     29.6290: real time     29.7997
 BZINTS: Fermi energy:   20.275214;  160.000000 electrons
         Band energy:-0.162498E+03;  BLOECHL correction:   -0.061107
       DOS:  cpu time      0.1627: real time      0.1634
    --------------------------------------------
      LOOP:  cpu time     30.1277: real time     30.3164

 eigenvalue-minimisations  : 35340
 total energy-change (2. order) : 0.2011129E+04  (-0.8889361E+04)
 number of electron     160.0000000 magnetization      -0.0000000
 augmentation part      160.0000000 magnetization      -0.0000000

 Free energy of the ion-electron system (eV)
  ---------------------------------------------------
  alpha Z        PSCENC =       796.08647423
  Ewald energy   TEWEN  =    -11154.26616392
  -Hartree energ DENC   =     -9148.03937644
  -exchange      EXHF   =         0.00000000
  -V(xc)+E(xc)   XCENC  =       564.78250402
  PAW double counting   =     15528.07645937   -16123.85396602
  entropy T*S    EENTRO =         0.00000000
  eigenvalues    EBANDS =      -162.49820028
  atomic energy  EATOM  =     21710.84102437
  Solvation  Ediel_sol  =         0.00000000
  ---------------------------------------------------
  free energy    TOTEN  =      2011.12875532 eV

  energy without entropy =     2011.12875532  energy(sigma->0) =     2011.12875532


--------------------------------------------------------------------------------------------------------




--------------------------------------- Iteration      1(   2)  ---------------------------------------


     EDDAV:  cpu time     27.5181: real time     27.6707
 BZINTS: Fermi energy:    6.797009;  160.000000 electrons
         Band energy:-0.205069E+04;  BLOECHL correction:   -0.027719
       DOS:  cpu time      0.1530: real time      0.1536
    --------------------------------------------
      LOOP:  cpu time     27.6711: real time     27.8243

 eigenvalue-minimisations  : 32000
 total energy-change (2. order) :-0.1888191E+04  (-0.1833244E+04)
 number of electron     160.0000000 magnetization      -0.0000000
 augmentation part      160.0000000 magnetization      -0.0000000

 Free energy of the ion-electron system (eV)
  ---------------------------------------------------
  alpha Z        PSCENC =       796.08647423
  Ewald energy   TEWEN  =    -11154.26616392
  -Hartree energ DENC   =     -9148.03937644
  -exchange      EXHF   =         0.00000000
  -V(xc)+E(xc)   XCENC  =       564.78250402
  PAW double counting   =     15528.07645937   -16123.85396602
  entropy T*S    EENTRO =         0.00000000
  eigenvalues    EBANDS =     -2050.68942399
  atomic energy  EATOM  =     21710.84102437
  Solvation  Ediel_sol  =         0.00000000
  ---------------------------------------------------
  free energy    TOTEN  =       122.93753161 eV

  energy without entropy =      122.93753161  energy(sigma->0) =      122.93753161


--------------------------------------------------------------------------------------------------------




--------------------------------------- Iteration      1(   3)  ---------------------------------------


     EDDAV:  cpu time     36.7785: real time     37.0299
 BZINTS: Fermi energy:    4.959735;  160.000000 electrons
         Band energy:-0.225865E+04;  BLOECHL correction:   -0.017889
       DOS:  cpu time      0.1571: real time      0.1577
    --------------------------------------------
      LOOP:  cpu time     36.9356: real time     37.1877

 eigenvalue-minimisations  : 46020
 total energy-change (2. order) :-0.2079571E+03  (-0.1847933E+03)
 number of electron     160.0000000 magnetization      -0.0000000
 augmentation part      160.0000000 magnetization      -0.0000000

 Free energy of the ion-electron system (eV)
  ---------------------------------------------------
  alpha Z        PSCENC =       796.08647423
  Ewald energy   TEWEN  =    -11154.26616392
  -Hartree energ DENC   =     -9148.03937644
  -exchange      EXHF   =         0.00000000
  -V(xc)+E(xc)   XCENC  =       564.78250402
  PAW double counting   =     15528.07645937   -16123.85396602
  entropy T*S    EENTRO =         0.00000000
  eigenvalues    EBANDS =     -2258.64653433
  atomic energy  EATOM  =     21710.84102437
  Solvation  Ediel_sol  =         0.00000000
  ---------------------------------------------------
  free energy    TOTEN  =       -85.01957873 eV

  energy without entropy =      -85.01957873  energy(sigma->0) =      -85.01957873


--------------------------------------------------------------------------------------------------------




--------------------------------------- Iteration      1(   4)  ---------------------------------------


     EDDAV:  cpu time     38.4091: real time     38.6204
 BZINTS: Fermi energy:    4.840929;  160.000000 electrons
         Band energy:-0.227342E+04;  BLOECHL correction:   -0.021588
       DOS:  cpu time      0.1548: real time      0.1553
    --------------------------------------------
      LOOP:  cpu time     38.5638: real time     38.7757

 eigenvalue-minimisations  : 47280
 total energy-change (2. order) :-0.1477550E+02  (-0.1442936E+02)
 number of electron     160.0000000 magnetization      -0.0000000
 augmentation part      160.0000000 magnetization      -0.0000000

 Free energy of the ion-electron system (eV)
  ---------------------------------------------------
  alpha Z        PSCENC =       796.08647423
  Ewald energy   TEWEN  =    -11154.26616392
  -Hartree energ DENC   =     -9148.03937644
  -exchange      EXHF   =         0.00000000
  -V(xc)+E(xc)   XCENC  =       564.78250402
  PAW double counting   =     15528.07645937   -16123.85396602
  entropy T*S    EENTRO =         0.00000000
  eigenvalues    EBANDS =     -2273.42203148
  atomic energy  EATOM  =     21710.84102437
  Solvation  Ediel_sol  =         0.00000000
  ---------------------------------------------------
  free energy    TOTEN  =       -99.79507588 eV

  energy without entropy =      -99.79507588  energy(sigma->0) =      -99.79507588


--------------------------------------------------------------------------------------------------------




--------------------------------------- Iteration      1(   5)  ---------------------------------------


     EDDAV:  cpu time     35.4460: real time     35.6865
 BZINTS: Fermi energy:    4.837389;  160.000000 electrons
         Band energy:-0.227377E+04;  BLOECHL correction:   -0.021792
       DOS:  cpu time      0.1654: real time      0.1660
    CHARGE:  cpu time      1.0458: real time      1.0523
    MIXING:  cpu time      0.0014: real time      0.0014
    --------------------------------------------
      LOOP:  cpu time     36.6586: real time     36.9061

 eigenvalue-minimisations  : 45100
 total energy-change (2. order) :-0.3489064E+00  (-0.3479633E+00)
 number of electron     160.0000105 magnetization      -0.0000000
 augmentation part       53.0607295 magnetization      -0.0000000

 Broyden mixing:
  rms(total) = 0.27841E+01    rms(broyden)= 0.27837E+01
  rms(prec ) = 0.43621E+01
  weight for this iteration     100.00

 Free energy of the ion-electron system (eV)
  ---------------------------------------------------
  alpha Z        PSCENC =       796.08647423
  Ewald energy   TEWEN  =    -11154.26616392
  -Hartree energ DENC   =     -9148.03937644
  -exchange      EXHF   =         0.00000000
  -V(xc)+E(xc)   XCENC  =       564.78250402
  PAW double counting   =     15528.07645937   -16123.85396602
  entropy T*S    EENTRO =         0.00000000
  eigenvalues    EBANDS =     -2273.77093792
  atomic energy  EATOM  =     21710.84102437
  Solvation  Ediel_sol  =         0.00000000
  ---------------------------------------------------
  free energy    TOTEN  =      -100.14398232 eV

  energy without entropy =     -100.14398232  energy(sigma->0) =     -100.14398232


--------------------------------------------------------------------------------------------------------




--------------------------------------- Iteration      1(   6)  ---------------------------------------


    POTLOK:  cpu time      0.0888: real time      0.0893
    SETDIJ:  cpu time      0.2630: real time      0.2639
    EDDIAG:  cpu time      4.5499: real time      4.5766
  RMM-DIIS:  cpu time     19.1334: real time     19.2329
    ORTHCH:  cpu time      0.5897: real time      0.5924
 BZINTS: Fermi energy:    1.831841;  160.000000 electrons
         Band energy:-0.277340E+04;  BLOECHL correction:   -0.029945
       DOS:  cpu time      0.1618: real time      0.1625
    CHARGE:  cpu time      1.0769: real time      1.0838
    MIXING:  cpu time      0.0016: real time      0.0016
    --------------------------------------------
      LOOP:  cpu time     25.8650: real time     26.0030

 eigenvalue-minimisations  : 34845
 total energy-change (2. order) :-0.1343906E+02  (-0.1759057E+02)
 number of electron     160.0000133 magnetization      -0.0000000
 augmentation part       70.3643872 magnetization      -0.0000000

 Broyden mixing:
  rms(total) = 0.53732E+01    rms(broyden)= 0.53731E+01
  rms(prec ) = 0.85128E+01
  weight for this iteration     100.00

 eigenvalues of (default mixing * dielectric matrix)
  average eigenvalue GAMMA=   0.2958
  0.2958

 Free energy of the ion-electron system (eV)
  ---------------------------------------------------
  alpha Z        PSCENC =       796.08647423
  Ewald energy   TEWEN  =    -11154.26616392
  -Hartree energ DENC   =     -8682.00097241
  -exchange      EXHF   =         0.00000000
  -V(xc)+E(xc)   XCENC  =       552.77459815
  PAW double counting   =     14964.19475517   -15527.81489451
  entropy T*S    EENTRO =         0.00000000
  eigenvalues    EBANDS =     -2773.39785847
  atomic energy  EATOM  =     21710.84102437
  Solvation  Ediel_sol  =         0.00000000
  ---------------------------------------------------
  free energy    TOTEN  =      -113.58303740 eV

  energy without entropy =     -113.58303740  energy(sigma->0) =     -113.58303740


--------------------------------------------------------------------------------------------------------




--------------------------------------- Iteration      1(   7)  ---------------------------------------


    POTLOK:  cpu time      0.0580: real time      0.1042
    SETDIJ:  cpu time      0.2660: real time      0.2670
    EDDIAG:  cpu time      4.6038: real time      4.6283
  RMM-DIIS:  cpu time     16.9907: real time     17.0791
    ORTHCH:  cpu time      0.5969: real time      0.5998
 BZINTS: Fermi energy:    3.730089;  160.000000 electrons
         Band energy:-0.243472E+04;  BLOECHL correction:   -0.015802
       DOS:  cpu time      0.1656: real time      0.1662
    CHARGE:  cpu time      1.0172: real time      1.0229
    MIXING:  cpu time      0.0019: real time      0.0019
    --------------------------------------------
      LOOP:  cpu time     23.7000: real time     23.8693

 eigenvalue-minimisations  : 32070
 total energy-change (2. order) : 0.2271483E+02  (-0.4563201E+01)
 number of electron     160.0000109 magnetization      -0.0000000
 augmentation part       57.8385989 magnetization      -0.0000000

 Broyden mixing:
  rms(total) = 0.11434E+01    rms(broyden)= 0.11426E+01
  rms(prec ) = 0.13635E+01
  weight for this iteration     100.00

 eigenvalues of (default mixing * dielectric matrix)
  average eigenvalue GAMMA=   0.4371
  0.6104  0.2638

 Free energy of the ion-electron system (eV)
  ---------------------------------------------------
  alpha Z        PSCENC =       796.08647423
  Ewald energy   TEWEN  =    -11154.26616392
  -Hartree energ DENC   =     -8969.45118495
  -exchange      EXHF   =         0.00000000
  -V(xc)+E(xc)   XCENC  =       557.91761629
  PAW double counting   =     15463.75638146   -16061.03628394
  entropy T*S    EENTRO =         0.00000000
  eigenvalues    EBANDS =     -2434.71607108
  atomic energy  EATOM  =     21710.84102437
  Solvation  Ediel_sol  =         0.00000000
  ---------------------------------------------------
  free energy    TOTEN  =       -90.86820755 eV

  energy without entropy =      -90.86820755  energy(sigma->0) =      -90.86820755


--------------------------------------------------------------------------------------------------------




--------------------------------------- Iteration      1(   8)  ---------------------------------------


    POTLOK:  cpu time      0.0563: real time      0.0568
    SETDIJ:  cpu time      0.2658: real time      0.2669
    EDDIAG:  cpu time      4.3898: real time      4.4144
  RMM-DIIS:  cpu time     24.3894: real time     24.5164
    ORTHCH:  cpu time      0.6075: real time      0.6103
 BZINTS: Fermi energy:    3.716266;  160.000000 electrons
         Band energy:-0.244059E+04;  BLOECHL correction:   -0.016865
       DOS:  cpu time      0.1506: real time      0.1511
    CHARGE:  cpu time      1.0907: real time      1.0966
    MIXING:  cpu time      0.0017: real time      0.0017
    --------------------------------------------
      LOOP:  cpu time     30.9518: real time     31.1142

 eigenvalue-minimisations  : 46144
 total energy-change (2. order) :-0.6585095E+00  (-0.3604419E+00)
 number of electron     160.0000108 magnetization      -0.0000000
 augmentation part       58.3241795 magnetization      -0.0000000

 Broyden mixing:
  rms(total) = 0.55249E+00    rms(broyden)= 0.55215E+00
  rms(prec ) = 0.72596E+00
  weight for this iteration     100.00

 eigenvalues of (default mixing * dielectric matrix)
  average eigenvalue GAMMA=   0.6282
  0.3067  0.7889  0.7889

 Free energy of the ion-electron system (eV)
  ---------------------------------------------------
  alpha Z        PSCENC =       796.08647423
  Ewald energy   TEWEN  =    -11154.26616392
  -Hartree energ DENC   =     -8957.96778492
  -exchange      EXHF   =         0.00000000
  -V(xc)+E(xc)   XCENC  =       558.36884111
  PAW double counting   =     15511.60029898   -16115.60158875
  entropy T*S    EENTRO =         0.00000000
  eigenvalues    EBANDS =     -2440.58781810
  atomic energy  EATOM  =     21710.84102437
  Solvation  Ediel_sol  =         0.00000000
  ---------------------------------------------------
  free energy    TOTEN  =       -91.52671701 eV

  energy without entropy =      -91.52671701  energy(sigma->0) =      -91.52671701


--------------------------------------------------------------------------------------------------------




--------------------------------------- Iteration      1(   9)  ---------------------------------------


    POTLOK:  cpu time      0.0741: real time      0.0746
    SETDIJ:  cpu time      0.2651: real time      0.2660
    EDDIAG:  cpu time      4.5966: real time      4.6221
  RMM-DIIS:  cpu time     26.5583: real time     26.7005
    ORTHCH:  cpu time      0.5863: real time      0.5888
 BZINTS: Fermi energy:    3.622817;  160.000000 electrons
         Band energy:-0.245108E+04;  BLOECHL correction:   -0.014389
       DOS:  cpu time      0.1754: real time      0.1761
    CHARGE:  cpu time      1.0027: real time      1.0085
    MIXING:  cpu time      0.0018: real time      0.0018
    --------------------------------------------
      LOOP:  cpu time     33.2602: real time     33.4384

 eigenvalue-minimisations  : 50701
 total energy-change (2. order) :-0.9378256E-01  (-0.9615297E-01)
 number of electron     160.0000108 magnetization      -0.0000000
 augmentation part       58.7570017 magnetization      -0.0000000

 Broyden mixing:
  rms(total) = 0.29403E+00    rms(broyden)= 0.29346E+00
  rms(prec ) = 0.35943E+00
  weight for this iteration     100.00

 eigenvalues of (default mixing * dielectric matrix)
  average eigenvalue GAMMA=   0.8107
  1.1208  1.1208  0.3013  0.7001

 Free energy of the ion-electron system (eV)
  ---------------------------------------------------
  alpha Z        PSCENC =       796.08647423
  Ewald energy   TEWEN  =    -11154.26616392
  -Hartree energ DENC   =     -8941.55323095
  -exchange      EXHF   =         0.00000000
  -V(xc)+E(xc)   XCENC  =       558.60768788
  PAW double counting   =     15587.64038478   -16197.89202293
  entropy T*S    EENTRO =         0.00000000
  eigenvalues    EBANDS =     -2451.08465304
  atomic energy  EATOM  =     21710.84102437
  Solvation  Ediel_sol  =         0.00000000
  ---------------------------------------------------
  free energy    TOTEN  =       -91.62049958 eV

  energy without entropy =      -91.62049958  energy(sigma->0) =      -91.62049958


--------------------------------------------------------------------------------------------------------




--------------------------------------- Iteration      1(  10)  ---------------------------------------


    POTLOK:  cpu time      0.0549: real time      0.0929
    SETDIJ:  cpu time      0.2636: real time      0.2648
    EDDIAG:  cpu time      4.3978: real time      4.4222
  RMM-DIIS:  cpu time     28.3457: real time     28.4954
    ORTHCH:  cpu time      0.5940: real time      0.5967
 BZINTS: Fermi energy:    3.576530;  160.000000 electrons
         Band energy:-0.245435E+04;  BLOECHL correction:   -0.012433
       DOS:  cpu time      0.1396: real time      0.1617
    CHARGE:  cpu time      1.0879: real time      1.0938
    MIXING:  cpu time      0.0024: real time      0.0025
    --------------------------------------------
      LOOP:  cpu time     34.8859: real time     35.1300

 eigenvalue-minimisations  : 52344
 total energy-change (2. order) :-0.2567323E-01  (-0.2918086E-01)
 number of electron     160.0000108 magnetization      -0.0000000
 augmentation part       58.9559380 magnetization      -0.0000000

 Broyden mixing:
  rms(total) = 0.17008E+00    rms(broyden)= 0.16980E+00
  rms(prec ) = 0.19595E+00
  weight for this iteration     100.00

 eigenvalues of (default mixing * dielectric matrix)
  average eigenvalue GAMMA=   1.0054
  1.5814  1.5814  0.3018  0.8016  0.7610

 Free energy of the ion-electron system (eV)
  ---------------------------------------------------
  alpha Z        PSCENC =       796.08647423
  Ewald energy   TEWEN  =    -11154.26616392
  -Hartree energ DENC   =     -8934.66783128
  -exchange      EXHF   =         0.00000000
  -V(xc)+E(xc)   XCENC  =       558.63457276
  PAW double counting   =     15641.14997230   -16255.06927530
  entropy T*S    EENTRO =         0.00000000
  eigenvalues    EBANDS =     -2454.35494596
  atomic energy  EATOM  =     21710.84102437
  Solvation  Ediel_sol  =         0.00000000
  ---------------------------------------------------
  free energy    TOTEN  =       -91.64617281 eV

  energy without entropy =      -91.64617281  energy(sigma->0) =      -91.64617281


--------------------------------------------------------------------------------------------------------




--------------------------------------- Iteration      1(  11)  ---------------------------------------


    POTLOK:  cpu time      0.0716: real time      0.0721
    SETDIJ:  cpu time      0.2667: real time      0.2679
    EDDIAG:  cpu time      4.5968: real time      4.6204
  RMM-DIIS:  cpu time     26.2684: real time     26.4028
    ORTHCH:  cpu time      0.5893: real time      0.5919
 BZINTS: Fermi energy:    3.582971;  160.000000 electrons
         Band energy:-0.245385E+04;  BLOECHL correction:   -0.012297
       DOS:  cpu time      0.1686: real time      0.1694
    CHARGE:  cpu time      1.0017: real time      1.0069
    MIXING:  cpu time      0.0017: real time      0.0017
    --------------------------------------------
      LOOP:  cpu time     32.9647: real time     33.1332

 eigenvalue-minimisations  : 48468
 total energy-change (2. order) : 0.2113985E-02  (-0.6770217E-02)
 number of electron     160.0000108 magnetization      -0.0000000
 augmentation part       58.9379007 magnetization      -0.0000000

 Broyden mixing:
  rms(total) = 0.63807E-01    rms(broyden)= 0.63724E-01
  rms(prec ) = 0.71873E-01
  weight for this iteration     100.00

 eigenvalues of (default mixing * dielectric matrix)
  average eigenvalue GAMMA=   1.0900
  1.8686  1.8686  0.3017  0.9111  0.9111  0.6788

 Free energy of the ion-electron system (eV)
  ---------------------------------------------------
  alpha Z        PSCENC =       796.08647423
  Ewald energy   TEWEN  =    -11154.26616392
  -Hartree energ DENC   =     -8932.07838119
  -exchange      EXHF   =         0.00000000
  -V(xc)+E(xc)   XCENC  =       558.74796257
  PAW double counting   =     15699.42613229   -16316.54799001
  entropy T*S    EENTRO =         0.00000000
  eigenvalues    EBANDS =     -2453.85311715
  atomic energy  EATOM  =     21710.84102437
  Solvation  Ediel_sol  =         0.00000000
  ---------------------------------------------------
  free energy    TOTEN  =       -91.64405882 eV

  energy without entropy =      -91.64405882  energy(sigma->0) =      -91.64405882


--------------------------------------------------------------------------------------------------------




--------------------------------------- Iteration      1(  12)  ---------------------------------------


    POTLOK:  cpu time      0.0527: real time      0.0961
    SETDIJ:  cpu time      0.2647: real time      0.2657
    EDDIAG:  cpu time      4.4812: real time      4.5070
  RMM-DIIS:  cpu time     26.5863: real time     26.7247
    ORTHCH:  cpu time      0.6094: real time      0.6122
 BZINTS: Fermi energy:    3.586866;  160.000000 electrons
         Band energy:-0.245431E+04;  BLOECHL correction:   -0.012525
       DOS:  cpu time      0.1631: real time      0.1637
    CHARGE:  cpu time      1.0638: real time      1.0692
    MIXING:  cpu time      0.0022: real time      0.0022
    --------------------------------------------
      LOOP:  cpu time     33.2235: real time     33.4408

 eigenvalue-minimisations  : 49121
 total energy-change (2. order) :-0.9581293E-02  (-0.2094450E-02)
 number of electron     160.0000108 magnetization       0.0000000
 augmentation part       58.9654806 magnetization       0.0000000

 Broyden mixing:
  rms(total) = 0.36183E-01    rms(broyden)= 0.36166E-01
  rms(prec ) = 0.42937E-01
  weight for this iteration     100.00

 eigenvalues of (default mixing * dielectric matrix)
  average eigenvalue GAMMA=   1.0730
  2.2534  1.3111  1.3111  0.3017  0.8332  0.8332  0.6673

 Free energy of the ion-electron system (eV)
  ---------------------------------------------------
  alpha Z        PSCENC =       796.08647423
  Ewald energy   TEWEN  =    -11154.26616392
  -Hartree energ DENC   =     -8931.38416846
  -exchange      EXHF   =         0.00000000
  -V(xc)+E(xc)   XCENC  =       558.76222218
  PAW double counting   =     15705.42502673   -16322.80718685
  entropy T*S    EENTRO =         0.00000000
  eigenvalues    EBANDS =     -2454.31086839
  atomic energy  EATOM  =     21710.84102437
  Solvation  Ediel_sol  =         0.00000000
  ---------------------------------------------------
  free energy    TOTEN  =       -91.65364012 eV

  energy without entropy =      -91.65364012  energy(sigma->0) =      -91.65364012


--------------------------------------------------------------------------------------------------------




--------------------------------------- Iteration      1(  13)  ---------------------------------------


    POTLOK:  cpu time      0.0693: real time      0.0697
    SETDIJ:  cpu time      0.2628: real time      0.2638
    EDDIAG:  cpu time      4.5877: real time      4.6134
  RMM-DIIS:  cpu time     24.9031: real time     25.0296
    ORTHCH:  cpu time      0.5840: real time      0.5871
 BZINTS: Fermi energy:    3.585610;  160.000000 electrons
         Band energy:-0.245462E+04;  BLOECHL correction:   -0.012324
       DOS:  cpu time      0.1590: real time      0.1596
    CHARGE:  cpu time      1.0209: real time      1.0277
    MIXING:  cpu time      0.0018: real time      0.0018
    --------------------------------------------
      LOOP:  cpu time     31.5886: real time     31.7528

 eigenvalue-minimisations  : 45068
 total energy-change (2. order) : 0.2509602E-03  (-0.5336411E-03)
 number of electron     160.0000108 magnetization      -0.0000000
 augmentation part       58.9822137 magnetization      -0.0000000

 Broyden mixing:
  rms(total) = 0.14602E-01    rms(broyden)= 0.14590E-01
  rms(prec ) = 0.17740E-01
  weight for this iteration     100.00

 eigenvalues of (default mixing * dielectric matrix)
  average eigenvalue GAMMA=   1.1186
  2.6226  1.3740  1.3740  0.3017  1.0198  0.8997  0.7097  0.6470

 Free energy of the ion-electron system (eV)
  ---------------------------------------------------
  alpha Z        PSCENC =       796.08647423
  Ewald energy   TEWEN  =    -11154.26616392
  -Hartree energ DENC   =     -8930.95371365
  -exchange      EXHF   =         0.00000000
  -V(xc)+E(xc)   XCENC  =       558.79877651
  PAW double counting   =     15708.48828131   -16326.02581359
  entropy T*S    EENTRO =         0.00000000
  eigenvalues    EBANDS =     -2454.62225440
  atomic energy  EATOM  =     21710.84102437
  Solvation  Ediel_sol  =         0.00000000
  ---------------------------------------------------
  free energy    TOTEN  =       -91.65338916 eV

  energy without entropy =      -91.65338916  energy(sigma->0) =      -91.65338916


--------------------------------------------------------------------------------------------------------




--------------------------------------- Iteration      1(  14)  ---------------------------------------


    POTLOK:  cpu time      0.0570: real time      0.1063
    SETDIJ:  cpu time      0.2685: real time      0.2694
    EDDIAG:  cpu time      4.5115: real time      4.5353
  RMM-DIIS:  cpu time     18.9984: real time     19.0973
    ORTHCH:  cpu time      0.5838: real time      0.5864
 BZINTS: Fermi energy:    3.583626;  160.000000 electrons
         Band energy:-0.245480E+04;  BLOECHL correction:   -0.012258
       DOS:  cpu time      0.1537: real time      0.1545
    --------------------------------------------
      LOOP:  cpu time     24.5728: real time     24.7491

 eigenvalue-minimisations  : 34261
 total energy-change (2. order) : 0.1535941E-03  (-0.1668812E-03)
 number of electron     160.0000108 magnetization      -0.0000000
 augmentation part       58.9822137 magnetization      -0.0000000

 Free energy of the ion-electron system (eV)
  ---------------------------------------------------
  alpha Z        PSCENC =       796.08647423
  Ewald energy   TEWEN  =    -11154.26616392
  -Hartree energ DENC   =     -8930.78241126
  -exchange      EXHF   =         0.00000000
  -V(xc)+E(xc)   XCENC  =       558.80957072
  PAW double counting   =     15709.33778700   -16326.88175878
  entropy T*S    EENTRO =         0.00000000
  eigenvalues    EBANDS =     -2454.79775791
  atomic energy  EATOM  =     21710.84102437
  Solvation  Ediel_sol  =         0.00000000
  ---------------------------------------------------
  free energy    TOTEN  =       -91.65323556 eV

  energy without entropy =      -91.65323556  energy(sigma->0) =      -91.65323556


--------------------------------------------------------------------------------------------------------




 average (electrostatic) potential at core
  the test charge radii are     0.9500  1.0808
  (the norm of the test charge is              1.0000)
       1 -47.5956       2 -47.5956       3 -47.5956       4 -47.5956       5 -47.5956
       6 -47.5956       7 -47.5956       8 -47.5956       9 -55.1113      10 -55.1113
      11 -55.1113      12 -55.1113      13 -55.1113      14 -55.1113      15 -55.1113
      16 -55.1113
 
 
 
 E-fermi :   3.5836     XC(G=0): -10.3089     alpha+bet : -9.1214

 Fermi energy:         3.5836263611

 spin component 1

 k-point     1 :       0.0000    0.0000    0.0000
  band No.  band energies     occupation 
      1     -51.2394      1.00000
      2     -51.2317      1.00000
      3     -51.2317      1.00000
      4     -51.2266      1.00000
      5     -51.0985      1.00000
      6     -51.0568      1.00000
      7     -51.0515      1.00000
      8     -51.0515      1.00000
      9     -51.0439      1.00000
     10     -50.9397      1.00000
     11     -50.9397      1.00000
     12     -50.7784      1.00000
     13     -48.3722      1.00000
     14     -48.3704      1.00000
     15     -48.3704      1.00000
     16     -48.3701      1.00000
     17     -48.3499      1.00000
     18     -48.1736      1.00000
     19     -48.1736      1.00000
     20     -48.0286      1.00000
     21     -48.0286      1.00000
     22     -48.0284      1.00000
     23     -48.0265      1.00000
     24     -47.9942      1.00000
     25     -10.5772      1.00000
     26      -9.4889      1.00000
     27      -9.4889      1.00000
     28      -9.4734      1.00000
     29      -9.4734      1.00000
     30      -9.2386      1.00000
     31      -9.0594      1.00000
     32      -8.9431      1.00000
     33      -2.4349      1.00000
     34      -2.1267      1.00000
     35      -1.1431      1.00000
     36      -1.1431      1.00000
     37      -1.1283      1.00000
     38      -1.1283      1.00000
[...]
 -0.000  -0.000   0.000   0.000   0.000  -0.000  -0.030  -0.000
 -0.000  -0.000  -0.000   0.000   0.000   0.000  -0.000  -0.098
  0.000   0.000  -0.000  -0.000  -0.000   0.000  -0.032   0.000
 -0.000  -0.000   0.000   0.000   0.000  -0.000   0.000  -0.081
  0.000  -0.000  -0.000  -0.000   0.000   0.000  -0.000   0.003
  0.000   0.000  -0.000  -0.000  -0.000   0.000   0.007   0.000
  0.000   0.000   0.000  -0.000  -0.000  -0.000   0.000   0.024
 -0.000  -0.000   0.000   0.000   0.000  -0.000   0.000  -0.012
  0.000   0.000  -0.000  -0.000  -0.000   0.000  -0.000   0.002
 pseudopotential strength for first ion, spin component:           2
-53.170   0.103  -0.000  26.818  -0.074   0.000  -0.000   0.000
  0.103 -53.183  -0.000  -0.074  26.826   0.000  -0.000   0.000
 -0.000  -0.000 -53.155   0.000   0.000  26.799   0.000  -0.000
 26.818  -0.074   0.000  -9.028   0.055  -0.000   0.000  -0.000
 -0.074  26.826   0.000   0.055  -9.035  -0.000   0.000  -0.000
  0.000   0.000  26.799  -0.000  -0.000  -9.018  -0.000   0.000
 -0.000  -0.000   0.000   0.000   0.000  -0.000  -6.889  -0.000
  0.000   0.000  -0.000  -0.000  -0.000   0.000  -0.000  -7.267
 -0.000   0.000   0.000   0.000  -0.000  -0.000   0.000   0.083
 -0.000  -0.000   0.000   0.000   0.000  -0.000   0.116  -0.000
 -0.000  -0.000  -0.000   0.000   0.000   0.000  -0.000   0.011
  0.000   0.000  -0.000  -0.000  -0.000   0.000  -0.536   0.000
 -0.000  -0.000   0.000   0.000   0.000  -0.000   0.000  -0.448
  0.000  -0.000  -0.000  -0.000   0.000   0.000  -0.000  -0.018
  0.000   0.000  -0.000  -0.000  -0.000   0.000  -0.025   0.000
  0.000   0.000   0.000  -0.000  -0.000  -0.000   0.000  -0.004
 -0.000  -0.000   0.000   0.000   0.000  -0.000   0.000  -0.012
  0.000   0.000  -0.000  -0.000  -0.000   0.000  -0.000   0.003
 total augmentation occupancy for first ion, spin component:           1
  2.009  -0.019   0.000   0.055  -0.046   0.000  -0.000   0.000   0.000   0.000   0.000  -0.000   0.000  -0.000   0.000   0.000
 -0.019   2.012   0.000  -0.046   0.063   0.000   0.000   0.000   0.000   0.000   0.000   0.000   0.000   0.000   0.000   0.000
  0.000   0.000   2.008  -0.000   0.000   0.050   0.000   0.000  -0.000  -0.000   0.000   0.000   0.000  -0.000  -0.000  -0.000
  0.055  -0.046  -0.000   0.192  -0.112  -0.000  -0.000   0.000   0.000   0.000  -0.000  -0.000   0.000   0.000   0.000   0.000
 -0.046   0.063  -0.000  -0.112   0.212  -0.000   0.000   0.000   0.000   0.000   0.000  -0.000  -0.000   0.000  -0.000  -0.000
 -0.000   0.000   0.050   0.000  -0.000   0.174   0.000  -0.000   0.000  -0.000   0.000  -0.000  -0.000   0.000  -0.000  -0.000
 -0.000  -0.000  -0.000  -0.000  -0.000   0.000   1.240  -0.000  -0.000  -0.096   0.000  -0.081   0.000  -0.000  -0.055   0.000
  0.000   0.000   0.000  -0.000   0.000  -0.000  -0.000   1.472   0.003   0.000  -0.091   0.000   0.082  -0.135  -0.000   0.101
  0.000  -0.000  -0.000   0.000   0.000   0.000   0.000   0.003   1.298  -0.000  -0.169  -0.000  -0.137   0.037   0.000  -0.089
  0.000   0.000   0.000   0.000   0.000  -0.000  -0.096   0.000  -0.000   1.217  -0.000  -0.056   0.000  -0.000  -0.060   0.000
  0.000   0.000   0.000  -0.000   0.000   0.000  -0.000  -0.091  -0.169   0.000   1.502   0.000   0.105  -0.087  -0.000   0.134
  0.000   0.000   0.000  -0.000  -0.000  -0.000  -0.081   0.000   0.000  -0.056   0.000   0.160  -0.000  -0.000  -0.027  -0.000
  0.000   0.000   0.000   0.000   0.000   0.000   0.000   0.082  -0.137   0.000   0.105  -0.000   0.245  -0.069  -0.000   0.088
  0.000   0.000   0.000  -0.000  -0.000   0.000   0.000  -0.135   0.037   0.000  -0.087  -0.000  -0.069   0.164  -0.000  -0.009
  0.000   0.000  -0.000   0.000  -0.000   0.000  -0.055   0.000  -0.000  -0.060  -0.000  -0.027  -0.000   0.000   0.157   0.000
  0.000   0.000  -0.000  -0.000   0.000  -0.000   0.000   0.101  -0.089  -0.000   0.134   0.000   0.088  -0.009  -0.000   0.137
 -0.000  -0.000  -0.000   0.000   0.000   0.000   0.000  -0.012  -0.033  -0.000   0.092  -0.000  -0.330   0.029   0.000  -0.008
 -0.000   0.000   0.000  -0.000   0.000   0.000  -0.000  -0.000   0.018  -0.000  -0.020  -0.000   0.021  -0.005   0.000   0.003
 total augmentation occupancy for first ion, spin component:           2
 -0.006   0.000   0.000  -0.002  -0.000   0.000   0.000  -0.000   0.000   0.000   0.000  -0.000   0.000   0.000   0.000   0.000
  0.000  -0.008  -0.000  -0.000  -0.008   0.000   0.000  -0.000   0.000  -0.000  -0.000   0.000   0.000   0.000  -0.000   0.000
 -0.000  -0.000  -0.008   0.000   0.000  -0.006  -0.000   0.000   0.000  -0.000  -0.000   0.000  -0.000  -0.000   0.000   0.000
 -0.002  -0.000  -0.000   0.014  -0.002  -0.000  -0.000  -0.000   0.000   0.000   0.000   0.000   0.000   0.000   0.000  -0.000
 -0.000  -0.008  -0.000  -0.002   0.001   0.000   0.000  -0.000   0.000   0.000  -0.000  -0.000  -0.000   0.000   0.000  -0.000
 -0.000  -0.000  -0.006  -0.000   0.000   0.009   0.000   0.000  -0.000   0.000   0.000  -0.000   0.000   0.000   0.000   0.000
  0.000  -0.000   0.000  -0.000   0.000  -0.000   0.715  -0.000  -0.000   0.114   0.000  -0.273   0.000  -0.000   0.008  -0.000
 -0.000  -0.000   0.000  -0.000  -0.000   0.000  -0.000   0.378   0.083   0.000   0.038   0.000  -0.204  -0.002  -0.000  -0.032
  0.000   0.000   0.000   0.000   0.000  -0.000  -0.000   0.083   0.560  -0.000   0.219   0.000  -0.003  -0.223  -0.000  -0.031
  0.000  -0.000   0.000   0.000   0.000  -0.000   0.114  -0.000   0.000   0.712   0.000   0.010  -0.000   0.000  -0.270  -0.000
 -0.000   0.000  -0.000  -0.000   0.000   0.000  -0.000   0.038   0.219   0.000   0.262  -0.000  -0.017  -0.026  -0.000  -0.158
 -0.000   0.000   0.000   0.000  -0.000  -0.000  -0.273   0.000  -0.000   0.010  -0.000   0.055  -0.000   0.000   0.005  -0.000
  0.000   0.000  -0.000   0.000   0.000   0.000  -0.000  -0.204  -0.003  -0.000  -0.017   0.000   0.009   0.023  -0.000  -0.002
  0.000   0.000  -0.000   0.000   0.000   0.000   0.000  -0.002  -0.223   0.000  -0.026  -0.000   0.023   0.018   0.000   0.013
  0.000  -0.000   0.000   0.000   0.000   0.000   0.008   0.000   0.000  -0.270  -0.000   0.005  -0.000  -0.000   0.041   0.000
  0.000   0.000   0.000   0.000   0.000   0.000  -0.000  -0.032  -0.031   0.000  -0.158   0.000  -0.002   0.013  -0.000  -0.010
 -0.000   0.000  -0.000   0.000   0.000   0.000   0.000   0.127   0.018   0.000  -0.051  -0.000  -0.037   0.005  -0.000  -0.027
  0.000   0.000  -0.000  -0.000   0.000  -0.000   0.000   0.013   0.017   0.000  -0.022   0.000  -0.003  -0.002   0.000   0.001


------------------------ aborting loop because EDIFF is reached ----------------------------------------





 total charge

# of ion       s       p       d       tot
------------------------------------------
    1        0.340   6.291   6.059  12.690
    2        0.340   6.291   6.059  12.690
    3        0.340   6.291   6.059  12.690
    4        0.340   6.291   6.059  12.690
    5        0.340   6.291   6.059  12.690
    6        0.340   6.291   6.059  12.690
    7        0.340   6.291   6.059  12.690
    8        0.340   6.291   6.059  12.690
    9        1.487   2.264   0.051   3.802
   10        1.487   2.264   0.051   3.802
   11        1.487   2.264   0.051   3.802
   12        1.487   2.264   0.051   3.802
   13        1.487   2.264   0.051   3.802
   14        1.487   2.264   0.051   3.802
   15        1.487   2.264   0.051   3.802
   16        1.487   2.264   0.051   3.802
--------------------------------------------------
tot         14.621  68.441  48.876 131.937



 magnetization (x)

# of ion       s       p       d       tot
------------------------------------------
    1        0.028   0.012   2.559   2.599
    2       -0.028  -0.012  -2.559  -2.599
    3       -0.028  -0.012  -2.559  -2.599
    4        0.028   0.012   2.559   2.599
    5        0.028   0.012   2.559   2.599
    6       -0.028  -0.012  -2.559  -2.599
    7       -0.028  -0.012  -2.559  -2.599
    8        0.028   0.012   2.559   2.599
    9        0.000   0.000   0.000   0.000
   10        0.000   0.000   0.000   0.000
   11        0.000   0.000   0.000   0.000
   12        0.000   0.000   0.000   0.000
   13        0.000   0.000   0.000   0.000
   14        0.000   0.000   0.000   0.000
   15        0.000   0.000   0.000   0.000
   16        0.000   0.000   0.000   0.000
--------------------------------------------------
tot          0.000   0.000  -0.000  -0.000
 
    CHARGE:  cpu time      1.0867: real time      1.0923
    FORLOC:  cpu time      0.0032: real time      0.0032
    FORNL :  cpu time      7.0804: real time      7.1172
    STRESS:  cpu time     21.1922: real time     21.2985
    FORCOR:  cpu time      0.0532: real time      0.0535
    FORHAR:  cpu time      0.0076: real time      0.0076
    MIXING:  cpu time      0.0018: real time      0.0018
    OFIELD:  cpu time      0.0000: real time      0.0000
    FORVDW:  cpu time      0.7815: real time      0.7843

  FORCE on cell =-STRESS in cart. coord.  units (eV):
  Direction    XX          YY          ZZ          XY          YZ          ZX
  --------------------------------------------------------------------------------------
  Alpha Z   796.08647   796.08647   796.08647
  Ewald    -949.61102 -1800.50119 -8404.17945    -0.00000     0.00000    -0.00000
  Hartree  5497.54414  4707.72803 -1271.60862     0.00000     0.00000    -0.00000
  E(xc)    -896.44901  -898.50331  -897.71089    -0.00000     0.00000    -0.00000
  Local   -6398.73471 -4761.24464  7843.14157     0.00000     0.00000    -0.00000
  n-local  -275.00450  -247.51488  -240.00014    -0.89971    -0.32949    -0.85671
  augment   530.95983   516.15786   514.48001     0.00000     0.00000    -0.00000
  Kinetic  1699.64669  1691.03048  1663.18317     3.61218    -0.16744     0.17767
  Fock        0.00000     0.00000     0.00000     0.00000     0.00000     0.00000
  vdW        -6.18216    -6.25573    -6.45440    -0.00000     0.00000     0.00000
  -------------------------------------------------------------------------------------
  Total      -1.74427    -3.01691    -3.06228     0.00000     0.00000     0.00000
  in kB      -8.76060   -15.15243   -15.38028     0.00000     0.00000     0.00000
  external pressure =      -13.10 kB  Pullay stress =        0.00 kB


 VOLUME and BASIS-vectors are now :
 -----------------------------------------------------------------------------
  energy-cutoff  :      550.00
  volume of cell :      319.00
      direct lattice vectors                 reciprocal lattice vectors
     4.839875626 -5.787815912  0.000000000     0.103308440 -0.086388373  0.000000000
     4.839875626  5.787815912  0.000000000     0.103308440  0.086388373  0.000000000
     0.000000000  0.000000000  5.693925449     0.000000000  0.000000000  0.175625763

  length of vectors
     7.544747120  7.544747120  5.693925449     0.134668425  0.134668425  0.175625763


 FORCES acting on ions
    electron-ion (+dipol)            ewald-force                    non-local-force                 convergence-correction
 -----------------------------------------------------------------------------------------------
   -.126E-14 -.943E-13 -.605E-14   -.355E-13 0.284E-13 0.107E-13   -.552E-21 -.779E-21 -.204E-21   0.335E-12 -.347E-12 -.333E-12
   0.721E-12 0.745E-12 0.273E-13   -.370E-13 0.284E-13 0.338E-13   0.658E-21 0.626E-21 0.438E-21   -.107E-12 0.561E-14 -.390E-12
   0.627E-12 -.154E-11 -.118E-10   -.343E-13 0.284E-13 0.426E-13   0.934E-21 0.125E-21 -.464E-21   0.234E-12 0.735E-12 -.387E-12
   -.496E-11 -.965E-11 -.880E-11   -.355E-13 0.426E-13 0.355E-13   -.810E-21 -.978E-21 0.147E-21   -.213E-12 -.439E-12 -.323E-12
   -.259E-11 -.396E-11 -.369E-11   -.620E-14 -.107E-13 0.888E-14   0.132E-20 0.132E-20 0.188E-21   0.195E-12 0.622E-13 -.178E-12
   0.434E-11 0.575E-11 -.432E-11   0.711E-14 0.355E-14 0.711E-14   -.109E-20 0.732E-22 -.287E-21   -.341E-12 0.396E-12 -.149E-12
   -.145E-10 -.294E-10 0.370E-10   -.711E-14 -.249E-13 -.355E-14   -.483E-21 0.112E-21 0.263E-21   0.474E-12 0.647E-12 -.724E-12
   0.860E-12 -.638E-11 0.351E-10   0.143E-13 0.000E+00 0.000E+00   -.206E-21 0.939E-21 -.221E-21   -.943E-13 -.599E-12 -.595E-12
   0.738E-07 0.162E-11 0.329E+03   0.141E-13 -.213E-13 -.330E+03   0.175E-17 -.137E-19 0.116E+01   0.177E-12 0.604E-13 -.478E-01
   0.738E-07 -.648E-12 0.329E+03   0.142E-13 -.176E-13 -.330E+03   -.741E-18 -.227E-17 0.116E+01   -.588E-13 -.211E-12 -.478E-01
   0.738E-07 -.359E-12 0.329E+03   0.142E-13 -.146E-13 -.330E+03   0.367E-18 -.193E-17 0.116E+01   0.542E-13 0.106E-12 -.478E-01
   0.738E-07 -.123E-12 0.329E+03   0.141E-13 0.000E+00 -.330E+03   -.138E-18 0.173E-17 0.116E+01   -.176E-12 -.233E-13 -.478E-01
   -.738E-07 0.406E-13 -.329E+03   0.209E-13 -.292E-14 0.330E+03   0.710E-18 -.241E-17 -.116E+01   0.270E-13 -.109E-13 0.478E-01
   -.738E-07 -.806E-14 -.329E+03   0.217E-13 0.410E-15 0.330E+03   -.126E-17 0.249E-17 -.116E+01   -.301E-13 0.371E-13 0.478E-01
   -.738E-07 -.201E-12 -.329E+03   0.206E-13 -.194E-15 0.330E+03   0.841E-18 0.116E-17 -.116E+01   -.680E-14 0.902E-13 0.478E-01
   -.738E-07 0.384E-12 -.329E+03   0.216E-13 0.656E-14 0.330E+03   -.104E-17 0.824E-18 -.116E+01   -.510E-13 -.471E-13 0.478E-01
 -----------------------------------------------------------------------------------------------
   -.169E-10 -.439E-10 0.404E-10   0.714E-14 0.463E-13 0.568E-13   0.496E-18 -.408E-18 0.444E-15   0.418E-12 0.463E-12 -.276E-11
 
 
 POSITION                                       TOTAL-FORCE (eV/Angst)
 -----------------------------------------------------------------------------------
      0.00000      0.00000      0.00000         0.000000     -0.000000     -0.000000
      2.41994      2.89391      0.00000         0.000000     -0.000000     -0.000000
      2.41994     -2.89391      0.00000         0.000000     -0.000000     -0.000000
      4.83988      0.00000      0.00000         0.000000     -0.000000     -0.000000
      2.41994      0.00000      0.00000         0.000000     -0.000000     -0.000000
      4.83988      2.89391      0.00000         0.000000     -0.000000     -0.000000
      4.83988     -2.89391      0.00000         0.000000     -0.000000     -0.000000
      7.25981      0.00000      0.00000         0.000000     -0.000000     -0.000000
      2.41994     -1.44695      3.90866        -0.000000      0.000000      0.045549
      4.83988      1.44695      3.90866         0.000000     -0.000000      0.045549
      4.83988     -4.34086      3.90866        -0.000000      0.000000      0.045549
      7.25981     -1.44695      3.90866         0.000000     -0.000000      0.045549
      2.41994      1.44695      1.78527         0.000000      0.000000     -0.045549
      4.83988      4.34086      1.78527         0.000000      0.000000     -0.045549
      4.83988     -1.44695      1.78527        -0.000000     -0.000000     -0.045549
      7.25981      1.44695      1.78527        -0.000000     -0.000000     -0.045549
 -----------------------------------------------------------------------------------
    total drift:                               -0.000000     -0.000000      0.000000


--------------------------------------------------------------------------------------------------------



  FREE ENERGIE OF THE ION-ELECTRON SYSTEM (eV)
  ---------------------------------------------------
  free  energy   TOTEN  =       -98.28119918 eV

  energy  without entropy=      -98.28119918  energy(sigma->0) =      -98.28119918
 


--------------------------------------------------------------------------------------------------------


    POTLOK:  cpu time      0.3299: real time      0.3447


--------------------------------------------------------------------------------------------------------


     LOOP+:  cpu time    473.4188: real time    476.4153
 -----------------------------------------------------------------------------
|                                                                             |
|           W    W    AA    RRRRR   N    N  II  N    N   GGGG   !!!           |
|           W    W   A  A   R    R  NN   N  II  NN   N  G    G  !!!           |
|           W    W  A    A  R    R  N N  N  II  N N  N  G       !!!           |
|           W WW W  AAAAAA  RRRRR   N  N N  II  N  N N  G  GGG   !            |
|           WW  WW  A    A  R   R   N   NN  II  N   NN  G    G                |
|           W    W  A    A  R    R  N    N  II  N    N   GGGG   !!!           |
|                                                                             |
|     Tetrahedron method does not include variations of the Fermi             |
|     occupations, so forces and stress will be inaccurate. We suggest        |
|     using a different smearing scheme ISMEAR = 1 or 2 for metals in         |
|     relaxations.                                                            |
|                                                                             |
 -----------------------------------------------------------------------------

    4ORBIT:  cpu time      0.0000: real time      0.0000



 total charge

# of ion       s       p       d       tot
------------------------------------------
    1        0.340   6.291   6.059  12.690
    2        0.340   6.291   6.059  12.690
    3        0.340   6.291   6.059  12.690
    4        0.340   6.291   6.059  12.690
    5        0.340   6.291   6.059  12.690
    6        0.340   6.291   6.059  12.690
    7        0.340   6.291   6.059  12.690
    8        0.340   6.291   6.059  12.690
    9        1.487   2.264   0.051   3.802
   10        1.487   2.264   0.051   3.802
   11        1.487   2.264   0.051   3.802
   12        1.487   2.264   0.051   3.802
   13        1.487   2.264   0.051   3.802
   14        1.487   2.264   0.051   3.802
   15        1.487   2.264   0.051   3.802
   16        1.487   2.264   0.051   3.802
--------------------------------------------------
tot         14.621  68.441  48.876 131.937



 magnetization (x)

# of ion       s       p       d       tot
------------------------------------------
    1        0.028   0.012   2.559   2.599
    2       -0.028  -0.012  -2.559  -2.599
    3       -0.028  -0.012  -2.559  -2.599
    4        0.028   0.012   2.559   2.599
    5        0.028   0.012   2.559   2.599
    6       -0.028  -0.012  -2.559  -2.599
    7       -0.028  -0.012  -2.559  -2.599
    8        0.028   0.012   2.559   2.599
    9        0.000   0.000   0.000   0.000
   10        0.000   0.000   0.000   0.000
   11        0.000   0.000   0.000   0.000
   12        0.000   0.000   0.000   0.000
   13        0.000   0.000   0.000   0.000
   14        0.000   0.000   0.000   0.000
   15        0.000   0.000   0.000   0.000
   16        0.000   0.000   0.000   0.000
--------------------------------------------------
tot          0.000   0.000  -0.000  -0.000
 
 BZINTS: Fermi energy:    3.583626;  160.000000 electrons
         Band energy:-0.245480E+04;  BLOECHL correction:   -0.012258

 total amount of memory used by VASP MPI-rank0   190410. kBytes
=======================================================================

   base      :      30000. kBytes
   nonlr-proj:      13621. kBytes
   fftplans  :       3084. kBytes
   grid      :      19560. kBytes
   one-center:        497. kBytes
   wavefun   :     123648. kBytes
 
  
  
 General timing and accounting informations for this job:
 ========================================================
  
                  Total CPU time used (sec):      500.833
                            User time (sec):      498.422
                          System time (sec):        2.410
                         Elapsed time (sec):      504.981
  
                   Maximum memory used (kb):      481024.
                   Average memory used (kb):          N/A
  
                          Minor page faults:       197578
                          Major page faults:            0
                 Voluntary context switches:        35992
