unknown system                          
           1
     4.839876   -5.787816    0.000000
     4.839876    5.787816    0.000000
     0.000000    0.000000    5.693925
   Fe   Se
     8     8
unknown system                          
           1
     4.839876   -5.787816    0.000000
     4.839876    5.787816    0.000000
     0.000000    0.000000    5.693925
   Fe   Se
     8     8
Direct configuration=     1
   0.00000000  0.00000000  0.00000000
   0.00000000  0.50000000  0.00000000
   0.50000000  0.00000000  0.00000000
   0.50000000  0.50000000  0.00000000
   0.25000000  0.25000000  0.00000000
   0.25000000  0.75000000  0.00000000
   0.75000000  0.25000000  0.00000000
   0.75000000  0.75000000  0.00000000
   0.37500000  0.12500000  0.68646077
   0.37500000  0.62500000  0.68646077
   0.87500000  0.12500000  0.68646077
   0.87500000  0.62500000  0.68646077
   0.12500000  0.37500000  0.31353923
   0.12500000  0.87500000  0.31353923
   0.62500000  0.37500000  0.31353923
   0.62500000  0.87500000  0.31353923
