 running   24 mpi-ranks, on    1 nodes
 distrk:  each k-point on   24 cores,    1 groups
 distr:  one band on    1 cores,   24 groups
 vasp.6.4.1 05Apr23 (build Jun 01 2023 13:46:15) complex                        
  
 POSCAR found type information on POSCAR FeSe
 POSCAR found :  2 types and      16 ions
 Reading from existing POTCAR
 scaLAPACK will be used
 -----------------------------------------------------------------------------
|                                                                             |
|           W    W    AA    RRRRR   N    N  II  N    N   GGGG   !!!           |
|           W    W   A  A   R    R  NN   N  II  NN   N  G    G  !!!           |
|           W    W  A    A  R    R  N N  N  II  N N  N  G       !!!           |
|           W WW W  AAAAAA  RRRRR   N  N N  II  N  N N  G  GGG   !            |
|           WW  WW  A    A  R   R   N   NN  II  N   NN  G    G                |
|           W    W  A    A  R    R  N    N  II  N    N   GGGG   !!!           |
|                                                                             |
|     For optimal performance we recommend to set                             |
|       NCORE = 2 up to number-of-cores-per-socket                            |
|     NCORE specifies how many cores store one orbital (NPAR=cpu/NCORE).      |
|     This setting can greatly improve the performance of VASP for DFT.       |
|     The default, NCORE=1 might be grossly inefficient on modern             |
|     multi-core architectures or massively parallel machines. Do your        |
|     own testing! More info at https://www.vasp.at/wiki/index.php/NCORE      |
|     Unfortunately you need to use the default for GW and RPA                |
|     calculations (for HF NCORE is supported but not extensively tested      |
|     yet).                                                                   |
|                                                                             |
 -----------------------------------------------------------------------------

 Reading from existing POTCAR
 LDA part: xc-table for Pade appr. of Perdew
 POSCAR, INCAR and KPOINTS ok, starting setup
 FFT: planning ... GRIDC
 FFT: planning ... GRID_SOFT
 FFT: planning ... GRID
 WAVECAR not read
 WARNING: random wavefunctions but no delay for mixing, default for NELMDL
 entering main loop
       N       E                     dE             d eps       ncg     rms          rms(c)
DAV:   1     0.195755801843E+04    0.19576E+04   -0.90516E+04 94440   0.204E+03
DAV:   2     0.945393162903E+02   -0.18630E+04   -0.18300E+04 85080   0.579E+02
DAV:   3    -0.940904222623E+02   -0.18863E+03   -0.18253E+03124968   0.183E+02
DAV:   4    -0.104994496427E+03   -0.10904E+02   -0.10852E+02120360   0.456E+01
DAV:   5    -0.105309201557E+03   -0.31471E+00   -0.31436E+00113616   0.732E+00    0.258E+01
RMM:   6    -0.112424443173E+03   -0.71152E+01   -0.13396E+02 85509   0.812E+01    0.383E+01
RMM:   7    -0.966166903770E+02    0.15808E+02   -0.36039E+01 85054   0.471E+01    0.118E+01
RMM:   8    -0.994665641398E+02   -0.28499E+01   -0.74744E+00 97537   0.137E+01    0.265E+01
RMM:   9    -0.960012677655E+02    0.34653E+01   -0.55739E+00 94407   0.130E+01    0.196E+00
RMM:  10    -0.962171329404E+02   -0.21587E+00   -0.19117E+00138412   0.395E+00    0.371E+00
RMM:  11    -0.962193658884E+02   -0.22329E-02   -0.26248E-01135951   0.143E+00    0.275E+00
RMM:  12    -0.962288487477E+02   -0.94829E-02   -0.49859E-02128169   0.709E-01    0.283E+00
RMM:  13    -0.961651517421E+02    0.63697E-01   -0.50825E-02121404   0.105E+00    0.134E+00
RMM:  14    -0.961761280218E+02   -0.10976E-01   -0.28704E-01156298   0.265E+00    0.122E+00
RMM:  15    -0.961761422979E+02   -0.14276E-04   -0.82880E-02129572   0.162E+00    0.149E+00
RMM:  16    -0.961617826943E+02    0.14360E-01   -0.95779E-03106388   0.538E-01    0.636E-01
RMM:  17    -0.961617101277E+02    0.72567E-04   -0.18633E-02124589   0.620E-01    0.454E-01
RMM:  18    -0.961615222030E+02    0.18792E-03   -0.38018E-03 89279   0.372E-01    0.237E-01
RMM:  19    -0.961615586132E+02   -0.36410E-04   -0.57140E-03108877   0.373E-01    0.201E-01
RMM:  20    -0.961617605843E+02   -0.20197E-03   -0.14723E-03 85020   0.147E-01    0.159E-01
RMM:  21    -0.961617012831E+02    0.59301E-04   -0.72940E-04 67320   0.148E-01
   1 F= -.10144049E+03 E0= -.10144049E+03  d E =0.000000E+00  mag=     0.0000
 -----------------------------------------------------------------------------
|                                                                             |
|           W    W    AA    RRRRR   N    N  II  N    N   GGGG   !!!           |
|           W    W   A  A   R    R  NN   N  II  NN   N  G    G  !!!           |
|           W    W  A    A  R    R  N N  N  II  N N  N  G       !!!           |
|           W WW W  AAAAAA  RRRRR   N  N N  II  N  N N  G  GGG   !            |
|           WW  WW  A    A  R   R   N   NN  II  N   NN  G    G                |
|           W    W  A    A  R    R  N    N  II  N    N   GGGG   !!!           |
|                                                                             |
|     Tetrahedron method does not include variations of the Fermi             |
|     occupations, so forces and stress will be inaccurate. We suggest        |
|     using a different smearing scheme ISMEAR = 1 or 2 for metals in         |
|     relaxations.                                                            |
|                                                                             |
 -----------------------------------------------------------------------------

