       N       E                     dE             d eps       ncg     rms          rms(c)
DAV:   1     0.189768303171E+04    0.18977E+04   -0.72468E+04 79008   0.185E+03
DAV:   2     0.143140231761E+03   -0.17545E+04   -0.16504E+04 71680   0.541E+02
DAV:   3    -0.838997120448E+02   -0.22704E+03   -0.18435E+03 73472   0.206E+02
DAV:   4    -0.961027414142E+02   -0.12203E+02   -0.11971E+02 80080   0.562E+01
DAV:   5    -0.963042871751E+02   -0.20155E+00   -0.20146E+00 96376   0.694E+00    0.419E+01
DAV:   6    -0.957899671845E+02    0.51432E+00   -0.39150E+01 95544   0.812E+01    0.604E+01
DAV:   7    -0.847623595976E+02    0.11028E+02   -0.27609E+01 87152   0.613E+01    0.303E+01
DAV:   8    -0.916331761007E+02   -0.68708E+01   -0.18597E+01 86112   0.630E+01    0.451E+01
DAV:   9    -0.859650525698E+02    0.56681E+01   -0.76590E+00 88040   0.417E+01    0.322E+01
DAV:  10    -0.864129877635E+02   -0.44794E+00   -0.38295E+00 83896   0.242E+01    0.268E+01
DAV:  11    -0.872025411671E+02   -0.78955E+00   -0.27150E+00 84248   0.237E+01    0.126E+01
DAV:  12    -0.874750736723E+02   -0.27253E+00   -0.22251E+00 85528   0.182E+01    0.121E+01
DAV:  13    -0.872425131605E+02    0.23256E+00   -0.11529E+00 85520   0.129E+01    0.529E+00
DAV:  14    -0.871687768960E+02    0.73736E-01   -0.22817E-01 87096   0.571E+00    0.301E+00
DAV:  15    -0.871766849014E+02   -0.79080E-02   -0.26738E-01 82712   0.626E+00    0.331E+00
DAV:  16    -0.871578419501E+02    0.18843E-01   -0.29166E-01 82040   0.542E+00    0.259E+00
DAV:  17    -0.871490766181E+02    0.87653E-02   -0.10303E-01 89752   0.339E+00    0.133E+00
DAV:  18    -0.871426310446E+02    0.64456E-02   -0.26723E-02 87608   0.184E+00    0.520E-01
DAV:  19    -0.871431648927E+02   -0.53385E-03   -0.54510E-03 80992   0.898E-01    0.332E-01
DAV:  20    -0.871430889957E+02    0.75897E-04   -0.37652E-03 87520   0.608E-01    0.342E-01
DAV:  21    -0.871429655197E+02    0.12348E-03   -0.94315E-04 81544   0.349E-01    0.758E-02
DAV:  22    -0.871430047651E+02   -0.39245E-04   -0.16081E-04 79952   0.874E-02    0.557E-02
DAV:  23    -0.871430121368E+02   -0.73718E-05   -0.24387E-05 73328   0.575E-02    0.308E-02
DAV:  24    -0.871430184235E+02   -0.62866E-05   -0.12993E-05 51032   0.274E-02    0.173E-02
DAV:  25    -0.871430128042E+02    0.56193E-05   -0.36683E-06 39384   0.160E-02    0.152E-02
DAV:  26    -0.871430130215E+02   -0.21726E-06   -0.13952E-06 38928   0.125E-02
   1 F= -.87143013E+02 E0= -.87143013E+02  d E =0.000000E+00  mag=    13.4923
