 vasp.6.4.2 20Jul23 (build Aug 05 2024 17:09:17) complex                        
  
 executed on             LinuxIFC date 2025.05.27  03:12:17
 running   24 mpi-ranks, with    1 threads/rank, on    1 nodes
 distrk:  each k-point on   24 cores,    1 groups
 distr:  one band on NCORE=   3 cores,    8 groups


--------------------------------------------------------------------------------------------------------


 INCAR:
   SYSTEM = metalsystem
   EDIFF = 5E-6
   SIGMA = 0.2
   ISPIN = 2
   VOSKOWN = 1
   MAGMOM = 12*3
   LWAVE = .FALSE.
   ISIF = 2
   ISMEAR = -5
   NSW = 1
   IBRION = -1
   PREC = High
   NEDOS = 2000
   NPAR = 8
   LCHARG = .TRUE.
   AMIX = 0.2
   BMIX = 0.0001
   AMIX_MAG = 0.2
   BMIX_MAG = 0.0001

 POTCAR:   PAW Co 03Mar1998                       
 POTCAR:   PAW Ni_pv 19Apr2000                    
 POTCAR:   PAW Co 03Mar1998                       
   VRHFIN =Co: d8 s1                                                                                
   LEXCH  = CA                                                                                      
   EATOM  =   816.9490 eV,   60.0441 Ry                                                             
                                                                                                    
   TITEL  = PAW Co 03Mar1998                                                                        
   LULTRA =        F    use ultrasoft PP ?                                                          
   IUNSCR =        1    unscreen: 0-lin 1-nonlin 2-no                                               
   RPACOR =    2.000    partial core radius                                                         
   POMASS =   58.933; ZVAL   =    9.000    mass and valenz                                          
   RCORE  =    2.300    outmost cutoff radius                                                       
   RWIGS  =    2.460; RWIGS  =    1.302    wigner-seitz radius (au A)                               
   ENMAX  =  268.056; ENMIN  =  201.042 eV                                                          
   RCLOC  =    1.697    cutoff for local pot                                                        
   LCOR   =        T    correct aug charges                                                         
   LPAW   =        T    paw PP                                                                      
   EAUG   =  477.818                                                                                
   DEXC   =    -.013                                                                                
   RMAX   =    2.816    core radius for proj-oper                                                   
   RAUG   =    1.300    factor for augmentation sphere                                              
   RDEP   =    2.393    core radius for depl-charge                                                 
   QCUT   =   -4.439; QGAM   =    8.877    optimization parameters                                  
                                                                                                    
   Description                                                                                      
     l     E      TYP  RCUT    TYP  RCUT                                                            
     2   .000     23  2.300                                                                         
     2   .000     23  2.300                                                                         
     0   .000     23  2.300                                                                         
     0   .000     23  2.300                                                                         
     1  -.200     23  2.300                                                                         
     1   .000     23  2.300                                                                         
     3   .000      7   .000                                                                         
  local pseudopotential read in
  partial core-charges read in
  atomic valenz-charges read in
  non local Contribution for L=           2  read in
    real space projection operators read in
  non local Contribution for L=           2  read in
    real space projection operators read in
  non local Contribution for L=           0  read in
    real space projection operators read in
  non local Contribution for L=           0  read in
    real space projection operators read in
  non local Contribution for L=           1  read in
    real space projection operators read in
  non local Contribution for L=           1  read in
    real space projection operators read in
    PAW grid and wavefunctions read in
 
   number of l-projection  operators is LMAX  =           6
   number of lm-projection operators is LMMAX =          18
 
 POTCAR:   PAW Ni_pv 19Apr2000                    
   VRHFIN =Ni:                                                                                      
   LEXCH  = CA                                                                                      
   EATOM  =  3504.8643 eV,  257.6003 Ry                                                             
                                                                                                    
   TITEL  = PAW Ni_pv 19Apr2000                                                                     
   LULTRA =        F    use ultrasoft PP ?                                                          
   IUNSCR =        1    unscreen: 0-lin 1-nonlin 2-no                                               
   RPACOR =    1.500    partial core radius                                                         
   POMASS =   58.690; ZVAL   =   16.000    mass and valenz                                          
   RCORE  =    2.000    outmost cutoff radius                                                       
   RWIGS  =    2.000; RWIGS  =    1.058    wigner-seitz radius (au A)                               
   ENMAX  =  367.726; ENMIN  =  275.795 eV                                                          
   RCLOC  =    1.301    cutoff for local pot                                                        
   LCOR   =        T    correct aug charges                                                         
   LPAW   =        T    paw PP                                                                      
   EAUG   =  703.443                                                                                
   DEXC   =    -.002                                                                                
   RMAX   =    2.404    core radius for proj-oper                                                   
   RAUG   =    1.300    factor for augmentation sphere                                              
   RDEP   =    2.103    core radius for depl-charge                                                 
   QCUT   =   -5.199; QGAM   =   10.398    optimization parameters                                  
                                                                                                    
   Description                                                                                      
     l     E      TYP  RCUT    TYP  RCUT                                                            
     1   .000     23  1.700                                                                         
     1  -.100     23  1.700                                                                         
     2   .000     23  2.000                                                                         
     2   .000     23  2.000                                                                         
     0   .000     23  1.900                                                                         
     0   .000     23  1.900                                                                         
     3   .000      7   .000                                                                         
  local pseudopotential read in
  partial core-charges read in
  atomic valenz-charges read in
  non local Contribution for L=           1  read in
    real space projection operators read in
  non local Contribution for L=           1  read in
    real space projection operators read in
  non local Contribution for L=           2  read in
    real space projection operators read in
  non local Contribution for L=           2  read in
    real space projection operators read in
  non local Contribution for L=           0  read in
    real space projection operators read in
  non local Contribution for L=           0  read in
    real space projection operators read in
    PAW grid and wavefunctions read in
 
   number of l-projection  operators is LMAX  =           6
   number of lm-projection operators is LMMAX =          18
 
 PAW Co 03Mar1998                       :
 energy of atom  1       EATOM= -816.9490
 kinetic energy error for atom=    0.0033 (will be added to EATOM!!)
 PAW Ni_pv 19Apr2000                    :
 energy of atom  2       EATOM=-3504.8643
 kinetic energy error for atom=    0.0893 (will be added to EATOM!!)
 
 
 POSCAR: CoNiV
  positions in direct lattice
  velocities in cartesian coordinates
 exchange correlation table for  LEXCH =        2
   RHO(1)=    0.500       N(1)  =     2000
   RHO(2)=  100.500       N(2)  =     4000

 VTST: version 4.1, (05/19/21)

 CHAIN: initializing optimizer
 
 OPT: Using VASP Dynamics algorithm
 CHAIN: Read ICHAIN            0
 
 POSCAR: CoNiV
  positions in direct lattice
  velocities in cartesian coordinates
 


--------------------------------------------------------------------------------------------------------


 ion  position               nearest neighbor table
   1  0.835  0.250  0.339-   3 2.44   5 2.46   6 2.46   2 2.48   2 2.48  12 2.49  11 2.49  11 2.50
                            12 2.50  10 2.53   9 2.53   7 2.53
   2  0.835  0.750  0.339-   4 2.44   5 2.46   6 2.46   1 2.48   1 2.48  12 2.49  11 2.49  11 2.50
                            12 2.50  10 2.53   9 2.53   8 2.53
   3  0.164  0.250  0.664-   1 2.44  11 2.47  12 2.47   5 2.48   6 2.48   4 2.48   4 2.48  10 2.50
                             9 2.50   6 2.51   5 2.51   7 2.51
   4  0.164  0.750  0.664-   2 2.44  11 2.47  12 2.47   5 2.48   6 2.48   3 2.48   3 2.48  10 2.50
                             9 2.50   6 2.51   5 2.51   8 2.51
   5  0.668  0.000  0.664-   1 2.46   2 2.46  11 2.47   4 2.48   3 2.48   6 2.48   6 2.48   9 2.49
                             8 2.50   7 2.50   3 2.51   4 2.51
   6  0.668  0.500  0.664-   1 2.46   2 2.46  12 2.47   4 2.48   3 2.48   5 2.48   5 2.48  10 2.49
                             8 2.50   7 2.50   3 2.51   4 2.51
   7  0.501  0.250  0.999-   8 2.48   8 2.48  10 2.49   9 2.49   9 2.50  10 2.50   5 2.50   6 2.50
                             3 2.51  12 2.52  11 2.52   1 2.53
   8  0.501  0.750  0.999-   7 2.48   7 2.48  10 2.49   9 2.49   9 2.50  10 2.50   5 2.50   6 2.50
                             4 2.51  12 2.52  11 2.52   2 2.53
   9  1.000  0.000  0.999-  10 2.48  10 2.48   7 2.49   8 2.49   5 2.49   8 2.50   7 2.50   4 2.50
                             3 2.50  11 2.51   1 2.53   2 2.53
  10  1.000  0.500  0.999-   9 2.48   9 2.48   7 2.49   8 2.49   6 2.49   8 2.50   7 2.50   4 2.50
                             3 2.50  12 2.51   1 2.53   2 2.53
  11  0.333  0.000  0.336-   3 2.47   4 2.47   5 2.47  12 2.48  12 2.48   2 2.49   1 2.49   2 2.50
                             1 2.50   9 2.51   8 2.52   7 2.52
  12  0.333  0.500  0.336-   3 2.47   4 2.47   6 2.47  11 2.48  11 2.48   2 2.49   1 2.49   2 2.50
                             1 2.50  10 2.51   8 2.52   7 2.52
 
  LATTYP: Found a simple monoclinic cell.
 ALAT       =     4.3272631991
 B/A-ratio  =     1.1477658778
 C/A-ratio  =     1.4134684200
 COS(beta)  =    -0.0036558134
  
  Lattice vectors:
  
 A1 = (   4.3272559868,   0.0000000000,  -0.0079005996)
 A2 = (   0.0000000000,   4.9666850440,   0.0000000000)
 A3 = (  -0.0111933889,   0.0000000000,   6.1164396346)


Analysis of symmetry for initial positions (statically):
=====================================================================
 Subroutine PRICEL returns following result:
 
  LATTYP: Found a simple monoclinic cell.
 ALAT       =     4.3272631991
 B/A-ratio  =     0.5738829389
 C/A-ratio  =     1.4134684200
 COS(beta)  =    -0.0036558134
  
  Lattice vectors:
  
 A1 = (   4.3272559868,   0.0000000000,  -0.0079005996)
 A2 = (   0.0000000000,   2.4833425220,   0.0000000000)
 A3 = (  -0.0111933889,   0.0000000000,   6.1164396346)
 
   2 primitive cells build up your supercell.
 

 Routine SETGRP: Setting up the symmetry group for a 
 simple monoclinic supercell.


 Subroutine GETGRP returns: Found  2 space group operations
 (whereof  2 operations were pure point group operations)
 out of a pool of  4 trial point group operations.


The static configuration has the point symmetry C_1h.


Analysis of symmetry for dynamics (positions and initial velocities):
=====================================================================
 Subroutine PRICEL returns following result:
 
  LATTYP: Found a simple monoclinic cell.
 ALAT       =     4.3272631991
 B/A-ratio  =     0.5738829389
 C/A-ratio  =     1.4134684200
 COS(beta)  =    -0.0036558134
  
  Lattice vectors:
  
 A1 = (   4.3272559868,   0.0000000000,  -0.0079005996)
 A2 = (   0.0000000000,   2.4833425220,   0.0000000000)
 A3 = (  -0.0111933889,   0.0000000000,   6.1164396346)
 
   2 primitive cells build up your supercell.
 

 Routine SETGRP: Setting up the symmetry group for a 
 simple monoclinic supercell.


 Subroutine GETGRP returns: Found  2 space group operations
 (whereof  2 operations were pure point group operations)
 out of a pool of  4 trial point group operations.


The dynamic configuration has the point symmetry C_1h.


Analysis of structural, dynamic, and magnetic symmetry:
=====================================================================
 Subroutine PRICEL returns following result:
 
  LATTYP: Found a simple monoclinic cell.
 ALAT       =     4.3272631991
 B/A-ratio  =     0.5738829389
 C/A-ratio  =     1.4134684200
 COS(beta)  =    -0.0036558134
  
  Lattice vectors:
  
 A1 = (   4.3272559868,   0.0000000000,  -0.0079005996)
 A2 = (   0.0000000000,   2.4833425220,   0.0000000000)
 A3 = (  -0.0111933889,   0.0000000000,   6.1164396346)
 
   2 primitive cells build up your supercell.
 

 Routine SETGRP: Setting up the symmetry group for a 
 simple monoclinic supercell.


 Subroutine GETGRP returns: Found  2 space group operations
 (whereof  2 operations were pure point group operations)
 out of a pool of  4 trial point group operations.


The overall configuration has the point symmetry C_1h.


 Subroutine INISYM returns: Found  2 space group operations
 (whereof  2 operations are pure point group operations),
 and found     2 'primitive' translations


----------------------------------------------------------------------------------------

                                     Primitive cell                                     

  volume of cell :      65.7274

  direct lattice vectors                    reciprocal lattice vectors
     4.327255987  0.000000000 -0.007900600     0.231094103  0.000000000  0.000422914
     0.000000000  2.483342522  0.000000000     0.000000000  0.402683074  0.000000000
    -0.011193389  0.000000000  6.116439635     0.000298504  0.000000000  0.163494353

  length of vectors
     4.327263199  2.483342522  6.116449877     0.231094490  0.402683074  0.163494626

  position of ions in fractional coordinates (direct lattice)
     0.834552003  0.500000000  0.338599873
     0.164349324  0.500000000  0.663618442
     0.667549703  0.000000000  0.664481841
     0.500751135  0.500000000  0.998593527
     0.999720097  0.000000000  0.998566225
     0.333077738  0.000000000  0.336140091

  ion indices of the primitive-cell ions
   primitive index   ion index
                 1           1
                 2           3
                 3           5
                 4           7
                 5           9
                 6          11

----------------------------------------------------------------------------------------

 
 
 KPOINTS: fcc-kp                                  

Automatic generation of k-mesh.
 Grid dimensions derived from RKLEN:
 generate k-points for:    9    8    7

 Generating k-lattice:

  Cartesian coordinates                     Fractional coordinates (reciprocal lattice)
     0.025677123  0.000000000  0.000046990     0.111111111  0.000000000 -0.000000000
     0.000000000  0.025167692  0.000000000     0.000000000  0.125000000  0.000000000
     0.000042643  0.000000000  0.023356336    -0.000000000  0.000000000  0.142857143

  Length of vectors
     0.025677166  0.025167692  0.023356375

  Shift w.r.t. Gamma in fractional coordinates (k-lattice)
     0.000000000  0.000000000  0.000000000

 TETIRR: Found   1500 inequivalent tetrahedra from     3024
 
 Subroutine IBZKPT returns following result:
 ===========================================
 
 Found    160 irreducible k-points:
 
 Following reciprocal coordinates:
            Coordinates               Weight
  0.000000  0.000000  0.000000      1.000000
  0.111111  0.000000  0.000000      2.000000
  0.222222  0.000000  0.000000      2.000000
  0.333333  0.000000  0.000000      2.000000
  0.444444  0.000000  0.000000      2.000000
  0.000000  0.125000  0.000000      2.000000
  0.111111  0.125000  0.000000      4.000000
  0.222222  0.125000  0.000000      4.000000
  0.333333  0.125000  0.000000      4.000000
  0.444444  0.125000  0.000000      4.000000
  0.000000  0.250000  0.000000      2.000000
  0.111111  0.250000  0.000000      4.000000
  0.222222  0.250000  0.000000      4.000000
  0.333333  0.250000  0.000000      4.000000
  0.444444  0.250000  0.000000      4.000000
  0.000000  0.375000  0.000000      2.000000
  0.111111  0.375000  0.000000      4.000000
  0.222222  0.375000  0.000000      4.000000
  0.333333  0.375000  0.000000      4.000000
  0.444444  0.375000  0.000000      4.000000
  0.000000  0.500000  0.000000      1.000000
  0.111111  0.500000  0.000000      2.000000
  0.222222  0.500000  0.000000      2.000000
  0.333333  0.500000  0.000000      2.000000
  0.444444  0.500000  0.000000      2.000000
  0.000000  0.000000  0.142857      2.000000
  0.111111  0.000000  0.142857      2.000000
  0.222222  0.000000  0.142857      2.000000
  0.333333  0.000000  0.142857      2.000000
  0.444444  0.000000  0.142857      2.000000
 -0.444444  0.000000  0.142857      2.000000
 -0.333333  0.000000  0.142857      2.000000
 -0.222222  0.000000  0.142857      2.000000
 -0.111111  0.000000  0.142857      2.000000
  0.000000  0.125000  0.142857      4.000000
  0.111111  0.125000  0.142857      4.000000
  0.222222  0.125000  0.142857      4.000000
  0.333333  0.125000  0.142857      4.000000
  0.444444  0.125000  0.142857      4.000000
 -0.444444  0.125000  0.142857      4.000000
 -0.333333  0.125000  0.142857      4.000000
 -0.222222  0.125000  0.142857      4.000000
 -0.111111  0.125000  0.142857      4.000000
  0.000000  0.250000  0.142857      4.000000
  0.111111  0.250000  0.142857      4.000000
  0.222222  0.250000  0.142857      4.000000
  0.333333  0.250000  0.142857      4.000000
  0.444444  0.250000  0.142857      4.000000
 -0.444444  0.250000  0.142857      4.000000
 -0.333333  0.250000  0.142857      4.000000
 -0.222222  0.250000  0.142857      4.000000
 -0.111111  0.250000  0.142857      4.000000
  0.000000  0.375000  0.142857      4.000000
  0.111111  0.375000  0.142857      4.000000
  0.222222  0.375000  0.142857      4.000000
  0.333333  0.375000  0.142857      4.000000
  0.444444  0.375000  0.142857      4.000000
 -0.444444  0.375000  0.142857      4.000000
 -0.333333  0.375000  0.142857      4.000000
 -0.222222  0.375000  0.142857      4.000000
 -0.111111  0.375000  0.142857      4.000000
  0.000000  0.500000  0.142857      2.000000
  0.111111  0.500000  0.142857      2.000000
  0.222222  0.500000  0.142857      2.000000
  0.333333  0.500000  0.142857      2.000000
  0.444444  0.500000  0.142857      2.000000
 -0.444444  0.500000  0.142857      2.000000
 -0.333333  0.500000  0.142857      2.000000
 -0.222222  0.500000  0.142857      2.000000
 -0.111111  0.500000  0.142857      2.000000
  0.000000  0.000000  0.285714      2.000000
  0.111111  0.000000  0.285714      2.000000
  0.222222  0.000000  0.285714      2.000000
  0.333333  0.000000  0.285714      2.000000
  0.444444  0.000000  0.285714      2.000000
 -0.444444  0.000000  0.285714      2.000000
 -0.333333  0.000000  0.285714      2.000000
 -0.222222  0.000000  0.285714      2.000000
 -0.111111  0.000000  0.285714      2.000000
  0.000000  0.125000  0.285714      4.000000
  0.111111  0.125000  0.285714      4.000000
  0.222222  0.125000  0.285714      4.000000
  0.333333  0.125000  0.285714      4.000000
  0.444444  0.125000  0.285714      4.000000
 -0.444444  0.125000  0.285714      4.000000
 -0.333333  0.125000  0.285714      4.000000
 -0.222222  0.125000  0.285714      4.000000
 -0.111111  0.125000  0.285714      4.000000
  0.000000  0.250000  0.285714      4.000000
  0.111111  0.250000  0.285714      4.000000
  0.222222  0.250000  0.285714      4.000000
  0.333333  0.250000  0.285714      4.000000
  0.444444  0.250000  0.285714      4.000000
 -0.444444  0.250000  0.285714      4.000000
 -0.333333  0.250000  0.285714      4.000000
 -0.222222  0.250000  0.285714      4.000000
 -0.111111  0.250000  0.285714      4.000000
  0.000000  0.375000  0.285714      4.000000
  0.111111  0.375000  0.285714      4.000000
  0.222222  0.375000  0.285714      4.000000
  0.333333  0.375000  0.285714      4.000000
  0.444444  0.375000  0.285714      4.000000
 -0.444444  0.375000  0.285714      4.000000
 -0.333333  0.375000  0.285714      4.000000
 -0.222222  0.375000  0.285714      4.000000
 -0.111111  0.375000  0.285714      4.000000
  0.000000  0.500000  0.285714      2.000000
  0.111111  0.500000  0.285714      2.000000
  0.222222  0.500000  0.285714      2.000000
  0.333333  0.500000  0.285714      2.000000
  0.444444  0.500000  0.285714      2.000000
 -0.444444  0.500000  0.285714      2.000000
 -0.333333  0.500000  0.285714      2.000000
 -0.222222  0.500000  0.285714      2.000000
 -0.111111  0.500000  0.285714      2.000000
  0.000000  0.000000  0.428571      2.000000
  0.111111  0.000000  0.428571      2.000000
  0.222222  0.000000  0.428571      2.000000
  0.333333  0.000000  0.428571      2.000000
  0.444444  0.000000  0.428571      2.000000
 -0.444444  0.000000  0.428571      2.000000
 -0.333333  0.000000  0.428571      2.000000
 -0.222222  0.000000  0.428571      2.000000
 -0.111111  0.000000  0.428571      2.000000
  0.000000  0.125000  0.428571      4.000000
  0.111111  0.125000  0.428571      4.000000
  0.222222  0.125000  0.428571      4.000000
  0.333333  0.125000  0.428571      4.000000
  0.444444  0.125000  0.428571      4.000000
 -0.444444  0.125000  0.428571      4.000000
 -0.333333  0.125000  0.428571      4.000000
 -0.222222  0.125000  0.428571      4.000000
 -0.111111  0.125000  0.428571      4.000000
  0.000000  0.250000  0.428571      4.000000
  0.111111  0.250000  0.428571      4.000000
  0.222222  0.250000  0.428571      4.000000
  0.333333  0.250000  0.428571      4.000000
  0.444444  0.250000  0.428571      4.000000
 -0.444444  0.250000  0.428571      4.000000
 -0.333333  0.250000  0.428571      4.000000
 -0.222222  0.250000  0.428571      4.000000
 -0.111111  0.250000  0.428571      4.000000
  0.000000  0.375000  0.428571      4.000000
  0.111111  0.375000  0.428571      4.000000
  0.222222  0.375000  0.428571      4.000000
  0.333333  0.375000  0.428571      4.000000
  0.444444  0.375000  0.428571      4.000000
 -0.444444  0.375000  0.428571      4.000000
 -0.333333  0.375000  0.428571      4.000000
 -0.222222  0.375000  0.428571      4.000000
 -0.111111  0.375000  0.428571      4.000000
  0.000000  0.500000  0.428571      2.000000
  0.111111  0.500000  0.428571      2.000000
  0.222222  0.500000  0.428571      2.000000
  0.333333  0.500000  0.428571      2.000000
  0.444444  0.500000  0.428571      2.000000
 -0.444444  0.500000  0.428571      2.000000
 -0.333333  0.500000  0.428571      2.000000
 -0.222222  0.500000  0.428571      2.000000
 -0.111111  0.500000  0.428571      2.000000
 
 Following cartesian coordinates:
            Coordinates               Weight
  0.000000  0.000000  0.000000      1.000000
  0.094800  0.000000  0.000173      2.000000
  0.189600  0.000000  0.000347      2.000000
  0.284400  0.000000  0.000520      2.000000
  0.379200  0.000000  0.000694      2.000000
  0.000000  0.092919  0.000000      2.000000
  0.094800  0.092919  0.000173      4.000000
  0.189600  0.092919  0.000347      4.000000
  0.284400  0.092919  0.000520      4.000000
  0.379200  0.092919  0.000694      4.000000
  0.000000  0.185838  0.000000      2.000000
  0.094800  0.185838  0.000173      4.000000
  0.189600  0.185838  0.000347      4.000000
  0.284400  0.185838  0.000520      4.000000
  0.379200  0.185838  0.000694      4.000000
  0.000000  0.278757  0.000000      2.000000
  0.094800  0.278757  0.000173      4.000000
  0.189600  0.278757  0.000347      4.000000
  0.284400  0.278757  0.000520      4.000000
  0.379200  0.278757  0.000694      4.000000
  0.000000  0.371676  0.000000      1.000000
  0.094800  0.371676  0.000173      2.000000
  0.189600  0.371676  0.000347      2.000000
  0.284400  0.371676  0.000520      2.000000
  0.379200  0.371676  0.000694      2.000000
  0.000157  0.000000  0.086232      2.000000
  0.094957  0.000000  0.086405      2.000000
  0.189757  0.000000  0.086579      2.000000
  0.284557  0.000000  0.086752      2.000000
  0.379357  0.000000  0.086926      2.000000
 -0.379042  0.000000  0.085538      2.000000
 -0.284242  0.000000  0.085711      2.000000
 -0.189442  0.000000  0.085885      2.000000
 -0.094642  0.000000  0.086058      2.000000
  0.000157  0.092919  0.086232      4.000000
  0.094957  0.092919  0.086405      4.000000
  0.189757  0.092919  0.086579      4.000000
  0.284557  0.092919  0.086752      4.000000
  0.379357  0.092919  0.086926      4.000000
 -0.379042  0.092919  0.085538      4.000000
 -0.284242  0.092919  0.085711      4.000000
 -0.189442  0.092919  0.085885      4.000000
 -0.094642  0.092919  0.086058      4.000000
  0.000157  0.185838  0.086232      4.000000
  0.094957  0.185838  0.086405      4.000000
  0.189757  0.185838  0.086579      4.000000
  0.284557  0.185838  0.086752      4.000000
  0.379357  0.185838  0.086926      4.000000
 -0.379042  0.185838  0.085538      4.000000
 -0.284242  0.185838  0.085711      4.000000
 -0.189442  0.185838  0.085885      4.000000
 -0.094642  0.185838  0.086058      4.000000
  0.000157  0.278757  0.086232      4.000000
  0.094957  0.278757  0.086405      4.000000
  0.189757  0.278757  0.086579      4.000000
  0.284557  0.278757  0.086752      4.000000
  0.379357  0.278757  0.086926      4.000000
 -0.379042  0.278757  0.085538      4.000000
 -0.284242  0.278757  0.085711      4.000000
 -0.189442  0.278757  0.085885      4.000000
 -0.094642  0.278757  0.086058      4.000000
  0.000157  0.371676  0.086232      2.000000
  0.094957  0.371676  0.086405      2.000000
  0.189757  0.371676  0.086579      2.000000
  0.284557  0.371676  0.086752      2.000000
  0.379357  0.371676  0.086926      2.000000
 -0.379042  0.371676  0.085538      2.000000
 -0.284242  0.371676  0.085711      2.000000
 -0.189442  0.371676  0.085885      2.000000
 -0.094642  0.371676  0.086058      2.000000
  0.000315  0.000000  0.172463      2.000000
  0.095115  0.000000  0.172637      2.000000
  0.189915  0.000000  0.172810      2.000000
  0.284715  0.000000  0.172984      2.000000
  0.379515  0.000000  0.173157      2.000000
 -0.378885  0.000000  0.171769      2.000000
 -0.284085  0.000000  0.171943      2.000000
 -0.189285  0.000000  0.172116      2.000000
 -0.094485  0.000000  0.172290      2.000000
  0.000315  0.092919  0.172463      4.000000
  0.095115  0.092919  0.172637      4.000000
  0.189915  0.092919  0.172810      4.000000
  0.284715  0.092919  0.172984      4.000000
  0.379515  0.092919  0.173157      4.000000
 -0.378885  0.092919  0.171769      4.000000
 -0.284085  0.092919  0.171943      4.000000
 -0.189285  0.092919  0.172116      4.000000
 -0.094485  0.092919  0.172290      4.000000
  0.000315  0.185838  0.172463      4.000000
  0.095115  0.185838  0.172637      4.000000
  0.189915  0.185838  0.172810      4.000000
  0.284715  0.185838  0.172984      4.000000
  0.379515  0.185838  0.173157      4.000000
 -0.378885  0.185838  0.171769      4.000000
 -0.284085  0.185838  0.171943      4.000000
 -0.189285  0.185838  0.172116      4.000000
 -0.094485  0.185838  0.172290      4.000000
  0.000315  0.278757  0.172463      4.000000
  0.095115  0.278757  0.172637      4.000000
  0.189915  0.278757  0.172810      4.000000
  0.284715  0.278757  0.172984      4.000000
  0.379515  0.278757  0.173157      4.000000
 -0.378885  0.278757  0.171769      4.000000
 -0.284085  0.278757  0.171943      4.000000
 -0.189285  0.278757  0.172116      4.000000
 -0.094485  0.278757  0.172290      4.000000
  0.000315  0.371676  0.172463      2.000000
  0.095115  0.371676  0.172637      2.000000
  0.189915  0.371676  0.172810      2.000000
  0.284715  0.371676  0.172984      2.000000
  0.379515  0.371676  0.173157      2.000000
 -0.378885  0.371676  0.171769      2.000000
 -0.284085  0.371676  0.171943      2.000000
 -0.189285  0.371676  0.172116      2.000000
 -0.094485  0.371676  0.172290      2.000000
  0.000472  0.000000  0.258695      2.000000
  0.095272  0.000000  0.258868      2.000000
  0.190072  0.000000  0.259042      2.000000
  0.284872  0.000000  0.259215      2.000000
  0.379672  0.000000  0.259389      2.000000
 -0.378727  0.000000  0.258001      2.000000
 -0.283927  0.000000  0.258174      2.000000
 -0.189128  0.000000  0.258348      2.000000
 -0.094328  0.000000  0.258521      2.000000
  0.000472  0.092919  0.258695      4.000000
  0.095272  0.092919  0.258868      4.000000
  0.190072  0.092919  0.259042      4.000000
  0.284872  0.092919  0.259215      4.000000
  0.379672  0.092919  0.259389      4.000000
 -0.378727  0.092919  0.258001      4.000000
 -0.283927  0.092919  0.258174      4.000000
 -0.189128  0.092919  0.258348      4.000000
 -0.094328  0.092919  0.258521      4.000000
  0.000472  0.185838  0.258695      4.000000
  0.095272  0.185838  0.258868      4.000000
  0.190072  0.185838  0.259042      4.000000
  0.284872  0.185838  0.259215      4.000000
  0.379672  0.185838  0.259389      4.000000
 -0.378727  0.185838  0.258001      4.000000
 -0.283927  0.185838  0.258174      4.000000
 -0.189128  0.185838  0.258348      4.000000
 -0.094328  0.185838  0.258521      4.000000
  0.000472  0.278757  0.258695      4.000000
  0.095272  0.278757  0.258868      4.000000
  0.190072  0.278757  0.259042      4.000000
  0.284872  0.278757  0.259215      4.000000
  0.379672  0.278757  0.259389      4.000000
 -0.378727  0.278757  0.258001      4.000000
 -0.283927  0.278757  0.258174      4.000000
 -0.189128  0.278757  0.258348      4.000000
 -0.094328  0.278757  0.258521      4.000000
  0.000472  0.371676  0.258695      2.000000
  0.095272  0.371676  0.258868      2.000000
  0.190072  0.371676  0.259042      2.000000
  0.284872  0.371676  0.259215      2.000000
  0.379672  0.371676  0.259389      2.000000
 -0.378727  0.371676  0.258001      2.000000
 -0.283927  0.371676  0.258174      2.000000
 -0.189128  0.371676  0.258348      2.000000
 -0.094328  0.371676  0.258521      2.000000
 


--------------------------------------------------------------------------------------------------------




 Dimension of arrays:
   k-points           NKPTS =    160   k-points in BZ     NKDIM =    160   number of bands    NBANDS=    112
   number of dos      NEDOS =   2000   number of ions     NIONS =     12
   non local maximal  LDIM  =      6   non local SUM 2l+1 LMDIM =     18
   total plane-waves  NPLWV =  51840
   max r-space proj   IRMAX =      1   max aug-charges    IRDMAX=   8074
   dimension x,y,z NGX =    30 NGY =   36 NGZ =   48
   dimension x,y,z NGXF=    50 NGYF=   60 NGZF=   70
   support grid    NGXF=    50 NGYF=   60 NGZF=   70
   ions per type =               6   6
   NGX,Y,Z   is equivalent  to a cutoff of  11.53, 12.05, 13.05 a.u.
   NGXF,Y,Z  is equivalent  to a cutoff of  19.21, 20.08, 19.03 a.u.

 SYSTEM =  metalsystem                             
 POSCAR =  CoNiV                                   

 Startparameter for this run:
   NWRITE =      2    write-flag & timer
   PREC   = high      normal or accurate (medium, high low for compatibility)
   ISTART =      0    job   : 0-new  1-cont  2-samecut
   ICHARG =      2    charge: 1-file 2-atom 10-const
   ISPIN  =      2    spin polarized calculation?
   LNONCOLLINEAR =      F non collinear calculations
   LSORBIT =      F    spin-orbit coupling
   INIWAV =      1    electr: 0-lowe 1-rand  2-diag
   LASPH  =      F    aspherical Exc in radial PAW
 Electronic Relaxation 1
   ENCUT  =  459.7 eV  33.78 Ry    5.81 a.u.   7.56  8.68 10.69*2*pi/ulx,y,z
   ENINI  =  459.7     initial cutoff
   ENAUG  =  703.4 eV  augmentation charge cutoff
   NELM   =     60;   NELMIN=  2; NELMDL= -5     # of ELM steps 
   EDIFF  = 0.5E-05   stopping-criterion for ELM
   LREAL  =      F    real-space projection
   NLSPLINE    = F    spline interpolate recip. space projectors
   LCOMPAT=      F    compatible to vasp.4.4
   GGA_COMPAT  = T    GGA compatible to vasp.4.4-vasp.4.6
   LMAXPAW     = -100 max onsite density
   LMAXMIX     =    2 max onsite mixed and CHGCAR
   VOSKOWN=      1    Vosko Wilk Nusair interpolation
   ROPT   =    0.00000   0.00000
 Ionic relaxation
   EDIFFG = 0.5E-04   stopping-criterion for IOM
   NSW    =      1    number of steps for IOM
   NBLOCK =      1;   KBLOCK =      1    inner block; outer block 
   IBRION =     -1    ionic relax: 0-MD 1-quasi-New 2-CG
   NFREE  =      0    steps in history (QN), initial steepest desc. (CG)
   ISIF   =      2    stress and relaxation
   IWAVPR =     10    prediction:  0-non 1-charg 2-wave 3-comb
   ISYM   =      2    0-nonsym 1-usesym 2-fastsym
   LCORR  =      T    Harris-Foulkes like correction to forces

   POTIM  = 0.5000    time-step for ionic-motion
   TEIN   =    0.0    initial temperature
   TEBEG  =    0.0;   TEEND  =   0.0 temperature during run
   SMASS  =  -3.00    Nose mass-parameter (am)
   estimated Nose-frequenzy (Omega)   =  0.10E-29 period in steps = 0.13E+47 mass=  -0.428E-27a.u.
   SCALEE = 1.0000    scale energy and forces
   NPACO  =    256;   APACO  = 10.0  distance and # of slots for P.C.
   PSTRESS=    0.0 pullay stress

  Mass of Ions in am
   POMASS =  58.93 58.69
  Ionic Valenz
   ZVAL   =   9.00 16.00
  Atomic Wigner-Seitz radii
   RWIGS  =  -1.00 -1.00
  virtual crystal weights 
   VCA    =   1.00  1.00
   NELECT =     150.0000    total number of electrons
   NUPDOWN=      -1.0000    fix difference up-down

 DOS related values:
   EMIN   =  10.00;   EMAX   =-10.00  energy-range for DOS
   EFERMI =   0.00;   METHOD = LEGACY      
   ISMEAR =    -5;   SIGMA  =   0.20  broadening in eV -4-tet -1-fermi 0-gaus

 Electronic relaxation 2 (details)
   IALGO  =     38    algorithm
   LDIAG  =      T    sub-space diagonalisation (order eigenvalues)
   LSUBROT=      F    optimize rotation matrix (better conditioning)
   TURBO    =      0    0=normal 1=particle mesh
   IRESTART =      0    0=no restart 2=restart with 2 vectors
   NREBOOT  =      0    no. of reboots
   NMIN     =      0    reboot dimension
   EREF     =   0.00    reference energy to select bands
   IMIX   =      4    mixing-type and parameters
     AMIX     =   0.20;   BMIX     =  0.00
     AMIX_MAG =   0.20;   BMIX_MAG =  0.00
     AMIN     =   0.10
     WC   =   100.;   INIMIX=   1;  MIXPRE=   1;  MAXMIX= -45

 Intra band minimization:
   WEIMIN = 0.0000     energy-eigenvalue tresh-hold
   EBREAK =  0.11E-07  absolut break condition
   DEPER  =   0.30     relativ break condition  

   TIME   =   0.40     timestep for ELM

  volume/ion in A,a.u.               =      10.95        73.93
  Fermi-wavevector in a.u.,A,eV,Ry     =   1.710723  3.232798 39.818459  2.926574
  Thomas-Fermi vector in A             =   2.788970
 
 Write flags
   LWAVE        =      F    write WAVECAR
   LDOWNSAMPLE  =      F    k-point downsampling of WAVECAR
   LCHARG       =      T    write CHGCAR
   LVTOT        =      F    write LOCPOT, total local potential
   LVHAR        =      F    write LOCPOT, Hartree potential only
   LELF         =      F    write electronic localiz. function (ELF)
   LORBIT       =      0    0 simple, 1 ext, 2 COOP (PROOUT), +10 PAW based schemes


 Dipole corrections
   LMONO  =      F    monopole corrections only (constant potential shift)
   LDIPOL =      F    correct potential (dipole corrections)
   IDIPOL =      0    1-x, 2-y, 3-z, 4-all directions 
   EPSILON=  1.0000000 bulk dielectric constant

 Exchange correlation treatment:
   GGA     =    --    GGA type
   LEXCH   =     2    internal setting for exchange type
   LIBXC   =     F    Libxc                    
   VOSKOWN =     1    Vosko Wilk Nusair interpolation
   LHFCALC =     F    Hartree Fock is set to
   LHFONE  =     F    Hartree Fock one center treatment
   AEXX    =    0.0000 exact exchange contribution

 Linear response parameters
   LEPSILON=     F    determine dielectric tensor
   LRPA    =     F    only Hartree local field effects (RPA)
   LNABLA  =     F    use nabla operator in PAW spheres
   LVEL    =     F    velocity operator in full k-point grid
   CSHIFT  =0.1000    complex shift for real part using Kramers Kronig
   OMEGAMAX=  -1.0    maximum frequency
   DEG_THRESHOLD= 0.2000000E-02 threshold for treating states as degnerate
   RTIME   =   -0.100 relaxation time in fs
  (WPLASMAI=    0.000 imaginary part of plasma frequency in eV, 0.658/RTIME)
   DFIELD  = 0.0000000 0.0000000 0.0000000 field for delta impulse in time
 
  Optional k-point grid parameters
   LKPOINTS_OPT  =     F    use optional k-point grid
   KPOINTS_OPT_MODE=     1    mode for optional k-point grid
 
 Orbital magnetization related:
   ORBITALMAG=     F  switch on orbital magnetization
   LCHIMAG   =     F  perturbation theory with respect to B field
   DQ        =  0.001000  dq finite difference perturbation B field
   LLRAUG    =     F  two centre corrections for induced B field
   LBONE     =     F  B-component reconstruction in AE one-centre
   LVGVCALC  =     T  calculate vGv susceptibility
   LVGVAPPL  =     F  apply vGv susceptibility instead of pGv for G=0

 Random number generation:
   RANDOM_GENERATOR = DEFAULT
   PCG_SEED         = not used


--------------------------------------------------------------------------------------------------------


 Static calculation
 charge density and potential will be updated during run
 spin polarized calculation
 Variant of blocked Davidson
 Davidson routine will perform the subspace rotation
 perform sub-space diagonalisation
    after iterative eigenvector-optimisation
 modified Broyden-mixing scheme, WC =      100.0
 initial mixing is a Kerker type mixing with AMIX =  0.2000 and BMIX =      0.0001
 Hartree-type preconditioning will be used
 using additional bands           37
 reciprocal scheme for non local part
 use partial core corrections
 calculate Harris-corrections to forces 
   (improved forces if not selfconsistent)
 use of overlap-Matrix (Vanderbilt PP)
 Fermi weights with tetrahedron method with Bloechl corrections


--------------------------------------------------------------------------------------------------------


  energy-cutoff  :      459.66
  volume of cell :      131.45
      direct lattice vectors                 reciprocal lattice vectors
     4.327255987  0.000000000 -0.007900600     0.231094103  0.000000000  0.000422914
     0.000000000  4.966685044  0.000000000     0.000000000  0.201341537  0.000000000
    -0.011193389  0.000000000  6.116439635     0.000298504  0.000000000  0.163494353

  length of vectors
     4.327263199  4.966685044  6.116449877     0.231094490  0.201341537  0.163494626


 
 k-points in units of 2pi/SCALE and weight: fcc-kp                                  
   0.00000000  0.00000000  0.00000000       0.002
   0.09479994  0.00000000  0.00017349       0.004
   0.18959987  0.00000000  0.00034698       0.004
   0.28439981  0.00000000  0.00052047       0.004
   0.37919975  0.00000000  0.00069395       0.004
   0.00000000  0.09291912  0.00000000       0.004
   0.09479994  0.09291912  0.00017349       0.008
   0.18959987  0.09291912  0.00034698       0.008
   0.28439981  0.09291912  0.00052047       0.008
   0.37919975  0.09291912  0.00069395       0.008
   0.00000000  0.18583824  0.00000000       0.004
   0.09479994  0.18583824  0.00017349       0.008
   0.18959987  0.18583824  0.00034698       0.008
   0.28439981  0.18583824  0.00052047       0.008
   0.37919975  0.18583824  0.00069395       0.008
   0.00000000  0.27875736  0.00000000       0.004
   0.09479994  0.27875736  0.00017349       0.008
   0.18959987  0.27875736  0.00034698       0.008
   0.28439981  0.27875736  0.00052047       0.008
   0.37919975  0.27875736  0.00069395       0.008
   0.00000000  0.37167648  0.00000000       0.002
   0.09479994  0.37167648  0.00017349       0.004
   0.18959987  0.37167648  0.00034698       0.004
   0.28439981  0.37167648  0.00052047       0.004
   0.37919975  0.37167648  0.00069395       0.004
   0.00015744  0.00000000  0.08623159       0.004
   0.09495738  0.00000000  0.08640508       0.004
   0.18975731  0.00000000  0.08657857       0.004
   0.28455725  0.00000000  0.08675206       0.004
   0.37935719  0.00000000  0.08692555       0.004
  -0.37904231  0.00000000  0.08553764       0.004
  -0.28424237  0.00000000  0.08571113       0.004
  -0.18944243  0.00000000  0.08588462       0.004
  -0.09464250  0.00000000  0.08605810       0.004
   0.00015744  0.09291912  0.08623159       0.008
   0.09495738  0.09291912  0.08640508       0.008
   0.18975731  0.09291912  0.08657857       0.008
   0.28455725  0.09291912  0.08675206       0.008
   0.37935719  0.09291912  0.08692555       0.008
  -0.37904231  0.09291912  0.08553764       0.008
  -0.28424237  0.09291912  0.08571113       0.008
  -0.18944243  0.09291912  0.08588462       0.008
  -0.09464250  0.09291912  0.08605810       0.008
   0.00015744  0.18583824  0.08623159       0.008
   0.09495738  0.18583824  0.08640508       0.008
   0.18975731  0.18583824  0.08657857       0.008
   0.28455725  0.18583824  0.08675206       0.008
   0.37935719  0.18583824  0.08692555       0.008
  -0.37904231  0.18583824  0.08553764       0.008
  -0.28424237  0.18583824  0.08571113       0.008
  -0.18944243  0.18583824  0.08588462       0.008
  -0.09464250  0.18583824  0.08605810       0.008
   0.00015744  0.27875736  0.08623159       0.008
   0.09495738  0.27875736  0.08640508       0.008
   0.18975731  0.27875736  0.08657857       0.008
   0.28455725  0.27875736  0.08675206       0.008
   0.37935719  0.27875736  0.08692555       0.008
  -0.37904231  0.27875736  0.08553764       0.008
  -0.28424237  0.27875736  0.08571113       0.008
  -0.18944243  0.27875736  0.08588462       0.008
  -0.09464250  0.27875736  0.08605810       0.008
   0.00015744  0.37167648  0.08623159       0.004
   0.09495738  0.37167648  0.08640508       0.004
   0.18975731  0.37167648  0.08657857       0.004
   0.28455725  0.37167648  0.08675206       0.004
   0.37935719  0.37167648  0.08692555       0.004
  -0.37904231  0.37167648  0.08553764       0.004
  -0.28424237  0.37167648  0.08571113       0.004
  -0.18944243  0.37167648  0.08588462       0.004
  -0.09464250  0.37167648  0.08605810       0.004
   0.00031488  0.00000000  0.17246319       0.004
   0.09511482  0.00000000  0.17263667       0.004
   0.18991475  0.00000000  0.17281016       0.004
   0.28471469  0.00000000  0.17298365       0.004
   0.37951463  0.00000000  0.17315714       0.004
  -0.37888487  0.00000000  0.17176923       0.004
  -0.28408493  0.00000000  0.17194272       0.004
  -0.18928499  0.00000000  0.17211621       0.004
  -0.09448506  0.00000000  0.17228970       0.004
   0.00031488  0.09291912  0.17246319       0.008
   0.09511482  0.09291912  0.17263667       0.008
   0.18991475  0.09291912  0.17281016       0.008
   0.28471469  0.09291912  0.17298365       0.008
   0.37951463  0.09291912  0.17315714       0.008
  -0.37888487  0.09291912  0.17176923       0.008
  -0.28408493  0.09291912  0.17194272       0.008
  -0.18928499  0.09291912  0.17211621       0.008
  -0.09448506  0.09291912  0.17228970       0.008
   0.00031488  0.18583824  0.17246319       0.008
   0.09511482  0.18583824  0.17263667       0.008
   0.18991475  0.18583824  0.17281016       0.008
   0.28471469  0.18583824  0.17298365       0.008
   0.37951463  0.18583824  0.17315714       0.008
  -0.37888487  0.18583824  0.17176923       0.008
  -0.28408493  0.18583824  0.17194272       0.008
  -0.18928499  0.18583824  0.17211621       0.008
  -0.09448506  0.18583824  0.17228970       0.008
   0.00031488  0.27875736  0.17246319       0.008
   0.09511482  0.27875736  0.17263667       0.008
   0.18991475  0.27875736  0.17281016       0.008
   0.28471469  0.27875736  0.17298365       0.008
   0.37951463  0.27875736  0.17315714       0.008
  -0.37888487  0.27875736  0.17176923       0.008
  -0.28408493  0.27875736  0.17194272       0.008
  -0.18928499  0.27875736  0.17211621       0.008
  -0.09448506  0.27875736  0.17228970       0.008
   0.00031488  0.37167648  0.17246319       0.004
   0.09511482  0.37167648  0.17263667       0.004
   0.18991475  0.37167648  0.17281016       0.004
   0.28471469  0.37167648  0.17298365       0.004
   0.37951463  0.37167648  0.17315714       0.004
  -0.37888487  0.37167648  0.17176923       0.004
  -0.28408493  0.37167648  0.17194272       0.004
  -0.18928499  0.37167648  0.17211621       0.004
  -0.09448506  0.37167648  0.17228970       0.004
   0.00047232  0.00000000  0.25869478       0.004
   0.09527226  0.00000000  0.25886827       0.004
   0.19007219  0.00000000  0.25904176       0.004
   0.28487213  0.00000000  0.25921525       0.004
   0.37967206  0.00000000  0.25938873       0.004
  -0.37872743  0.00000000  0.25800082       0.004
  -0.28392749  0.00000000  0.25817431       0.004
  -0.18912755  0.00000000  0.25834780       0.004
  -0.09432762  0.00000000  0.25852129       0.004
   0.00047232  0.09291912  0.25869478       0.008
   0.09527226  0.09291912  0.25886827       0.008
   0.19007219  0.09291912  0.25904176       0.008
   0.28487213  0.09291912  0.25921525       0.008
   0.37967206  0.09291912  0.25938873       0.008
  -0.37872743  0.09291912  0.25800082       0.008
  -0.28392749  0.09291912  0.25817431       0.008
  -0.18912755  0.09291912  0.25834780       0.008
  -0.09432762  0.09291912  0.25852129       0.008
   0.00047232  0.18583824  0.25869478       0.008
   0.09527226  0.18583824  0.25886827       0.008
   0.19007219  0.18583824  0.25904176       0.008
   0.28487213  0.18583824  0.25921525       0.008
   0.37967206  0.18583824  0.25938873       0.008
  -0.37872743  0.18583824  0.25800082       0.008
  -0.28392749  0.18583824  0.25817431       0.008
  -0.18912755  0.18583824  0.25834780       0.008
  -0.09432762  0.18583824  0.25852129       0.008
   0.00047232  0.27875736  0.25869478       0.008
   0.09527226  0.27875736  0.25886827       0.008
   0.19007219  0.27875736  0.25904176       0.008
   0.28487213  0.27875736  0.25921525       0.008
   0.37967206  0.27875736  0.25938873       0.008
  -0.37872743  0.27875736  0.25800082       0.008
  -0.28392749  0.27875736  0.25817431       0.008
  -0.18912755  0.27875736  0.25834780       0.008
  -0.09432762  0.27875736  0.25852129       0.008
   0.00047232  0.37167648  0.25869478       0.004
   0.09527226  0.37167648  0.25886827       0.004
   0.19007219  0.37167648  0.25904176       0.004
   0.28487213  0.37167648  0.25921525       0.004
   0.37967206  0.37167648  0.25938873       0.004
  -0.37872743  0.37167648  0.25800082       0.004
  -0.28392749  0.37167648  0.25817431       0.004
  -0.18912755  0.37167648  0.25834780       0.004
  -0.09432762  0.37167648  0.25852129       0.004
 
 k-points in reciprocal lattice and weights: fcc-kp                                  
   0.00000000  0.00000000  0.00000000       0.002
   0.11111111  0.00000000  0.00000000       0.004
   0.22222222  0.00000000  0.00000000       0.004
   0.33333333  0.00000000  0.00000000       0.004
   0.44444444  0.00000000  0.00000000       0.004
   0.00000000  0.12500000  0.00000000       0.004
   0.11111111  0.12500000  0.00000000       0.008
   0.22222222  0.12500000  0.00000000       0.008
   0.33333333  0.12500000  0.00000000       0.008
   0.44444444  0.12500000  0.00000000       0.008
   0.00000000  0.25000000  0.00000000       0.004
   0.11111111  0.25000000  0.00000000       0.008
   0.22222222  0.25000000  0.00000000       0.008
   0.33333333  0.25000000  0.00000000       0.008
   0.44444444  0.25000000  0.00000000       0.008
   0.00000000  0.37500000  0.00000000       0.004
   0.11111111  0.37500000  0.00000000       0.008
   0.22222222  0.37500000  0.00000000       0.008
   0.33333333  0.37500000  0.00000000       0.008
   0.44444444  0.37500000  0.00000000       0.008
   0.00000000  0.50000000  0.00000000       0.002
   0.11111111  0.50000000  0.00000000       0.004
   0.22222222  0.50000000  0.00000000       0.004
   0.33333333  0.50000000  0.00000000       0.004
   0.44444444  0.50000000  0.00000000       0.004
   0.00000000  0.00000000  0.14285714       0.004
   0.11111111  0.00000000  0.14285714       0.004
   0.22222222  0.00000000  0.14285714       0.004
   0.33333333  0.00000000  0.14285714       0.004
   0.44444444  0.00000000  0.14285714       0.004
  -0.44444444  0.00000000  0.14285714       0.004
  -0.33333333  0.00000000  0.14285714       0.004
  -0.22222222  0.00000000  0.14285714       0.004
  -0.11111111  0.00000000  0.14285714       0.004
   0.00000000  0.12500000  0.14285714       0.008
   0.11111111  0.12500000  0.14285714       0.008
   0.22222222  0.12500000  0.14285714       0.008
   0.33333333  0.12500000  0.14285714       0.008
   0.44444444  0.12500000  0.14285714       0.008
  -0.44444444  0.12500000  0.14285714       0.008
  -0.33333333  0.12500000  0.14285714       0.008
  -0.22222222  0.12500000  0.14285714       0.008
  -0.11111111  0.12500000  0.14285714       0.008
   0.00000000  0.25000000  0.14285714       0.008
   0.11111111  0.25000000  0.14285714       0.008
   0.22222222  0.25000000  0.14285714       0.008
   0.33333333  0.25000000  0.14285714       0.008
   0.44444444  0.25000000  0.14285714       0.008
  -0.44444444  0.25000000  0.14285714       0.008
  -0.33333333  0.25000000  0.14285714       0.008
  -0.22222222  0.25000000  0.14285714       0.008
  -0.11111111  0.25000000  0.14285714       0.008
   0.00000000  0.37500000  0.14285714       0.008
   0.11111111  0.37500000  0.14285714       0.008
   0.22222222  0.37500000  0.14285714       0.008
   0.33333333  0.37500000  0.14285714       0.008
   0.44444444  0.37500000  0.14285714       0.008
  -0.44444444  0.37500000  0.14285714       0.008
  -0.33333333  0.37500000  0.14285714       0.008
  -0.22222222  0.37500000  0.14285714       0.008
  -0.11111111  0.37500000  0.14285714       0.008
   0.00000000  0.50000000  0.14285714       0.004
   0.11111111  0.50000000  0.14285714       0.004
   0.22222222  0.50000000  0.14285714       0.004
   0.33333333  0.50000000  0.14285714       0.004
   0.44444444  0.50000000  0.14285714       0.004
  -0.44444444  0.50000000  0.14285714       0.004
  -0.33333333  0.50000000  0.14285714       0.004
  -0.22222222  0.50000000  0.14285714       0.004
  -0.11111111  0.50000000  0.14285714       0.004
   0.00000000  0.00000000  0.28571429       0.004
   0.11111111  0.00000000  0.28571429       0.004
   0.22222222  0.00000000  0.28571429       0.004
   0.33333333  0.00000000  0.28571429       0.004
   0.44444444  0.00000000  0.28571429       0.004
  -0.44444444  0.00000000  0.28571429       0.004
  -0.33333333  0.00000000  0.28571429       0.004
  -0.22222222  0.00000000  0.28571429       0.004
  -0.11111111  0.00000000  0.28571429       0.004
   0.00000000  0.12500000  0.28571429       0.008
   0.11111111  0.12500000  0.28571429       0.008
   0.22222222  0.12500000  0.28571429       0.008
   0.33333333  0.12500000  0.28571429       0.008
   0.44444444  0.12500000  0.28571429       0.008
  -0.44444444  0.12500000  0.28571429       0.008
  -0.33333333  0.12500000  0.28571429       0.008
  -0.22222222  0.12500000  0.28571429       0.008
  -0.11111111  0.12500000  0.28571429       0.008
   0.00000000  0.25000000  0.28571429       0.008
   0.11111111  0.25000000  0.28571429       0.008
   0.22222222  0.25000000  0.28571429       0.008
   0.33333333  0.25000000  0.28571429       0.008
   0.44444444  0.25000000  0.28571429       0.008
  -0.44444444  0.25000000  0.28571429       0.008
  -0.33333333  0.25000000  0.28571429       0.008
  -0.22222222  0.25000000  0.28571429       0.008
  -0.11111111  0.25000000  0.28571429       0.008
   0.00000000  0.37500000  0.28571429       0.008
   0.11111111  0.37500000  0.28571429       0.008
   0.22222222  0.37500000  0.28571429       0.008
   0.33333333  0.37500000  0.28571429       0.008
   0.44444444  0.37500000  0.28571429       0.008
  -0.44444444  0.37500000  0.28571429       0.008
  -0.33333333  0.37500000  0.28571429       0.008
  -0.22222222  0.37500000  0.28571429       0.008
  -0.11111111  0.37500000  0.28571429       0.008
   0.00000000  0.50000000  0.28571429       0.004
   0.11111111  0.50000000  0.28571429       0.004
   0.22222222  0.50000000  0.28571429       0.004
   0.33333333  0.50000000  0.28571429       0.004
   0.44444444  0.50000000  0.28571429       0.004
  -0.44444444  0.50000000  0.28571429       0.004
  -0.33333333  0.50000000  0.28571429       0.004
  -0.22222222  0.50000000  0.28571429       0.004
  -0.11111111  0.50000000  0.28571429       0.004
   0.00000000  0.00000000  0.42857143       0.004
   0.11111111  0.00000000  0.42857143       0.004
   0.22222222  0.00000000  0.42857143       0.004
   0.33333333  0.00000000  0.42857143       0.004
   0.44444444  0.00000000  0.42857143       0.004
  -0.44444444  0.00000000  0.42857143       0.004
  -0.33333333  0.00000000  0.42857143       0.004
  -0.22222222  0.00000000  0.42857143       0.004
  -0.11111111  0.00000000  0.42857143       0.004
   0.00000000  0.12500000  0.42857143       0.008
   0.11111111  0.12500000  0.42857143       0.008
   0.22222222  0.12500000  0.42857143       0.008
   0.33333333  0.12500000  0.42857143       0.008
   0.44444444  0.12500000  0.42857143       0.008
  -0.44444444  0.12500000  0.42857143       0.008
  -0.33333333  0.12500000  0.42857143       0.008
  -0.22222222  0.12500000  0.42857143       0.008
  -0.11111111  0.12500000  0.42857143       0.008
   0.00000000  0.25000000  0.42857143       0.008
   0.11111111  0.25000000  0.42857143       0.008
   0.22222222  0.25000000  0.42857143       0.008
   0.33333333  0.25000000  0.42857143       0.008
   0.44444444  0.25000000  0.42857143       0.008
  -0.44444444  0.25000000  0.42857143       0.008
  -0.33333333  0.25000000  0.42857143       0.008
  -0.22222222  0.25000000  0.42857143       0.008
  -0.11111111  0.25000000  0.42857143       0.008
   0.00000000  0.37500000  0.42857143       0.008
   0.11111111  0.37500000  0.42857143       0.008
   0.22222222  0.37500000  0.42857143       0.008
   0.33333333  0.37500000  0.42857143       0.008
   0.44444444  0.37500000  0.42857143       0.008
  -0.44444444  0.37500000  0.42857143       0.008
  -0.33333333  0.37500000  0.42857143       0.008
  -0.22222222  0.37500000  0.42857143       0.008
  -0.11111111  0.37500000  0.42857143       0.008
   0.00000000  0.50000000  0.42857143       0.004
   0.11111111  0.50000000  0.42857143       0.004
   0.22222222  0.50000000  0.42857143       0.004
   0.33333333  0.50000000  0.42857143       0.004
   0.44444444  0.50000000  0.42857143       0.004
  -0.44444444  0.50000000  0.42857143       0.004
  -0.33333333  0.50000000  0.42857143       0.004
  -0.22222222  0.50000000  0.42857143       0.004
  -0.11111111  0.50000000  0.42857143       0.004
 
 position of ions in fractional coordinates (direct lattice) 
   0.83455200  0.25000000  0.33859987
   0.83455200  0.75000000  0.33859987
   0.16434932  0.25000000  0.66361844
   0.16434932  0.75000000  0.66361844
   0.66754970  0.00000000  0.66448184
   0.66754970  0.50000000  0.66448184
   0.50075114  0.25000000  0.99859353
   0.50075114  0.75000000  0.99859353
   0.99972010  0.00000000  0.99856623
   0.99972010  0.50000000  0.99856623
   0.33307774  0.00000000  0.33614009
   0.33307774  0.50000000  0.33614009
 
 position of ions in cartesian coordinates  (Angst):
   3.60753007  1.24167126  2.06443222
   3.60753007  3.72501378  2.06443222
   0.70375346  1.24167126  4.05768368
   0.70375346  3.72501378  4.05768368
   2.88122065  0.00000000  4.05898903
   2.88122065  2.48334252  4.05898903
   2.15570070  1.24167126  6.10388079
   2.15570070  3.72501378  6.10388079
   4.31486743  0.00000000  6.09977165
   4.31486743  2.48334252  6.09977165
   1.43755009  0.00000000  2.05334906
   1.43755009  2.48334252  2.05334906
 


--------------------------------------------------------------------------------------------------------


 k-point   1 :   0.0000 0.0000 0.0000  plane waves:    2977
 k-point   2 :   0.1111 0.0000 0.0000  plane waves:    2951
 k-point   3 :   0.2222 0.0000 0.0000  plane waves:    2935
 k-point   4 :   0.3333 0.0000 0.0000  plane waves:    2954
 k-point   5 :   0.4444 0.0000 0.0000  plane waves:    2948
 k-point   6 :   0.0000 0.1250 0.0000  plane waves:    2959
 k-point   7 :   0.1111 0.1250 0.0000  plane waves:    2951
 k-point   8 :   0.2222 0.1250 0.0000  plane waves:    2936
 k-point   9 :   0.3333 0.1250 0.0000  plane waves:    2930
 k-point  10 :   0.4444 0.1250 0.0000  plane waves:    2946
 k-point  11 :   0.0000 0.2500 0.0000  plane waves:    2939
 k-point  12 :   0.1111 0.2500 0.0000  plane waves:    2943
 k-point  13 :   0.2222 0.2500 0.0000  plane waves:    2943
 k-point  14 :   0.3333 0.2500 0.0000  plane waves:    2939
 k-point  15 :   0.4444 0.2500 0.0000  plane waves:    2935
 k-point  16 :   0.0000 0.3750 0.0000  plane waves:    2922
 k-point  17 :   0.1111 0.3750 0.0000  plane waves:    2939
 k-point  18 :   0.2222 0.3750 0.0000  plane waves:    2958
 k-point  19 :   0.3333 0.3750 0.0000  plane waves:    2955
 k-point  20 :   0.4444 0.3750 0.0000  plane waves:    2934
 k-point  21 :   0.0000 0.5000 0.0000  plane waves:    2946
 k-point  22 :   0.1111 0.5000 0.0000  plane waves:    2948
 k-point  23 :   0.2222 0.5000 0.0000  plane waves:    2950
 k-point  24 :   0.3333 0.5000 0.0000  plane waves:    2950
 k-point  25 :   0.4444 0.5000 0.0000  plane waves:    2948
 k-point  26 :   0.0000 0.0000 0.1429  plane waves:    2963
 k-point  27 :   0.1111 0.0000 0.1429  plane waves:    2950
 k-point  28 :   0.2222 0.0000 0.1429  plane waves:    2945
 k-point  29 :   0.3333 0.0000 0.1429  plane waves:    2947
 k-point  30 :   0.4444 0.0000 0.1429  plane waves:    2929
 k-point  31 :  -0.4444 0.0000 0.1429  plane waves:    2937
 k-point  32 :  -0.3333 0.0000 0.1429  plane waves:    2940
 k-point  33 :  -0.2222 0.0000 0.1429  plane waves:    2950
 k-point  34 :  -0.1111 0.0000 0.1429  plane waves:    2948
 k-point  35 :   0.0000 0.1250 0.1429  plane waves:    2963
 k-point  36 :   0.1111 0.1250 0.1429  plane waves:    2953
 k-point  37 :   0.2222 0.1250 0.1429  plane waves:    2944
 k-point  38 :   0.3333 0.1250 0.1429  plane waves:    2936
 k-point  39 :   0.4444 0.1250 0.1429  plane waves:    2936
 k-point  40 :  -0.4444 0.1250 0.1429  plane waves:    2932
 k-point  41 :  -0.3333 0.1250 0.1429  plane waves:    2939
 k-point  42 :  -0.2222 0.1250 0.1429  plane waves:    2939
 k-point  43 :  -0.1111 0.1250 0.1429  plane waves:    2949
 k-point  44 :   0.0000 0.2500 0.1429  plane waves:    2945
 k-point  45 :   0.1111 0.2500 0.1429  plane waves:    2948
 k-point  46 :   0.2222 0.2500 0.1429  plane waves:    2941
 k-point  47 :   0.3333 0.2500 0.1429  plane waves:    2934
 k-point  48 :   0.4444 0.2500 0.1429  plane waves:    2934
 k-point  49 :  -0.4444 0.2500 0.1429  plane waves:    2938
 k-point  50 :  -0.3333 0.2500 0.1429  plane waves:    2934
 k-point  51 :  -0.2222 0.2500 0.1429  plane waves:    2940
 k-point  52 :  -0.1111 0.2500 0.1429  plane waves:    2950
 k-point  53 :   0.0000 0.3750 0.1429  plane waves:    2929
 k-point  54 :   0.1111 0.3750 0.1429  plane waves:    2939
 k-point  55 :   0.2222 0.3750 0.1429  plane waves:    2941
 k-point  56 :   0.3333 0.3750 0.1429  plane waves:    2941
 k-point  57 :   0.4444 0.3750 0.1429  plane waves:    2939
 k-point  58 :  -0.4444 0.3750 0.1429  plane waves:    2940
 k-point  59 :  -0.3333 0.3750 0.1429  plane waves:    2944
 k-point  60 :  -0.2222 0.3750 0.1429  plane waves:    2943
 k-point  61 :  -0.1111 0.3750 0.1429  plane waves:    2938
 k-point  62 :   0.0000 0.5000 0.1429  plane waves:    2930
 k-point  63 :   0.1111 0.5000 0.1429  plane waves:    2944
 k-point  64 :   0.2222 0.5000 0.1429  plane waves:    2950
 k-point  65 :   0.3333 0.5000 0.1429  plane waves:    2938
 k-point  66 :   0.4444 0.5000 0.1429  plane waves:    2936
 k-point  67 :  -0.4444 0.5000 0.1429  plane waves:    2942
 k-point  68 :  -0.3333 0.5000 0.1429  plane waves:    2940
 k-point  69 :  -0.2222 0.5000 0.1429  plane waves:    2946
 k-point  70 :  -0.1111 0.5000 0.1429  plane waves:    2938
 k-point  71 :   0.0000 0.0000 0.2857  plane waves:    2943
 k-point  72 :   0.1111 0.0000 0.2857  plane waves:    2951
 k-point  73 :   0.2222 0.0000 0.2857  plane waves:    2951
 k-point  74 :   0.3333 0.0000 0.2857  plane waves:    2941
 k-point  75 :   0.4444 0.0000 0.2857  plane waves:    2932
 k-point  76 :  -0.4444 0.0000 0.2857  plane waves:    2934
 k-point  77 :  -0.3333 0.0000 0.2857  plane waves:    2941
 k-point  78 :  -0.2222 0.0000 0.2857  plane waves:    2952
 k-point  79 :  -0.1111 0.0000 0.2857  plane waves:    2951
 k-point  80 :   0.0000 0.1250 0.2857  plane waves:    2961
 k-point  81 :   0.1111 0.1250 0.2857  plane waves:    2951
 k-point  82 :   0.2222 0.1250 0.2857  plane waves:    2947
 k-point  83 :   0.3333 0.1250 0.2857  plane waves:    2934
 k-point  84 :   0.4444 0.1250 0.2857  plane waves:    2934
 k-point  85 :  -0.4444 0.1250 0.2857  plane waves:    2935
 k-point  86 :  -0.3333 0.1250 0.2857  plane waves:    2932
 k-point  87 :  -0.2222 0.1250 0.2857  plane waves:    2945
 k-point  88 :  -0.1111 0.1250 0.2857  plane waves:    2952
 k-point  89 :   0.0000 0.2500 0.2857  plane waves:    2955
 k-point  90 :   0.1111 0.2500 0.2857  plane waves:    2950
 k-point  91 :   0.2222 0.2500 0.2857  plane waves:    2942
 k-point  92 :   0.3333 0.2500 0.2857  plane waves:    2946
 k-point  93 :   0.4444 0.2500 0.2857  plane waves:    2925
 k-point  94 :  -0.4444 0.2500 0.2857  plane waves:    2928
 k-point  95 :  -0.3333 0.2500 0.2857  plane waves:    2942
 k-point  96 :  -0.2222 0.2500 0.2857  plane waves:    2935
 k-point  97 :  -0.1111 0.2500 0.2857  plane waves:    2952
 k-point  98 :   0.0000 0.3750 0.2857  plane waves:    2931
 k-point  99 :   0.1111 0.3750 0.2857  plane waves:    2945
 k-point 100 :   0.2222 0.3750 0.2857  plane waves:    2938
 k-point 101 :   0.3333 0.3750 0.2857  plane waves:    2941
 k-point 102 :   0.4444 0.3750 0.2857  plane waves:    2935
 k-point 103 :  -0.4444 0.3750 0.2857  plane waves:    2929
 k-point 104 :  -0.3333 0.3750 0.2857  plane waves:    2935
 k-point 105 :  -0.2222 0.3750 0.2857  plane waves:    2929
 k-point 106 :  -0.1111 0.3750 0.2857  plane waves:    2938
 k-point 107 :   0.0000 0.5000 0.2857  plane waves:    2930
 k-point 108 :   0.1111 0.5000 0.2857  plane waves:    2930
 k-point 109 :   0.2222 0.5000 0.2857  plane waves:    2944
 k-point 110 :   0.3333 0.5000 0.2857  plane waves:    2940
 k-point 111 :   0.4444 0.5000 0.2857  plane waves:    2932
 k-point 112 :  -0.4444 0.5000 0.2857  plane waves:    2934
 k-point 113 :  -0.3333 0.5000 0.2857  plane waves:    2944
 k-point 114 :  -0.2222 0.5000 0.2857  plane waves:    2942
 k-point 115 :  -0.1111 0.5000 0.2857  plane waves:    2930
 k-point 116 :   0.0000 0.0000 0.4286  plane waves:    2958
 k-point 117 :   0.1111 0.0000 0.4286  plane waves:    2953
 k-point 118 :   0.2222 0.0000 0.4286  plane waves:    2949
 k-point 119 :   0.3333 0.0000 0.4286  plane waves:    2947
 k-point 120 :   0.4444 0.0000 0.4286  plane waves:    2924
 k-point 121 :  -0.4444 0.0000 0.4286  plane waves:    2927
 k-point 122 :  -0.3333 0.0000 0.4286  plane waves:    2942
 k-point 123 :  -0.2222 0.0000 0.4286  plane waves:    2943
 k-point 124 :  -0.1111 0.0000 0.4286  plane waves:    2955
 k-point 125 :   0.0000 0.1250 0.4286  plane waves:    2948
 k-point 126 :   0.1111 0.1250 0.4286  plane waves:    2952
 k-point 127 :   0.2222 0.1250 0.4286  plane waves:    2952
 k-point 128 :   0.3333 0.1250 0.4286  plane waves:    2928
 k-point 129 :   0.4444 0.1250 0.4286  plane waves:    2928
 k-point 130 :  -0.4444 0.1250 0.4286  plane waves:    2929
 k-point 131 :  -0.3333 0.1250 0.4286  plane waves:    2935
 k-point 132 :  -0.2222 0.1250 0.4286  plane waves:    2951
 k-point 133 :  -0.1111 0.1250 0.4286  plane waves:    2952
 k-point 134 :   0.0000 0.2500 0.4286  plane waves:    2958
 k-point 135 :   0.1111 0.2500 0.4286  plane waves:    2947
 k-point 136 :   0.2222 0.2500 0.4286  plane waves:    2948
 k-point 137 :   0.3333 0.2500 0.4286  plane waves:    2934
 k-point 138 :   0.4444 0.2500 0.4286  plane waves:    2925
 k-point 139 :  -0.4444 0.2500 0.4286  plane waves:    2925
 k-point 140 :  -0.3333 0.2500 0.4286  plane waves:    2934
 k-point 141 :  -0.2222 0.2500 0.4286  plane waves:    2949
 k-point 142 :  -0.1111 0.2500 0.4286  plane waves:    2944
 k-point 143 :   0.0000 0.3750 0.4286  plane waves:    2947
 k-point 144 :   0.1111 0.3750 0.4286  plane waves:    2942
 k-point 145 :   0.2222 0.3750 0.4286  plane waves:    2941
 k-point 146 :   0.3333 0.3750 0.4286  plane waves:    2942
 k-point 147 :   0.4444 0.3750 0.4286  plane waves:    2936
 k-point 148 :  -0.4444 0.3750 0.4286  plane waves:    2930
 k-point 149 :  -0.3333 0.3750 0.4286  plane waves:    2937
 k-point 150 :  -0.2222 0.3750 0.4286  plane waves:    2939
 k-point 151 :  -0.1111 0.3750 0.4286  plane waves:    2939
 k-point 152 :   0.0000 0.5000 0.4286  plane waves:    2948
 k-point 153 :   0.1111 0.5000 0.4286  plane waves:    2942
 k-point 154 :   0.2222 0.5000 0.4286  plane waves:    2946
 k-point 155 :   0.3333 0.5000 0.4286  plane waves:    2952
 k-point 156 :   0.4444 0.5000 0.4286  plane waves:    2928
 k-point 157 :  -0.4444 0.5000 0.4286  plane waves:    2928
 k-point 158 :  -0.3333 0.5000 0.4286  plane waves:    2938
 k-point 159 :  -0.2222 0.5000 0.4286  plane waves:    2946
 k-point 160 :  -0.1111 0.5000 0.4286  plane waves:    2944

 maximum and minimum number of plane-waves per node :      1006      962

 maximum number of plane-waves:      2977
 maximum index in each direction: 
   IXMAX=    8   IYMAX=    8   IZMAX=   10
   IXMIN=   -8   IYMIN=   -9   IZMIN=  -11


 parallel 3D FFT for wavefunctions:
    minimum data exchange during FFTs selected (reduces bandwidth)
 parallel 3D FFT for charge:
    minimum data exchange during FFTs selected (reduces bandwidth)


 total amount of memory used by VASP MPI-rank0   157538. kBytes
=======================================================================

   base      :      30000. kBytes
   nonl-proj :      46642. kBytes
   fftplans  :        934. kBytes
   grid      :       2424. kBytes
   one-center:        124. kBytes
   wavefun   :      77414. kBytes
 
     INWAV:  cpu time      0.0001: real time      0.0005
 Broyden mixing: mesh for mixing (old mesh)
   NGX = 15   NGY = 17   NGZ = 21
  (NGX  = 50   NGY  = 60   NGZ  = 70)
  gives a total of   5355 points

 initial charge density was supplied:
 charge density of overlapping atoms calculated
 number of electron     150.0000000 magnetization      36.0000000
 keeping initial charge density in first step


--------------------------------------------------------------------------------------------------------


 Maximum index for augmentation-charges          630 (set IRDMAX)


--------------------------------------------------------------------------------------------------------


 First call to EWALD:  gamma=   0.349
 Maximum number of real-space cells 3x 3x 2
 Maximum number of reciprocal cells 2x 3x 3

    FEWALD:  cpu time      0.0004: real time      0.0005


--------------------------------------- Ionic step        1  -------------------------------------------




--------------------------------------- Iteration      1(   1)  ---------------------------------------


    POTLOK:  cpu time      0.0034: real time      0.0043
    SETDIJ:  cpu time      0.0041: real time      0.0041
     EDDAV:  cpu time      8.3421: real time      8.3684
 BZINTS: Fermi energy:   26.154213;  150.000000 electrons
         Band energy: 0.680415E+03;  BLOECHL correction:   -0.107163
       DOS:  cpu time      0.4578: real time      0.4587
    --------------------------------------------
      LOOP:  cpu time      8.8075: real time      8.8356

 eigenvalue-minimisations  : 79008
 total energy-change (2. order) : 0.1897683E+04  (-0.7246783E+04)
 number of electron     150.0000000 magnetization      36.0000000
 augmentation part      150.0000000 magnetization      36.0000000

 Free energy of the ion-electron system (eV)
  ---------------------------------------------------
  alpha Z        PSCENC =      1381.14528504
  Ewald energy   TEWEN  =    -17886.91847617
  -Hartree energ DENC   =     -7668.47646737
  -exchange      EXHF   =         0.00000000
  -V(xc)+E(xc)   XCENC  =       662.45738704
  PAW double counting   =     19934.15191062   -21135.41606588
  entropy T*S    EENTRO =         0.00000000
  eigenvalues    EBANDS =       680.41523959
  atomic energy  EATOM  =     25930.32421885
  Solvation  Ediel_sol  =         0.00000000
  ---------------------------------------------------
  free energy    TOTEN  =      1897.68303171 eV

  energy without entropy =     1897.68303171  energy(sigma->0) =     1897.68303171


--------------------------------------------------------------------------------------------------------




--------------------------------------- Iteration      1(   2)  ---------------------------------------


     EDDAV:  cpu time      7.8097: real time      7.8369
 BZINTS: Fermi energy:   11.546986;  150.000000 electrons
         Band energy:-0.107413E+04;  BLOECHL correction:   -0.070170
       DOS:  cpu time      0.4621: real time      0.4630
    --------------------------------------------
      LOOP:  cpu time      8.2717: real time      8.2999

 eigenvalue-minimisations  : 71680
 total energy-change (2. order) :-0.1754543E+04  (-0.1650422E+04)
 number of electron     150.0000000 magnetization      36.0000000
 augmentation part      150.0000000 magnetization      36.0000000

 Free energy of the ion-electron system (eV)
  ---------------------------------------------------
  alpha Z        PSCENC =      1381.14528504
  Ewald energy   TEWEN  =    -17886.91847617
  -Hartree energ DENC   =     -7668.47646737
  -exchange      EXHF   =         0.00000000
  -V(xc)+E(xc)   XCENC  =       662.45738704
  PAW double counting   =     19934.15191062   -21135.41606588
  entropy T*S    EENTRO =         0.00000000
  eigenvalues    EBANDS =     -1074.12756036
  atomic energy  EATOM  =     25930.32421885
  Solvation  Ediel_sol  =         0.00000000
  ---------------------------------------------------
  free energy    TOTEN  =       143.14023176 eV

  energy without entropy =      143.14023176  energy(sigma->0) =      143.14023176


--------------------------------------------------------------------------------------------------------




--------------------------------------- Iteration      1(   3)  ---------------------------------------


     EDDAV:  cpu time      7.9790: real time      8.0082
 BZINTS: Fermi energy:    9.045201;  150.000000 electrons
         Band energy:-0.130117E+04;  BLOECHL correction:   -0.085608
       DOS:  cpu time      0.4438: real time      0.4452
    --------------------------------------------
      LOOP:  cpu time      8.4228: real time      8.4534

 eigenvalue-minimisations  : 73472
 total energy-change (2. order) :-0.2270399E+03  (-0.1843534E+03)
 number of electron     150.0000000 magnetization      36.0000000
 augmentation part      150.0000000 magnetization      36.0000000

 Free energy of the ion-electron system (eV)
  ---------------------------------------------------
  alpha Z        PSCENC =      1381.14528504
  Ewald energy   TEWEN  =    -17886.91847617
  -Hartree energ DENC   =     -7668.47646737
  -exchange      EXHF   =         0.00000000
  -V(xc)+E(xc)   XCENC  =       662.45738704
  PAW double counting   =     19934.15191062   -21135.41606588
  entropy T*S    EENTRO =         0.00000000
  eigenvalues    EBANDS =     -1301.16750417
  atomic energy  EATOM  =     25930.32421885
  Solvation  Ediel_sol  =         0.00000000
  ---------------------------------------------------
  free energy    TOTEN  =       -83.89971204 eV

  energy without entropy =      -83.89971204  energy(sigma->0) =      -83.89971204


--------------------------------------------------------------------------------------------------------




--------------------------------------- Iteration      1(   4)  ---------------------------------------


     EDDAV:  cpu time      8.4601: real time      8.4880
 BZINTS: Fermi energy:    8.957042;  150.000000 electrons
         Band energy:-0.131337E+04;  BLOECHL correction:   -0.088388
       DOS:  cpu time      0.4550: real time      0.4575
    --------------------------------------------
      LOOP:  cpu time      8.9150: real time      8.9455

 eigenvalue-minimisations  : 80080
 total energy-change (2. order) :-0.1220303E+02  (-0.1197146E+02)
 number of electron     150.0000000 magnetization      36.0000000
 augmentation part      150.0000000 magnetization      36.0000000

 Free energy of the ion-electron system (eV)
  ---------------------------------------------------
  alpha Z        PSCENC =      1381.14528504
  Ewald energy   TEWEN  =    -17886.91847617
  -Hartree energ DENC   =     -7668.47646737
  -exchange      EXHF   =         0.00000000
  -V(xc)+E(xc)   XCENC  =       662.45738704
  PAW double counting   =     19934.15191062   -21135.41606588
  entropy T*S    EENTRO =         0.00000000
  eigenvalues    EBANDS =     -1313.37053353
  atomic energy  EATOM  =     25930.32421885
  Solvation  Ediel_sol  =         0.00000000
  ---------------------------------------------------
  free energy    TOTEN  =       -96.10274141 eV

  energy without entropy =      -96.10274141  energy(sigma->0) =      -96.10274141


--------------------------------------------------------------------------------------------------------




--------------------------------------- Iteration      1(   5)  ---------------------------------------


     EDDAV:  cpu time      9.6569: real time      9.6879
 BZINTS: Fermi energy:    8.955890;  150.000000 electrons
         Band energy:-0.131357E+04;  BLOECHL correction:   -0.088353
       DOS:  cpu time      0.4512: real time      0.4536
    CHARGE:  cpu time      0.3282: real time      0.3292
    MIXING:  cpu time      0.0009: real time      0.0009
    --------------------------------------------
      LOOP:  cpu time     10.4372: real time     10.4715

 eigenvalue-minimisations  : 96376
 total energy-change (2. order) :-0.2015458E+00  (-0.2014642E+00)
 number of electron     150.0000096 magnetization      32.7065788
 augmentation part       80.5185582 magnetization      28.7866528

 Broyden mixing:
  rms(total) = 0.41900E+01    rms(broyden)= 0.41895E+01
  rms(prec ) = 0.60521E+01
  weight for this iteration     100.00

 Free energy of the ion-electron system (eV)
  ---------------------------------------------------
  alpha Z        PSCENC =      1381.14528504
  Ewald energy   TEWEN  =    -17886.91847617
  -Hartree energ DENC   =     -7668.47646737
  -exchange      EXHF   =         0.00000000
  -V(xc)+E(xc)   XCENC  =       662.45738704
  PAW double counting   =     19934.15191062   -21135.41606588
  entropy T*S    EENTRO =         0.00000000
  eigenvalues    EBANDS =     -1313.57207930
  atomic energy  EATOM  =     25930.32421885
  Solvation  Ediel_sol  =         0.00000000
  ---------------------------------------------------
  free energy    TOTEN  =       -96.30428718 eV

  energy without entropy =      -96.30428718  energy(sigma->0) =      -96.30428718


--------------------------------------------------------------------------------------------------------




--------------------------------------- Iteration      1(   6)  ---------------------------------------


    POTLOK:  cpu time      0.0039: real time      0.0060
    SETDIJ:  cpu time      0.0037: real time      0.0037
     EDDAV:  cpu time      9.4977: real time      9.5274
 BZINTS: Fermi energy:    7.567108;  150.000000 electrons
         Band energy:-0.165006E+04;  BLOECHL correction:   -0.037321
       DOS:  cpu time      0.4488: real time      0.4506
    CHARGE:  cpu time      0.3220: real time      0.3228
    MIXING:  cpu time      0.0004: real time      0.0004
    --------------------------------------------
      LOOP:  cpu time     10.2765: real time     10.3109

 eigenvalue-minimisations  : 95544
 total energy-change (2. order) : 0.5143200E+00  (-0.3914972E+01)
 number of electron     150.0000129 magnetization      31.6571732
 augmentation part       85.1737203 magnetization      28.5540897

 Broyden mixing:
  rms(total) = 0.60408E+01    rms(broyden)= 0.60406E+01
  rms(prec ) = 0.94753E+01
  weight for this iteration     100.00

 eigenvalues of (default mixing * dielectric matrix)
  average eigenvalue GAMMA=   0.2581
  0.2581

 Free energy of the ion-electron system (eV)
  ---------------------------------------------------
  alpha Z        PSCENC =      1381.14528504
  Ewald energy   TEWEN  =    -17886.91847617
  -Hartree energ DENC   =     -7349.83634168
  -exchange      EXHF   =         0.00000000
  -V(xc)+E(xc)   XCENC  =       648.80578242
  PAW double counting   =     19605.71672885   -20774.96723542
  entropy T*S    EENTRO =         0.00000000
  eigenvalues    EBANDS =     -1650.05992907
  atomic energy  EATOM  =     25930.32421885
  Solvation  Ediel_sol  =         0.00000000
  ---------------------------------------------------
  free energy    TOTEN  =       -95.78996718 eV

  energy without entropy =      -95.78996718  energy(sigma->0) =      -95.78996718


--------------------------------------------------------------------------------------------------------




--------------------------------------- Iteration      1(   7)  ---------------------------------------


    POTLOK:  cpu time      0.0032: real time      0.0062
    SETDIJ:  cpu time      0.0033: real time      0.0033
     EDDAV:  cpu time      8.8883: real time      8.9159
 BZINTS: Fermi energy:    6.974907;  150.000000 electrons
         Band energy:-0.157310E+04;  BLOECHL correction:   -0.087902
       DOS:  cpu time      0.4441: real time      0.4465
    CHARGE:  cpu time      0.3217: real time      0.3226
    MIXING:  cpu time      0.0003: real time      0.0003
    --------------------------------------------
      LOOP:  cpu time      9.6610: real time      9.6948

 eigenvalue-minimisations  : 87152
 total energy-change (2. order) : 0.1102761E+02  (-0.2760948E+01)
 number of electron     150.0000100 magnetization      28.9779099
[...]
     22       0.2627      1.00000
     23       2.8599      1.00000
     24       2.8599      1.00000
     25       2.9606      1.00000
     26       2.9606      1.00000
     27       2.9767      1.00000
     28       2.9767      1.00000
     29       3.1603      1.00000
     30       3.1603      1.00000
     31       3.4913      1.00000
     32       3.4913      1.00000
     33       3.7368      1.00000
     34       3.7368      1.00000
     35       3.8325      1.00000
     36       3.8325      1.00000
     37       3.8594      1.00000
     38       3.8594      1.00000
     39       3.8885      1.00000
     40       3.8885      1.00000
     41       3.9938      1.00000
     42       3.9938      1.00000
     43       4.1881      1.00000
     44       4.1881      1.00000
     45       4.3999      1.00000
     46       4.3999      1.00000
     47       4.5344      1.00000
     48       4.5344      1.00000
     49       4.6570      1.00000
     50       4.6570      1.00000
     51       4.9930      1.00000
     52       4.9930      1.00000
     53       5.1010      1.00000
     54       5.1010      1.00000
     55       5.2250      1.00000
     56       5.2250      1.00000
     57       5.3008      1.00000
     58       5.3008      1.00000
     59       5.4713      1.00000
     60       5.4713      1.00000
     61       5.6987      1.00000
     62       5.6987      1.00000
     63       5.8037      1.00000
     64       5.8037      1.00000
     65       5.8179      1.00000
     66       5.8179      1.00000
     67       6.0461      1.00000
     68       6.0461      1.00000
     69       6.1836      1.00000
     70       6.1836      1.04770
     71       6.4605      0.00000
     72       6.4605      0.00000
     73       6.5250      0.00000
     74       6.5250      0.00000
     75       6.7472      0.00000
     76       6.7472      0.00000
     77       6.8753      0.00000
     78       6.8753      0.00000
     79       6.9728      0.00000
     80       6.9728      0.00000
     81       7.1282      0.00000
     82       7.1282      0.00000
     83       9.5233      0.00000
     84       9.5233      0.00000
     85      10.1521      0.00000
     86      10.1521      0.00000
     87      10.2868      0.00000
     88      10.2868      0.00000
     89      12.7268      0.00000
     90      12.7268      0.00000
     91      13.3277      0.00000
     92      13.3277      0.00000
     93      14.1607      0.00000
     94      14.1607      0.00000
     95      15.0230      0.00000
     96      15.0230      0.00000
     97      15.3850      0.00000
     98      15.3850      0.00000
     99      17.6039      0.00000
    100      17.6039      0.00000
    101      18.8665      0.00000
    102      18.8665      0.00000
    103      20.4201      0.00000
    104      20.4201      0.00000
    105      21.3139      0.00000
    106      21.3139      0.00000
    107      21.7318      0.00000
    108      21.7318      0.00000
    109      21.9288      0.00000
    110      21.9288      0.00000
    111      22.2634      0.00000
    112      22.2634      0.00000


--------------------------------------------------------------------------------------------------------


 soft charge-density along one line, spin component           1
         0         1         2         3         4         5         6         7         8         9
 total charge-density along one line
 
 soft charge-density along one line, spin component           2
         0         1         2         3         4         5         6         7         8         9
 total charge-density along one line
 
 pseudopotential strength for first ion, spin component:           1
 -5.058  -0.020   0.000  -0.000  -0.000  -0.833   0.007  -0.000
 -0.020  -5.014  -0.000  -0.000   0.000   0.007  -0.848   0.000
  0.000  -0.000  -5.023  -0.009   0.017  -0.000   0.000  -0.845
 -0.000  -0.000  -0.009  -4.994  -0.002   0.000   0.000   0.003
 -0.000   0.000   0.017  -0.002  -5.003   0.000  -0.000  -0.006
 -0.833   0.007  -0.000   0.000   0.000   1.312  -0.003   0.000
  0.007  -0.848   0.000   0.000  -0.000  -0.003   1.317  -0.000
 -0.000   0.000  -0.845   0.003  -0.006   0.000  -0.000   1.317
  0.000   0.000   0.003  -0.855   0.000  -0.000  -0.000  -0.001
  0.000  -0.000  -0.006   0.000  -0.852  -0.000   0.000   0.002
  0.000   0.000  -0.002   0.004   0.001   0.000   0.000   0.001
 -0.000  -0.000   0.000  -0.000  -0.000   0.000   0.000  -0.000
 -0.000   0.007   0.000   0.000   0.000   0.000  -0.002  -0.000
  0.000  -0.000   0.010   0.000   0.000   0.000   0.000  -0.004
 -0.000   0.000  -0.000   0.007   0.001   0.000   0.000   0.000
  0.000  -0.002  -0.000  -0.000  -0.000  -0.000   0.001   0.000
 -0.000   0.000  -0.003  -0.000  -0.000   0.000  -0.000   0.001
  0.000  -0.000   0.000  -0.002  -0.000  -0.000   0.000  -0.000
 pseudopotential strength for first ion, spin component:           2
 -3.786   0.011   0.000  -0.000  -0.000  -1.308  -0.004  -0.000
  0.011  -3.777  -0.000  -0.000   0.000  -0.004  -1.310   0.000
  0.000  -0.000  -3.792  -0.002  -0.004  -0.000   0.000  -1.306
 -0.000  -0.000  -0.002  -3.792  -0.022   0.000   0.000   0.001
 -0.000   0.000  -0.004  -0.022  -3.808   0.000  -0.000   0.001
 -1.308  -0.004  -0.000   0.000   0.000   1.485   0.001   0.000
 -0.004  -1.310   0.000   0.000  -0.000   0.001   1.486  -0.000
 -0.000   0.000  -1.306   0.001   0.001   0.000  -0.000   1.484
  0.000   0.000   0.001  -1.304   0.007  -0.000  -0.000  -0.000
  0.000  -0.000   0.001   0.007  -1.299  -0.000   0.000  -0.000
  0.000   0.000  -0.001   0.001   0.001   0.000   0.000   0.000
 -0.000  -0.000   0.000  -0.000  -0.000   0.000   0.000  -0.000
  0.000   0.004   0.000   0.000   0.000  -0.000  -0.001  -0.000
  0.000  -0.000   0.004   0.000  -0.000   0.000   0.000  -0.001
 -0.000   0.000  -0.000   0.004   0.000   0.000   0.000   0.000
  0.000  -0.002  -0.000  -0.000  -0.000  -0.000   0.001   0.000
 -0.000   0.000  -0.003  -0.000  -0.000   0.000  -0.000   0.001
  0.000  -0.000   0.000  -0.002  -0.000  -0.000   0.000  -0.000
 total augmentation occupancy for first ion, spin component:           1
  1.538  -0.025   0.000  -0.000   0.000   0.085  -0.033   0.000   0.000   0.000   0.000   0.000  -0.003   0.000   0.000   0.000
 -0.025   1.575   0.000   0.000   0.000  -0.034   0.065   0.000   0.000  -0.000   0.000   0.000   0.009   0.000   0.000  -0.001
  0.000   0.000   1.576  -0.005   0.021   0.000   0.000   0.112   0.001   0.003   0.003  -0.002   0.000   0.024  -0.001   0.000
 -0.000   0.000  -0.005   1.602   0.017  -0.000   0.000   0.001   0.060   0.033   0.002   0.002   0.000   0.001   0.013   0.000
  0.000   0.000   0.021   0.017   1.607   0.000   0.000   0.004   0.033   0.084  -0.014   0.002   0.000   0.001   0.004   0.000
  0.085  -0.034   0.000  -0.000   0.000   0.139  -0.002   0.000  -0.000   0.000   0.000   0.000   0.000   0.000   0.000  -0.000
 -0.033   0.065   0.000   0.000   0.000  -0.002   0.136   0.000   0.000   0.000   0.000   0.000   0.009   0.000   0.000  -0.001
  0.000   0.000   0.112   0.001   0.004   0.000   0.000   0.139   0.000  -0.002   0.001   0.001  -0.000   0.008  -0.001   0.000
  0.000   0.000   0.001   0.060   0.033  -0.000   0.000   0.000   0.132   0.002   0.002  -0.000   0.000   0.001   0.008   0.000
  0.000  -0.000   0.003   0.033   0.084   0.000   0.000  -0.002   0.002   0.134  -0.004  -0.001   0.000  -0.000   0.002   0.000
  0.000   0.000   0.003   0.002  -0.014   0.000   0.000   0.001   0.002  -0.004   1.337  -0.352   0.000   0.028   0.003  -0.000
  0.000   0.000  -0.002   0.002   0.002   0.000   0.000   0.001  -0.000  -0.001  -0.352   0.122   0.000  -0.005  -0.001   0.000
 -0.003   0.009   0.000   0.000   0.000   0.000   0.009  -0.000   0.000   0.000   0.000   0.000   0.221   0.000   0.000  -0.015
  0.000   0.000   0.024   0.001   0.001   0.000   0.000   0.008   0.001  -0.000   0.028  -0.005   0.000   0.221   0.000  -0.000
  0.000   0.000  -0.001   0.013   0.004   0.000   0.000  -0.001   0.008   0.002   0.003  -0.001   0.000   0.000   0.217   0.000
  0.000  -0.001   0.000   0.000   0.000  -0.000  -0.001   0.000   0.000   0.000  -0.000   0.000  -0.015  -0.000   0.000   0.001
  0.000   0.000  -0.001   0.000   0.000   0.000   0.000  -0.000  -0.000   0.000  -0.002   0.000  -0.000  -0.015   0.000   0.000
  0.000   0.000   0.000  -0.001   0.000   0.000   0.000   0.000  -0.001  -0.000  -0.000   0.000   0.000   0.000  -0.015   0.000
 total augmentation occupancy for first ion, spin component:           2
  0.329   0.032  -0.000   0.000   0.000  -0.185  -0.001   0.000   0.000   0.000   0.000   0.000   0.002   0.000   0.000   0.000
  0.032   0.297   0.000  -0.000   0.000  -0.002  -0.179   0.000  -0.000   0.000   0.000   0.000  -0.007   0.000   0.000  -0.000
 -0.000   0.000   0.287   0.006  -0.021  -0.000   0.000  -0.182  -0.002   0.002  -0.003  -0.001   0.000  -0.021   0.000   0.000
  0.000  -0.000   0.006   0.268  -0.023   0.000   0.000  -0.002  -0.169  -0.002  -0.002   0.000  -0.000  -0.000  -0.010   0.000
  0.000   0.000  -0.021  -0.023   0.259   0.000   0.000   0.002  -0.002  -0.170   0.013   0.002   0.000  -0.001  -0.002   0.000
 -0.185  -0.002  -0.000   0.000   0.000   0.020   0.002   0.000   0.000  -0.000   0.000   0.000  -0.001   0.000   0.000   0.000
 -0.001  -0.179   0.000   0.000   0.000   0.002   0.023   0.000   0.000   0.000   0.000   0.000  -0.000   0.000   0.000  -0.000
  0.000   0.000  -0.182  -0.002   0.002   0.000   0.000   0.021   0.000   0.001  -0.001  -0.000   0.000   0.001  -0.000   0.000
  0.000  -0.000  -0.002  -0.169  -0.002   0.000   0.000   0.000   0.023  -0.001   0.001  -0.000   0.000   0.000   0.000   0.000
  0.000   0.000   0.002  -0.002  -0.170  -0.000   0.000   0.001  -0.001   0.022   0.000   0.001  -0.000   0.000   0.000   0.000
  0.000   0.000  -0.003  -0.002   0.013   0.000   0.000  -0.001   0.001   0.000   0.005   0.060   0.000  -0.007   0.000  -0.000
  0.000   0.000  -0.001   0.000   0.002   0.000   0.000  -0.000  -0.000   0.001   0.060  -0.031   0.000   0.000   0.000   0.000
  0.002  -0.007   0.000  -0.000   0.000  -0.001  -0.000   0.000   0.000  -0.000   0.000   0.000  -0.010   0.000   0.000   0.002
  0.000   0.000  -0.021  -0.000  -0.001   0.000   0.000   0.001   0.000   0.000  -0.007   0.000   0.000  -0.009   0.000  -0.000
  0.000   0.000   0.000  -0.010  -0.002   0.000   0.000  -0.000   0.000   0.000   0.000   0.000   0.000   0.000  -0.008   0.000
  0.000  -0.000   0.000   0.000   0.000   0.000  -0.000   0.000   0.000   0.000  -0.000   0.000   0.002  -0.000   0.000  -0.000
  0.000   0.000  -0.000   0.000  -0.000   0.000   0.000  -0.000  -0.000  -0.000   0.000   0.000   0.000   0.002   0.000   0.000
  0.000   0.000  -0.000  -0.000  -0.000  -0.000   0.000   0.000  -0.000  -0.000   0.000  -0.000   0.000   0.000   0.002   0.000


------------------------ aborting loop because EDIFF is reached ----------------------------------------


    CHARGE:  cpu time      0.2120: real time      0.2127
    FORLOC:  cpu time      0.0004: real time      0.0004
    FORNL :  cpu time      0.8062: real time      0.8096
    STRESS:  cpu time      2.6482: real time      2.6587
    FORCOR:  cpu time      0.0015: real time      0.0016
    FORHAR:  cpu time      0.0007: real time      0.0007
    MIXING:  cpu time      0.0005: real time      0.0005
    OFIELD:  cpu time      0.0001: real time      0.0001

  FORCE on cell =-STRESS in cart. coord.  units (eV):
  Direction    XX          YY          ZZ          XY          YZ          ZX
  --------------------------------------------------------------------------------------
  Alpha Z  1381.14529  1381.14529  1381.14529
  Ewald   -5667.95614 -5310.36112 -6908.62006    -0.00000     0.00000   -10.42174
  Hartree  2732.47392  3057.27127  1548.21288    -0.00000    -0.00000    -7.70905
  E(xc)    -967.08482  -967.16708  -966.99184    -0.00000     0.00000     0.00715
  Local      62.09887  -620.08953  2488.33320    -0.00000     0.00000    17.97323
  n-local  -716.50621  -716.52076  -715.83263     0.23405    -0.79168     0.01440
  augment  1349.63194  1349.82078  1348.50248     0.00000    -0.00000     0.09842
  Kinetic  1810.73994  1810.49552  1809.79509    -0.77569     0.00910     0.00309
  Fock        0.00000     0.00000     0.00000     0.00000     0.00000     0.00000
  -------------------------------------------------------------------------------------
  Total     -15.45719   -15.40564   -15.45559     0.00000     0.00000    -0.03448
  in kB    -188.39302  -187.76465  -188.37349     0.00000     0.00000    -0.42026
  external pressure =     -188.18 kB  Pullay stress =        0.00 kB


 VOLUME and BASIS-vectors are now :
 -----------------------------------------------------------------------------
  energy-cutoff  :      459.66
  volume of cell :      131.45
      direct lattice vectors                 reciprocal lattice vectors
     4.327255987  0.000000000 -0.007900600     0.231094103  0.000000000  0.000422914
     0.000000000  4.966685044  0.000000000     0.000000000  0.201341537  0.000000000
    -0.011193389  0.000000000  6.116439635     0.000298504  0.000000000  0.163494353

  length of vectors
     4.327263199  4.966685044  6.116449877     0.231094490  0.201341537  0.163494626


 FORCES acting on ions
    electron-ion (+dipol)            ewald-force                    non-local-force                 convergence-correction
 -----------------------------------------------------------------------------------------------
   0.536E+01 0.181E-11 -.302E+03   -.543E+01 0.284E-13 0.302E+03   0.662E-01 0.128E-18 -.150E+00   0.143E-02 0.127E-12 -.994E-02
   0.536E+01 0.114E-11 -.302E+03   -.543E+01 0.284E-13 0.302E+03   0.662E-01 0.186E-18 -.150E+00   0.143E-02 0.182E-12 -.994E-02
   0.441E+02 -.955E-13 0.122E+03   -.441E+02 -.284E-13 -.122E+03   -.157E-01 -.190E-18 -.401E-01   -.315E-02 -.479E-13 0.234E-01
   0.441E+02 -.248E-12 0.122E+03   -.441E+02 -.142E-13 -.122E+03   -.157E-01 -.167E-18 -.401E-01   -.315E-02 0.183E-13 0.234E-01
   -.431E+02 0.202E-13 0.169E+03   0.431E+02 -.589E-14 -.169E+03   0.126E-02 -.567E-18 0.356E-01   0.326E-02 -.298E-13 0.222E-01
   -.431E+02 0.160E-12 0.169E+03   0.431E+02 0.138E-16 -.169E+03   0.126E-02 0.523E-18 0.356E-01   0.326E-02 -.615E-13 0.222E-01
   -.796E+02 0.755E-11 0.315E+03   0.797E+02 0.114E-12 -.315E+03   -.938E-01 0.344E-18 0.194E+00   0.261E-02 0.214E-12 -.232E-01
   -.796E+02 -.757E-11 0.315E+03   0.797E+02 0.114E-12 -.315E+03   -.938E-01 0.339E-18 0.194E+00   0.261E-02 0.312E-12 -.232E-01
   0.804E+02 0.139E-12 0.244E+03   -.805E+02 -.115E-12 -.245E+03   0.952E-01 0.370E-18 0.901E-01   -.256E-02 0.593E-12 -.234E-01
   0.804E+02 -.179E-10 0.244E+03   -.805E+02 -.122E-12 -.245E+03   0.952E-01 0.351E-18 0.901E-01   -.256E-02 0.549E-12 -.234E-01
   -.720E+01 0.300E-14 -.549E+03   0.724E+01 0.692E-14 0.549E+03   -.257E-01 0.340E-18 -.111E+00   -.289E-02 0.847E-12 -.172E-01
   -.720E+01 0.150E-11 -.549E+03   0.724E+01 0.933E-15 0.549E+03   -.257E-01 0.365E-18 -.111E+00   -.289E-02 0.739E-12 -.172E-01
 -----------------------------------------------------------------------------------------------
   -.531E-01 -.135E-10 0.756E-02   0.293E-13 0.671E-14 0.000E+00   0.550E-01 0.202E-17 0.367E-01   -.261E-02 0.344E-11 -.561E-01
 
 
 POSITION                                       TOTAL-FORCE (eV/Angst)
 -----------------------------------------------------------------------------------
      3.60753      1.24167      2.06443        -0.001721     -0.000000     -0.008356
      3.60753      3.72501      2.06443        -0.001721     -0.000000     -0.008356
      0.70375      1.24167      4.05768         0.014071     -0.000000      0.021452
      0.70375      3.72501      4.05768         0.014071     -0.000000      0.021452
      2.88122      0.00000      4.05899        -0.016368     -0.000000     -0.000541
      2.88122      2.48334      4.05899        -0.016368     -0.000000     -0.000541
      2.15570      1.24167      6.10388        -0.013698      0.000000     -0.000255
      2.15570      3.72501      6.10388        -0.013698      0.000000     -0.000255
      4.31487      0.00000      6.09977         0.008560      0.000000     -0.004319
      4.31487      2.48334      6.09977         0.008560     -0.000000     -0.004319
      1.43755      0.00000      2.05335         0.009156     -0.000000     -0.007981
      1.43755      2.48334      2.05335         0.009156     -0.000000     -0.007981
 -----------------------------------------------------------------------------------
    total drift:                               -0.000775     -0.000000     -0.011838


--------------------------------------------------------------------------------------------------------



  FREE ENERGIE OF THE ION-ELECTRON SYSTEM (eV)
  ---------------------------------------------------
  free  energy   TOTEN  =       -87.14301302 eV

  energy  without entropy=      -87.14301302  energy(sigma->0) =      -87.14301302
 


--------------------------------------------------------------------------------------------------------


    POTLOK:  cpu time      0.0044: real time      0.0044


--------------------------------------------------------------------------------------------------------


 stress matrix after NEB project (eV)
    -15.45719      0.00000     -0.03448
      0.00000    -15.40564      0.00000
     -0.03448      0.00000    -15.45559
  FORCES: max atom, RMS     0.025655    0.015418
  FORCE total and by dimension    0.053411    0.021452
  Stress total and by dimension   26.742031   15.457194
     LOOP+:  cpu time    239.1731: real time    240.0120
 -----------------------------------------------------------------------------
|                                                                             |
|           W    W    AA    RRRRR   N    N  II  N    N   GGGG   !!!           |
|           W    W   A  A   R    R  NN   N  II  NN   N  G    G  !!!           |
|           W    W  A    A  R    R  N N  N  II  N N  N  G       !!!           |
|           W WW W  AAAAAA  RRRRR   N  N N  II  N  N N  G  GGG   !            |
|           WW  WW  A    A  R   R   N   NN  II  N   NN  G    G                |
|           W    W  A    A  R    R  N    N  II  N    N   GGGG   !!!           |
|                                                                             |
|     Tetrahedron method does not include variations of the Fermi             |
|     occupations, so forces and stress will be inaccurate. We suggest        |
|     using a different smearing scheme ISMEAR = 1 or 2 for metals in         |
|     relaxations.                                                            |
|                                                                             |
 -----------------------------------------------------------------------------

    4ORBIT:  cpu time      0.0000: real time      0.0000
 BZINTS: Fermi energy:    6.319549;  150.000000 electrons
         Band energy:-0.160016E+04;  BLOECHL correction:   -0.062346

 total amount of memory used by VASP MPI-rank0   157538. kBytes
=======================================================================

   base      :      30000. kBytes
   nonl-proj :      46642. kBytes
   fftplans  :        934. kBytes
   grid      :       2424. kBytes
   one-center:        124. kBytes
   wavefun   :      77414. kBytes
 
  
  
 General timing and accounting informations for this job:
 ========================================================
  
                  Total CPU time used (sec):      243.167
                            User time (sec):      236.500
                          System time (sec):        6.667
                         Elapsed time (sec):      244.041
  
                   Maximum memory used (kb):      256932.
                   Average memory used (kb):          N/A
  
                          Minor page faults:        18208
                          Major page faults:          592
                 Voluntary context switches:          638
