  16  16   1   0
  0.2081250E+02  0.7601715E-09  0.7601715E-09  0.5852975E-09  0.5000000E-15
  1.000000000000000E-004
  CAR 
 unknown system                          
     10.60608103    -54.65053524  301      3.21808242      1.00000000
    -54.651  0.0000E+00  0.0000E+00  0.0000E+00  0.0000E+00
    -54.433  0.0000E+00  0.0000E+00  0.0000E+00  0.0000E+00
    -54.215  0.0000E+00  0.0000E+00  0.0000E+00  0.0000E+00
    -53.998  0.0000E+00  0.0000E+00  0.0000E+00  0.0000E+00
    -53.780  0.0000E+00  0.0000E+00  0.0000E+00  0.0000E+00
    -53.563  0.0000E+00  0.0000E+00  0.0000E+00  0.0000E+00
    -53.345  0.0000E+00  0.0000E+00  0.0000E+00  0.0000E+00
    -53.128  0.0000E+00  0.0000E+00  0.0000E+00  0.0000E+00
    -52.910  0.0000E+00  0.0000E+00  0.0000E+00  0.0000E+00
    -52.693  0.0000E+00  0.0000E+00  0.0000E+00  0.0000E+00
    -52.475  0.0000E+00  0.0000E+00  0.0000E+00  0.0000E+00
    -52.258  0.0000E+00  0.0000E+00  0.0000E+00  0.0000E+00
    -52.040  0.0000E+00  0.0000E+00  0.0000E+00  0.0000E+00
    -51.823  0.4898E-05  0.4898E-05  0.1065E-05  0.1065E-05
    -51.605  0.1825E+00  0.1825E+00  0.3971E-01  0.3971E-01
    -51.388  0.2762E+00  0.2762E+00  0.9980E-01  0.9980E-01
    -51.170  0.9730E-01  0.9730E-01  0.1210E+00  0.1210E+00
    -50.953  0.1156E-02  0.1156E-02  0.1212E+00  0.1212E+00
    -50.735  0.0000E+00  0.0000E+00  0.1212E+00  0.1212E+00
    -50.518  0.0000E+00  0.0000E+00  0.1212E+00  0.1212E+00
    -50.300  0.0000E+00  0.0000E+00  0.1212E+00  0.1212E+00
    -50.083  0.0000E+00  0.0000E+00  0.1212E+00  0.1212E+00
    -49.865  0.0000E+00  0.0000E+00  0.1212E+00  0.1212E+00
    -49.648  0.0000E+00  0.0000E+00  0.1212E+00  0.1212E+00
    -49.430  0.0000E+00  0.0000E+00  0.1212E+00  0.1212E+00
    -49.212  0.0000E+00  0.0000E+00  0.1212E+00  0.1212E+00
    -48.995  0.2283E-11  0.2283E-11  0.1212E+00  0.1212E+00
    -48.777  0.5730E-01  0.5730E-01  0.1337E+00  0.1337E+00
    -48.560  0.2216E+00  0.2216E+00  0.1819E+00  0.1819E+00
    -48.342  0.2726E+00  0.2726E+00  0.2412E+00  0.2412E+00
    -48.125  0.5776E-02  0.5776E-02  0.2424E+00  0.2424E+00
    -47.907  0.0000E+00  0.0000E+00  0.2424E+00  0.2424E+00
    -47.690  0.0000E+00  0.0000E+00  0.2424E+00  0.2424E+00
    -47.472  0.0000E+00  0.0000E+00  0.2424E+00  0.2424E+00
    -47.255  0.0000E+00  0.0000E+00  0.2424E+00  0.2424E+00
    -47.037  0.0000E+00  0.0000E+00  0.2424E+00  0.2424E+00
    -46.820  0.0000E+00  0.0000E+00  0.2424E+00  0.2424E+00
    -46.602  0.0000E+00  0.0000E+00  0.2424E+00  0.2424E+00
    -46.385  0.0000E+00  0.0000E+00  0.2424E+00  0.2424E+00
    -46.167  0.0000E+00  0.0000E+00  0.2424E+00  0.2424E+00
    -45.950  0.0000E+00  0.0000E+00  0.2424E+00  0.2424E+00
    -45.732  0.0000E+00  0.0000E+00  0.2424E+00  0.2424E+00
    -45.515  0.0000E+00  0.0000E+00  0.2424E+00  0.2424E+00
    -45.297  0.0000E+00  0.0000E+00  0.2424E+00  0.2424E+00
    -45.080  0.0000E+00  0.0000E+00  0.2424E+00  0.2424E+00
    -44.862  0.0000E+00  0.0000E+00  0.2424E+00  0.2424E+00
    -44.645  0.0000E+00  0.0000E+00  0.2424E+00  0.2424E+00
    -44.427  0.0000E+00  0.0000E+00  0.2424E+00  0.2424E+00
    -44.209  0.0000E+00  0.0000E+00  0.2424E+00  0.2424E+00
    -43.992  0.0000E+00  0.0000E+00  0.2424E+00  0.2424E+00
    -43.774  0.0000E+00  0.0000E+00  0.2424E+00  0.2424E+00
    -43.557  0.0000E+00  0.0000E+00  0.2424E+00  0.2424E+00
    -43.339  0.0000E+00  0.0000E+00  0.2424E+00  0.2424E+00
    -43.122  0.0000E+00  0.0000E+00  0.2424E+00  0.2424E+00
    -42.904  0.0000E+00  0.0000E+00  0.2424E+00  0.2424E+00
    -42.687  0.0000E+00  0.0000E+00  0.2424E+00  0.2424E+00
    -42.469  0.0000E+00  0.0000E+00  0.2424E+00  0.2424E+00
    -42.252  0.0000E+00  0.0000E+00  0.2424E+00  0.2424E+00
    -42.034  0.0000E+00  0.0000E+00  0.2424E+00  0.2424E+00
    -41.817  0.0000E+00  0.0000E+00  0.2424E+00  0.2424E+00
    -41.599  0.0000E+00  0.0000E+00  0.2424E+00  0.2424E+00
    -41.382  0.0000E+00  0.0000E+00  0.2424E+00  0.2424E+00
    -41.164  0.0000E+00  0.0000E+00  0.2424E+00  0.2424E+00
    -40.947  0.0000E+00  0.0000E+00  0.2424E+00  0.2424E+00
    -40.729  0.0000E+00  0.0000E+00  0.2424E+00  0.2424E+00
    -40.512  0.0000E+00  0.0000E+00  0.2424E+00  0.2424E+00
    -40.294  0.0000E+00  0.0000E+00  0.2424E+00  0.2424E+00
    -40.077  0.0000E+00  0.0000E+00  0.2424E+00  0.2424E+00
    -39.859  0.0000E+00  0.0000E+00  0.2424E+00  0.2424E+00
    -39.642  0.0000E+00  0.0000E+00  0.2424E+00  0.2424E+00
    -39.424  0.0000E+00  0.0000E+00  0.2424E+00  0.2424E+00
    -39.206  0.0000E+00  0.0000E+00  0.2424E+00  0.2424E+00
    -38.989  0.0000E+00  0.0000E+00  0.2424E+00  0.2424E+00
    -38.771  0.0000E+00  0.0000E+00  0.2424E+00  0.2424E+00
    -38.554  0.0000E+00  0.0000E+00  0.2424E+00  0.2424E+00
    -38.336  0.0000E+00  0.0000E+00  0.2424E+00  0.2424E+00
    -38.119  0.0000E+00  0.0000E+00  0.2424E+00  0.2424E+00
    -37.901  0.0000E+00  0.0000E+00  0.2424E+00  0.2424E+00
    -37.684  0.0000E+00  0.0000E+00  0.2424E+00  0.2424E+00
    -37.466  0.0000E+00  0.0000E+00  0.2424E+00  0.2424E+00
    -37.249  0.0000E+00  0.0000E+00  0.2424E+00  0.2424E+00
    -37.031  0.0000E+00  0.0000E+00  0.2424E+00  0.2424E+00
    -36.814  0.0000E+00  0.0000E+00  0.2424E+00  0.2424E+00
    -36.596  0.0000E+00  0.0000E+00  0.2424E+00  0.2424E+00
    -36.379  0.0000E+00  0.0000E+00  0.2424E+00  0.2424E+00
    -36.161  0.0000E+00  0.0000E+00  0.2424E+00  0.2424E+00
    -35.944  0.0000E+00  0.0000E+00  0.2424E+00  0.2424E+00
    -35.726  0.0000E+00  0.0000E+00  0.2424E+00  0.2424E+00
    -35.509  0.0000E+00  0.0000E+00  0.2424E+00  0.2424E+00
    -35.291  0.0000E+00  0.0000E+00  0.2424E+00  0.2424E+00
    -35.074  0.0000E+00  0.0000E+00  0.2424E+00  0.2424E+00
    -34.856  0.0000E+00  0.0000E+00  0.2424E+00  0.2424E+00
    -34.639  0.0000E+00  0.0000E+00  0.2424E+00  0.2424E+00
    -34.421  0.0000E+00  0.0000E+00  0.2424E+00  0.2424E+00
    -34.203  0.0000E+00  0.0000E+00  0.2424E+00  0.2424E+00
    -33.986  0.0000E+00  0.0000E+00  0.2424E+00  0.2424E+00
    -33.768  0.0000E+00  0.0000E+00  0.2424E+00  0.2424E+00
    -33.551  0.0000E+00  0.0000E+00  0.2424E+00  0.2424E+00
    -33.333  0.0000E+00  0.0000E+00  0.2424E+00  0.2424E+00
    -33.116  0.0000E+00  0.0000E+00  0.2424E+00  0.2424E+00
    -32.898  0.0000E+00  0.0000E+00  0.2424E+00  0.2424E+00
    -32.681  0.0000E+00  0.0000E+00  0.2424E+00  0.2424E+00
    -32.463  0.0000E+00  0.0000E+00  0.2424E+00  0.2424E+00
    -32.246  0.0000E+00  0.0000E+00  0.2424E+00  0.2424E+00
    -32.028  0.0000E+00  0.0000E+00  0.2424E+00  0.2424E+00
    -31.811  0.0000E+00  0.0000E+00  0.2424E+00  0.2424E+00
    -31.593  0.0000E+00  0.0000E+00  0.2424E+00  0.2424E+00
    -31.376  0.0000E+00  0.0000E+00  0.2424E+00  0.2424E+00
    -31.158  0.0000E+00  0.0000E+00  0.2424E+00  0.2424E+00
    -30.941  0.0000E+00  0.0000E+00  0.2424E+00  0.2424E+00
    -30.723  0.0000E+00  0.0000E+00  0.2424E+00  0.2424E+00
    -30.506  0.0000E+00  0.0000E+00  0.2424E+00  0.2424E+00
    -30.288  0.0000E+00  0.0000E+00  0.2424E+00  0.2424E+00
    -30.071  0.0000E+00  0.0000E+00  0.2424E+00  0.2424E+00
    -29.853  0.0000E+00  0.0000E+00  0.2424E+00  0.2424E+00
    -29.635  0.0000E+00  0.0000E+00  0.2424E+00  0.2424E+00
    -29.418  0.0000E+00  0.0000E+00  0.2424E+00  0.2424E+00
    -29.200  0.0000E+00  0.0000E+00  0.2424E+00  0.2424E+00
    -28.983  0.0000E+00  0.0000E+00  0.2424E+00  0.2424E+00
    -28.765  0.0000E+00  0.0000E+00  0.2424E+00  0.2424E+00
    -28.548  0.0000E+00  0.0000E+00  0.2424E+00  0.2424E+00
    -28.330  0.0000E+00  0.0000E+00  0.2424E+00  0.2424E+00
    -28.113  0.0000E+00  0.0000E+00  0.2424E+00  0.2424E+00
    -27.895  0.0000E+00  0.0000E+00  0.2424E+00  0.2424E+00
    -27.678  0.0000E+00  0.0000E+00  0.2424E+00  0.2424E+00
    -27.460  0.0000E+00  0.0000E+00  0.2424E+00  0.2424E+00
    -27.243  0.0000E+00  0.0000E+00  0.2424E+00  0.2424E+00
    -27.025  0.0000E+00  0.0000E+00  0.2424E+00  0.2424E+00
    -26.808  0.0000E+00  0.0000E+00  0.2424E+00  0.2424E+00
    -26.590  0.0000E+00  0.0000E+00  0.2424E+00  0.2424E+00
    -26.373  0.0000E+00  0.0000E+00  0.2424E+00  0.2424E+00
    -26.155  0.0000E+00  0.0000E+00  0.2424E+00  0.2424E+00
    -25.938  0.0000E+00  0.0000E+00  0.2424E+00  0.2424E+00
    -25.720  0.0000E+00  0.0000E+00  0.2424E+00  0.2424E+00
    -25.503  0.0000E+00  0.0000E+00  0.2424E+00  0.2424E+00
    -25.285  0.0000E+00  0.0000E+00  0.2424E+00  0.2424E+00
    -25.068  0.0000E+00  0.0000E+00  0.2424E+00  0.2424E+00
    -24.850  0.0000E+00  0.0000E+00  0.2424E+00  0.2424E+00
    -24.632  0.0000E+00  0.0000E+00  0.2424E+00  0.2424E+00
    -24.415  0.0000E+00  0.0000E+00  0.2424E+00  0.2424E+00
    -24.197  0.0000E+00  0.0000E+00  0.2424E+00  0.2424E+00
    -23.980  0.0000E+00  0.0000E+00  0.2424E+00  0.2424E+00
    -23.762  0.0000E+00  0.0000E+00  0.2424E+00  0.2424E+00
    -23.545  0.0000E+00  0.0000E+00  0.2424E+00  0.2424E+00
    -23.327  0.0000E+00  0.0000E+00  0.2424E+00  0.2424E+00
    -23.110  0.0000E+00  0.0000E+00  0.2424E+00  0.2424E+00
    -22.892  0.0000E+00  0.0000E+00  0.2424E+00  0.2424E+00
    -22.675  0.0000E+00  0.0000E+00  0.2424E+00  0.2424E+00
    -22.457  0.0000E+00  0.0000E+00  0.2424E+00  0.2424E+00
    -22.240  0.0000E+00  0.0000E+00  0.2424E+00  0.2424E+00
    -22.022  0.0000E+00  0.0000E+00  0.2424E+00  0.2424E+00
    -21.805  0.0000E+00  0.0000E+00  0.2424E+00  0.2424E+00
    -21.587  0.0000E+00  0.0000E+00  0.2424E+00  0.2424E+00
    -21.370  0.0000E+00  0.0000E+00  0.2424E+00  0.2424E+00
    -21.152  0.0000E+00  0.0000E+00  0.2424E+00  0.2424E+00
    -20.935  0.0000E+00  0.0000E+00  0.2424E+00  0.2424E+00
    -20.717  0.0000E+00  0.0000E+00  0.2424E+00  0.2424E+00
    -20.500  0.0000E+00  0.0000E+00  0.2424E+00  0.2424E+00
    -20.282  0.0000E+00  0.0000E+00  0.2424E+00  0.2424E+00
    -20.065  0.0000E+00  0.0000E+00  0.2424E+00  0.2424E+00
    -19.847  0.0000E+00  0.0000E+00  0.2424E+00  0.2424E+00
    -19.629  0.0000E+00  0.0000E+00  0.2424E+00  0.2424E+00
    -19.412  0.0000E+00  0.0000E+00  0.2424E+00  0.2424E+00
    -19.194  0.0000E+00  0.0000E+00  0.2424E+00  0.2424E+00
    -18.977  0.0000E+00  0.0000E+00  0.2424E+00  0.2424E+00
    -18.759  0.0000E+00  0.0000E+00  0.2424E+00  0.2424E+00
    -18.542  0.0000E+00  0.0000E+00  0.2424E+00  0.2424E+00
    -18.324  0.0000E+00  0.0000E+00  0.2424E+00  0.2424E+00
    -18.107  0.0000E+00  0.0000E+00  0.2424E+00  0.2424E+00
    -17.889  0.0000E+00  0.0000E+00  0.2424E+00  0.2424E+00
    -17.672  0.0000E+00  0.0000E+00  0.2424E+00  0.2424E+00
    -17.454  0.0000E+00  0.0000E+00  0.2424E+00  0.2424E+00
    -17.237  0.0000E+00  0.0000E+00  0.2424E+00  0.2424E+00
    -17.019  0.0000E+00  0.0000E+00  0.2424E+00  0.2424E+00
    -16.802  0.0000E+00  0.0000E+00  0.2424E+00  0.2424E+00
    -16.584  0.0000E+00  0.0000E+00  0.2424E+00  0.2424E+00
    -16.367  0.0000E+00  0.0000E+00  0.2424E+00  0.2424E+00
    -16.149  0.0000E+00  0.0000E+00  0.2424E+00  0.2424E+00
    -15.932  0.0000E+00  0.0000E+00  0.2424E+00  0.2424E+00
    -15.714  0.0000E+00  0.0000E+00  0.2424E+00  0.2424E+00
    -15.497  0.0000E+00  0.0000E+00  0.2424E+00  0.2424E+00
    -15.279  0.0000E+00  0.0000E+00  0.2424E+00  0.2424E+00
    -15.062  0.0000E+00  0.0000E+00  0.2424E+00  0.2424E+00
    -14.844  0.0000E+00  0.0000E+00  0.2424E+00  0.2424E+00
    -14.626  0.0000E+00  0.0000E+00  0.2424E+00  0.2424E+00
    -14.409  0.0000E+00  0.0000E+00  0.2424E+00  0.2424E+00
    -14.191  0.0000E+00  0.0000E+00  0.2424E+00  0.2424E+00
    -13.974  0.0000E+00  0.0000E+00  0.2424E+00  0.2424E+00
    -13.756  0.0000E+00  0.0000E+00  0.2424E+00  0.2424E+00
    -13.539  0.0000E+00  0.0000E+00  0.2424E+00  0.2424E+00
    -13.321  0.0000E+00  0.0000E+00  0.2424E+00  0.2424E+00
    -13.104  0.0000E+00  0.0000E+00  0.2424E+00  0.2424E+00
    -12.886  0.0000E+00  0.0000E+00  0.2424E+00  0.2424E+00
    -12.669  0.0000E+00  0.0000E+00  0.2424E+00  0.2424E+00
    -12.451  0.0000E+00  0.0000E+00  0.2424E+00  0.2424E+00
    -12.234  0.0000E+00  0.0000E+00  0.2424E+00  0.2424E+00
    -12.016  0.0000E+00  0.0000E+00  0.2424E+00  0.2424E+00
    -11.799  0.0000E+00  0.0000E+00  0.2424E+00  0.2424E+00
    -11.581  0.0000E+00  0.0000E+00  0.2424E+00  0.2424E+00
    -11.364  0.0000E+00  0.0000E+00  0.2424E+00  0.2424E+00
    -11.146  0.0000E+00  0.0000E+00  0.2424E+00  0.2424E+00
    -10.929  0.7052E-11  0.7053E-11  0.2424E+00  0.2424E+00
    -10.711  0.7521E-03  0.7521E-03  0.2426E+00  0.2426E+00
    -10.494  0.1114E-01  0.1114E-01  0.2450E+00  0.2450E+00
    -10.276  0.2187E-01  0.2187E-01  0.2498E+00  0.2498E+00
    -10.059  0.3489E-01  0.3489E-01  0.2574E+00  0.2574E+00
     -9.841  0.5881E-01  0.5881E-01  0.2702E+00  0.2702E+00
     -9.623  0.1061E+00  0.1061E+00  0.2932E+00  0.2932E+00
     -9.406  0.1056E+00  0.1056E+00  0.3162E+00  0.3162E+00
     -9.188  0.3173E-01  0.3173E-01  0.3231E+00  0.3231E+00
     -8.971  0.5914E-03  0.5914E-03  0.3232E+00  0.3232E+00
     -8.753  0.0000E+00  0.0000E+00  0.3232E+00  0.3232E+00
     -8.536  0.0000E+00  0.0000E+00  0.3232E+00  0.3232E+00
     -8.318  0.0000E+00  0.0000E+00  0.3232E+00  0.3232E+00
     -8.101  0.0000E+00  0.0000E+00  0.3232E+00  0.3232E+00
     -7.883  0.0000E+00  0.0000E+00  0.3232E+00  0.3232E+00
     -7.666  0.0000E+00  0.0000E+00  0.3232E+00  0.3232E+00
     -7.448  0.0000E+00  0.0000E+00  0.3232E+00  0.3232E+00
     -7.231  0.0000E+00  0.0000E+00  0.3232E+00  0.3232E+00
     -7.013  0.0000E+00  0.0000E+00  0.3232E+00  0.3232E+00
     -6.796  0.0000E+00  0.0000E+00  0.3232E+00  0.3232E+00
     -6.578  0.0000E+00  0.0000E+00  0.3232E+00  0.3232E+00
     -6.361  0.0000E+00  0.0000E+00  0.3232E+00  0.3232E+00
     -6.143  0.0000E+00  0.0000E+00  0.3232E+00  0.3232E+00
     -5.926  0.0000E+00  0.0000E+00  0.3232E+00  0.3232E+00
     -5.708  0.0000E+00  0.0000E+00  0.3232E+00  0.3232E+00
     -5.491  0.0000E+00  0.0000E+00  0.3232E+00  0.3232E+00
     -5.273  0.0000E+00  0.0000E+00  0.3232E+00  0.3232E+00
     -5.056  0.0000E+00  0.0000E+00  0.3232E+00  0.3232E+00
     -4.838  0.0000E+00  0.0000E+00  0.3232E+00  0.3232E+00
     -4.620  0.0000E+00  0.0000E+00  0.3232E+00  0.3232E+00
     -4.403  0.0000E+00  0.0000E+00  0.3232E+00  0.3232E+00
     -4.185  0.0000E+00  0.0000E+00  0.3232E+00  0.3232E+00
     -3.968  0.0000E+00  0.0000E+00  0.3232E+00  0.3232E+00
     -3.750  0.0000E+00  0.0000E+00  0.3232E+00  0.3232E+00
     -3.533  0.0000E+00  0.0000E+00  0.3232E+00  0.3232E+00
     -3.315  0.0000E+00  0.0000E+00  0.3232E+00  0.3232E+00
     -3.098  0.0000E+00  0.0000E+00  0.3232E+00  0.3232E+00
     -2.880  0.1494E-12  0.1494E-12  0.3232E+00  0.3232E+00
     -2.663  0.1269E-03  0.1269E-03  0.3233E+00  0.3233E+00
     -2.445  0.3683E-02  0.3683E-02  0.3241E+00  0.3241E+00
     -2.228  0.1052E-01  0.1052E-01  0.3263E+00  0.3263E+00
     -2.010  0.4718E-01  0.4718E-01  0.3366E+00  0.3366E+00
     -1.793  0.8518E-01  0.8518E-01  0.3551E+00  0.3551E+00
     -1.575  0.6844E-01  0.6844E-01  0.3700E+00  0.3700E+00
     -1.358  0.5250E-01  0.5250E-01  0.3814E+00  0.3814E+00
     -1.140  0.7921E-01  0.7921E-01  0.3987E+00  0.3987E+00
     -0.923  0.8831E-01  0.8831E-01  0.4179E+00  0.4179E+00
     -0.705  0.8215E-01  0.8215E-01  0.4358E+00  0.4358E+00
     -0.488  0.1210E+00  0.1210E+00  0.4621E+00  0.4621E+00
     -0.270  0.1045E+00  0.1045E+00  0.4848E+00  0.4848E+00
     -0.052  0.1034E+00  0.1034E+00  0.5073E+00  0.5073E+00
      0.165  0.1123E+00  0.1123E+00  0.5317E+00  0.5317E+00
      0.383  0.7772E-01  0.7772E-01  0.5486E+00  0.5486E+00
      0.600  0.7544E-01  0.7544E-01  0.5651E+00  0.5651E+00
      0.818  0.1085E+00  0.1085E+00  0.5887E+00  0.5887E+00
      1.035  0.1123E+00  0.1123E+00  0.6131E+00  0.6131E+00
      1.253  0.1889E+00  0.1889E+00  0.6542E+00  0.6542E+00
      1.470  0.1839E+00  0.1839E+00  0.6942E+00  0.6942E+00
      1.688  0.9126E-01  0.9126E-01  0.7140E+00  0.7140E+00
      1.905  0.8699E-01  0.8699E-01  0.7329E+00  0.7329E+00
      2.123  0.6123E-01  0.6123E-01  0.7463E+00  0.7463E+00
      2.340  0.6149E-01  0.6149E-01  0.7596E+00  0.7596E+00
      2.558  0.4298E-01  0.4298E-01  0.7690E+00  0.7690E+00
      2.775  0.4069E-01  0.4069E-01  0.7778E+00  0.7778E+00
      2.993  0.5079E-01  0.5079E-01  0.7889E+00  0.7889E+00
      3.210  0.8563E-01  0.8563E-01  0.8075E+00  0.8075E+00
      3.428  0.6561E-01  0.6561E-01  0.8218E+00  0.8218E+00
      3.645  0.1415E+00  0.1415E+00  0.8526E+00  0.8526E+00
      3.863  0.1130E+00  0.1130E+00  0.8772E+00  0.8772E+00
      4.080  0.1128E+00  0.1128E+00  0.9017E+00  0.9017E+00
      4.298  0.9346E-01  0.9346E-01  0.9220E+00  0.9220E+00
      4.515  0.9141E-01  0.9141E-01  0.9419E+00  0.9419E+00
      4.733  0.7977E-01  0.7977E-01  0.9593E+00  0.9593E+00
      4.951  0.1069E-01  0.1069E-01  0.9616E+00  0.9616E+00
      5.168  0.1193E-01  0.1193E-01  0.9642E+00  0.9642E+00
      5.386  0.1360E-01  0.1360E-01  0.9671E+00  0.9671E+00
      5.603  0.1086E-01  0.1086E-01  0.9695E+00  0.9695E+00
      5.821  0.4200E-02  0.4200E-02  0.9704E+00  0.9704E+00
      6.038  0.5959E-02  0.5959E-02  0.9717E+00  0.9717E+00
      6.256  0.6231E-02  0.6231E-02  0.9731E+00  0.9731E+00
      6.473  0.1143E-01  0.1143E-01  0.9755E+00  0.9755E+00
      6.691  0.2233E-01  0.2237E-01  0.9804E+00  0.9804E+00
      6.908  0.2837E-01  0.2825E-01  0.9866E+00  0.9866E+00
      7.126  0.4648E-01  0.4666E-01  0.9967E+00  0.9967E+00
      7.343  0.4072E-01  0.4062E-01  0.1006E+01  0.1006E+01
      7.561  0.1653E-01  0.1648E-01  0.1009E+01  0.1009E+01
      7.778  0.4446E-02  0.4493E-02  0.1010E+01  0.1010E+01
      7.996  0.6517E-07  0.6790E-07  0.1010E+01  0.1010E+01
      8.213  0.0000E+00  0.0000E+00  0.1010E+01  0.1010E+01
      8.431  0.0000E+00  0.0000E+00  0.1010E+01  0.1010E+01
      8.648  0.0000E+00  0.0000E+00  0.1010E+01  0.1010E+01
      8.866  0.0000E+00  0.0000E+00  0.1010E+01  0.1010E+01
      9.083  0.0000E+00  0.0000E+00  0.1010E+01  0.1010E+01
      9.301  0.0000E+00  0.0000E+00  0.1010E+01  0.1010E+01
      9.518  0.0000E+00  0.0000E+00  0.1010E+01  0.1010E+01
      9.736  0.0000E+00  0.0000E+00  0.1010E+01  0.1010E+01
      9.954  0.0000E+00  0.0000E+00  0.1010E+01  0.1010E+01
     10.171  0.0000E+00  0.0000E+00  0.1010E+01  0.1010E+01
     10.389  0.0000E+00  0.0000E+00  0.1010E+01  0.1010E+01
     10.606  0.0000E+00  0.0000E+00  0.1010E+01  0.1010E+01
     10.60608103    -54.65053524  301      3.21808242      1.00000000
    -54.651  0.0000E+00  0.0000E+00  0.0000E+00  0.0000E+00  0.0000E+00  0.0000E+00  0.0000E+00  0.0000E+00  0.0000E+00  0.0000E+00  0.0000E+00  0.0000E+00  0.0000E+00  0.0000E+00  0.0000E+00  0.0000E+00  0.0000E+00  0.0000E+00
    -54.433  0.0000E+00  0.0000E+00  0.0000E+00  0.0000E+00  0.0000E+00  0.0000E+00  0.0000E+00  0.0000E+00  0.0000E+00  0.0000E+00  0.0000E+00  0.0000E+00  0.0000E+00  0.0000E+00  0.0000E+00  0.0000E+00  0.0000E+00  0.0000E+00
    -54.215  0.0000E+00  0.0000E+00  0.0000E+00  0.0000E+00  0.0000E+00  0.0000E+00  0.0000E+00  0.0000E+00  0.0000E+00  0.0000E+00  0.0000E+00  0.0000E+00  0.0000E+00  0.0000E+00  0.0000E+00  0.0000E+00  0.0000E+00  0.0000E+00
    -53.998  0.0000E+00  0.0000E+00  0.0000E+00  0.0000E+00  0.0000E+00  0.0000E+00  0.0000E+00  0.0000E+00  0.0000E+00  0.0000E+00  0.0000E+00  0.0000E+00  0.0000E+00  0.0000E+00  0.0000E+00  0.0000E+00  0.0000E+00  0.0000E+00
    -53.780  0.0000E+00  0.0000E+00  0.0000E+00  0.0000E+00  0.0000E+00  0.0000E+00  0.0000E+00  0.0000E+00  0.0000E+00  0.0000E+00  0.0000E+00  0.0000E+00  0.0000E+00  0.0000E+00  0.0000E+00  0.0000E+00  0.0000E+00  0.0000E+00
    -53.563  0.0000E+00  0.0000E+00  0.0000E+00  0.0000E+00  0.0000E+00  0.0000E+00  0.0000E+00  0.0000E+00  0.0000E+00  0.0000E+00  0.0000E+00  0.0000E+00  0.0000E+00  0.0000E+00  0.0000E+00  0.0000E+00  0.0000E+00  0.0000E+00
    -53.345  0.0000E+00  0.0000E+00  0.0000E+00  0.0000E+00  0.0000E+00  0.0000E+00  0.0000E+00  0.0000E+00  0.0000E+00  0.0000E+00  0.0000E+00  0.0000E+00  0.0000E+00  0.0000E+00  0.0000E+00  0.0000E+00  0.0000E+00  0.0000E+00
    -53.128  0.0000E+00  0.0000E+00  0.0000E+00  0.0000E+00  0.0000E+00  0.0000E+00  0.0000E+00  0.0000E+00  0.0000E+00  0.0000E+00  0.0000E+00  0.0000E+00  0.0000E+00  0.0000E+00  0.0000E+00  0.0000E+00  0.0000E+00  0.0000E+00
    -52.910  0.0000E+00  0.0000E+00  0.0000E+00  0.0000E+00  0.0000E+00  0.0000E+00  0.0000E+00  0.0000E+00  0.0000E+00  0.0000E+00  0.0000E+00  0.0000E+00  0.0000E+00  0.0000E+00  0.0000E+00  0.0000E+00  0.0000E+00  0.0000E+00
    -52.693  0.0000E+00  0.0000E+00  0.0000E+00  0.0000E+00  0.0000E+00  0.0000E+00  0.0000E+00  0.0000E+00  0.0000E+00  0.0000E+00  0.0000E+00  0.0000E+00  0.0000E+00  0.0000E+00  0.0000E+00  0.0000E+00  0.0000E+00  0.0000E+00
    -52.475  0.0000E+00  0.0000E+00  0.0000E+00  0.0000E+00  0.0000E+00  0.0000E+00  0.0000E+00  0.0000E+00  0.0000E+00  0.0000E+00  0.0000E+00  0.0000E+00  0.0000E+00  0.0000E+00  0.0000E+00  0.0000E+00  0.0000E+00  0.0000E+00
    -52.258  0.0000E+00  0.0000E+00  0.0000E+00  0.0000E+00  0.0000E+00  0.0000E+00  0.0000E+00  0.0000E+00  0.0000E+00  0.0000E+00  0.0000E+00  0.0000E+00  0.0000E+00  0.0000E+00  0.0000E+00  0.0000E+00  0.0000E+00  0.0000E+00
    -52.040  0.0000E+00  0.0000E+00  0.0000E+00  0.0000E+00  0.0000E+00  0.0000E+00  0.0000E+00  0.0000E+00  0.0000E+00  0.0000E+00  0.0000E+00  0.0000E+00  0.0000E+00  0.0000E+00  0.0000E+00  0.0000E+00  0.0000E+00  0.0000E+00
    -51.823  0.9248E-15  0.2880E-10  0.3962E-04  0.1373E-08  0.8110E-04  0.8809E-10  0.1711E-14  0.6030E-12  0.5278E-10  0.4591E-13  0.1053E-14  0.4534E-11  0.1060E-14  0.8717E-11  0.1037E-09  0.2429E-14  0.1648E-14  0.3326E-10
    -51.605  0.2312E-07  0.1153E-05  0.1556E+01  0.5462E-04  0.2937E+01  0.3249E-05  0.6030E-02  0.2678E-07  0.2158E-05  0.2049E-08  0.3367E-10  0.1662E-06  0.1054E-07  0.3501E-06  0.4070E-05  0.9321E-10  0.3154E-07  0.1303E-05
    -51.388  0.5308E-04  0.1762E-05  0.3000E+01  0.9604E-04  0.1630E+01  0.1374E-06  0.2178E+01  0.8124E-06  0.4216E-05  0.6646E-07  0.3939E-09  0.1556E-07  0.2410E-04  0.6975E-06  0.2264E-05  0.9317E-10  0.7224E-04  0.2185E-05
    -51.170  0.6376E-04  0.1526E-07  0.2368E-01  0.7956E-06  0.1190E-01  0.1160E-08  0.2367E+01  0.4367E-06  0.3186E-07  0.4071E-07  0.3644E-09  0.1400E-09  0.2896E-04  0.6065E-08  0.1623E-07  0.1313E-09  0.8682E-04  0.1737E-07
    -50.953  0.1312E-06  0.3415E-11  0.2037E-12  0.1084E-09  0.1891E-13  0.1169E-11  0.2855E-01  0.4058E-08  0.1568E-12  0.3885E-09  0.1143E-11  0.1352E-11  0.5962E-07  0.3026E-11  0.1271E-12  0.4602E-11  0.1787E-06  0.1222E-11
    -50.735  0.0000E+00  0.0000E+00  0.0000E+00  0.0000E+00  0.0000E+00  0.0000E+00  0.0000E+00  0.0000E+00  0.0000E+00  0.0000E+00  0.0000E+00  0.0000E+00  0.0000E+00  0.0000E+00  0.0000E+00  0.0000E+00  0.0000E+00  0.0000E+00
    -50.518  0.0000E+00  0.0000E+00  0.0000E+00  0.0000E+00  0.0000E+00  0.0000E+00  0.0000E+00  0.0000E+00  0.0000E+00  0.0000E+00  0.0000E+00  0.0000E+00  0.0000E+00  0.0000E+00  0.0000E+00  0.0000E+00  0.0000E+00  0.0000E+00
    -50.300  0.0000E+00  0.0000E+00  0.0000E+00  0.0000E+00  0.0000E+00  0.0000E+00  0.0000E+00  0.0000E+00  0.0000E+00  0.0000E+00  0.0000E+00  0.0000E+00  0.0000E+00  0.0000E+00  0.0000E+00  0.0000E+00  0.0000E+00  0.0000E+00
    -50.083  0.0000E+00  0.0000E+00  0.0000E+00  0.0000E+00  0.0000E+00  0.0000E+00  0.0000E+00  0.0000E+00  0.0000E+00  0.0000E+00  0.0000E+00  0.0000E+00  0.0000E+00  0.0000E+00  0.0000E+00  0.0000E+00  0.0000E+00  0.0000E+00
    -49.865  0.0000E+00  0.0000E+00  0.0000E+00  0.0000E+00  0.0000E+00  0.0000E+00  0.0000E+00  0.0000E+00  0.0000E+00  0.0000E+00  0.0000E+00  0.0000E+00  0.0000E+00  0.0000E+00  0.0000E+00  0.0000E+00  0.0000E+00  0.0000E+00
    -49.648  0.0000E+00  0.0000E+00  0.0000E+00  0.0000E+00  0.0000E+00  0.0000E+00  0.0000E+00  0.0000E+00  0.0000E+00  0.0000E+00  0.0000E+00  0.0000E+00  0.0000E+00  0.0000E+00  0.0000E+00  0.0000E+00  0.0000E+00  0.0000E+00
    -49.430  0.0000E+00  0.0000E+00  0.0000E+00  0.0000E+00  0.0000E+00  0.0000E+00  0.0000E+00  0.0000E+00  0.0000E+00  0.0000E+00  0.0000E+00  0.0000E+00  0.0000E+00  0.0000E+00  0.0000E+00  0.0000E+00  0.0000E+00  0.0000E+00
    -49.212  0.0000E+00  0.0000E+00  0.0000E+00  0.0000E+00  0.0000E+00  0.0000E+00  0.0000E+00  0.0000E+00  0.0000E+00  0.0000E+00  0.0000E+00  0.0000E+00  0.0000E+00  0.0000E+00  0.0000E+00  0.0000E+00  0.0000E+00  0.0000E+00
    -48.995  0.2855E-16  0.5554E-20  0.1331E-14  0.2696E-10  0.2278E-16  0.2930E-10  0.8735E-18  0.2907E-14  0.1860E-19  0.4402E-16  0.3057E-17  0.7822E-21  0.8540E-17  0.3071E-20  0.7479E-21  0.4774E-16  0.3174E-16  0.8031E-20
    -48.777  0.6998E-06  0.2018E-06  0.3295E-04  0.6618E+00  0.5549E-06  0.7120E+00  0.4201E-07  0.3837E-01  0.2206E-08  0.1116E-05  0.7394E-07  0.3029E-10  0.2094E-06  0.9156E-07  0.2050E-10  0.1204E-05  0.7747E-06  0.2752E-06
    -48.560  0.1635E-05  0.7121E-04  0.7721E-04  0.1546E+01  0.1293E-05  0.1658E+01  0.1067E-05  0.2255E+01  0.9421E-07  0.2629E-05  0.1720E-06  0.2306E-08  0.4896E-06  0.3242E-04  0.1159E-09  0.2834E-05  0.1807E-05  0.9735E-04
    -48.342  0.1934E-05  0.7172E-04  0.7652E-04  0.2319E+01  0.6303E-06  0.2160E+01  0.5620E-06  0.2246E+01  0.5646E-07  0.4015E-05  0.3582E-07  0.1752E-08  0.7524E-06  0.3274E-04  0.9520E-10  0.3743E-05  0.2318E-05  0.9828E-04
    -48.125  0.4405E-07  0.2159E-06  0.1751E-05  0.5305E-01  0.1440E-07  0.4922E-01  0.8243E-08  0.4030E-01  0.8309E-09  0.9040E-07  0.8150E-09  0.8671E-11  0.1714E-07  0.9856E-07  0.2071E-11  0.8411E-07  0.5293E-07  0.2959E-06
    -47.907  0.0000E+00  0.0000E+00  0.0000E+00  0.0000E+00  0.0000E+00  0.0000E+00  0.0000E+00  0.0000E+00  0.0000E+00  0.0000E+00  0.0000E+00  0.0000E+00  0.0000E+00  0.0000E+00  0.0000E+00  0.0000E+00  0.0000E+00  0.0000E+00
    -47.690  0.0000E+00  0.0000E+00  0.0000E+00  0.0000E+00  0.0000E+00  0.0000E+00  0.0000E+00  0.0000E+00  0.0000E+00  0.0000E+00  0.0000E+00  0.0000E+00  0.0000E+00  0.0000E+00  0.0000E+00  0.0000E+00  0.0000E+00  0.0000E+00
    -47.472  0.0000E+00  0.0000E+00  0.0000E+00  0.0000E+00  0.0000E+00  0.0000E+00  0.0000E+00  0.0000E+00  0.0000E+00  0.0000E+00  0.0000E+00  0.0000E+00  0.0000E+00  0.0000E+00  0.0000E+00  0.0000E+00  0.0000E+00  0.0000E+00
    -47.255  0.0000E+00  0.0000E+00  0.0000E+00  0.0000E+00  0.0000E+00  0.0000E+00  0.0000E+00  0.0000E+00  0.0000E+00  0.0000E+00  0.0000E+00  0.0000E+00  0.0000E+00  0.0000E+00  0.0000E+00  0.0000E+00  0.0000E+00  0.0000E+00
    -47.037  0.0000E+00  0.0000E+00  0.0000E+00  0.0000E+00  0.0000E+00  0.0000E+00  0.0000E+00  0.0000E+00  0.0000E+00  0.0000E+00  0.0000E+00  0.0000E+00  0.0000E+00  0.0000E+00  0.0000E+00  0.0000E+00  0.0000E+00  0.0000E+00
    -46.820  0.0000E+00  0.0000E+00  0.0000E+00  0.0000E+00  0.0000E+00  0.0000E+00  0.0000E+00  0.0000E+00  0.0000E+00  0.0000E+00  0.0000E+00  0.0000E+00  0.0000E+00  0.0000E+00  0.0000E+00  0.0000E+00  0.0000E+00  0.0000E+00
    -46.602  0.0000E+00  0.0000E+00  0.0000E+00  0.0000E+00  0.0000E+00  0.0000E+00  0.0000E+00  0.0000E+00  0.0000E+00  0.0000E+00  0.0000E+00  0.0000E+00  0.0000E+00  0.0000E+00  0.0000E+00  0.0000E+00  0.0000E+00  0.0000E+00
    -46.385  0.0000E+00  0.0000E+00  0.0000E+00  0.0000E+00  0.0000E+00  0.0000E+00  0.0000E+00  0.0000E+00  0.0000E+00  0.0000E+00  0.0000E+00  0.0000E+00  0.0000E+00  0.0000E+00  0.0000E+00  0.0000E+00  0.0000E+00  0.0000E+00
    -46.167  0.0000E+00  0.0000E+00  0.0000E+00  0.0000E+00  0.0000E+00  0.0000E+00  0.0000E+00  0.0000E+00  0.0000E+00  0.0000E+00  0.0000E+00  0.0000E+00  0.0000E+00  0.0000E+00  0.0000E+00  0.0000E+00  0.0000E+00  0.0000E+00
    -45.950  0.0000E+00  0.0000E+00  0.0000E+00  0.0000E+00  0.0000E+00  0.0000E+00  0.0000E+00  0.0000E+00  0.0000E+00  0.0000E+00  0.0000E+00  0.0000E+00  0.0000E+00  0.0000E+00  0.0000E+00  0.0000E+00  0.0000E+00  0.0000E+00
    -45.732  0.0000E+00  0.0000E+00  0.0000E+00  0.0000E+00  0.0000E+00  0.0000E+00  0.0000E+00  0.0000E+00  0.0000E+00  0.0000E+00  0.0000E+00  0.0000E+00  0.0000E+00  0.0000E+00  0.0000E+00  0.0000E+00  0.0000E+00  0.0000E+00
    -45.515  0.0000E+00  0.0000E+00  0.0000E+00  0.0000E+00  0.0000E+00  0.0000E+00  0.0000E+00  0.0000E+00  0.0000E+00  0.0000E+00  0.0000E+00  0.0000E+00  0.0000E+00  0.0000E+00  0.0000E+00  0.0000E+00  0.0000E+00  0.0000E+00
    -45.297  0.0000E+00  0.0000E+00  0.0000E+00  0.0000E+00  0.0000E+00  0.0000E+00  0.0000E+00  0.0000E+00  0.0000E+00  0.0000E+00  0.0000E+00  0.0000E+00  0.0000E+00  0.0000E+00  0.0000E+00  0.0000E+00  0.0000E+00  0.0000E+00
    -45.080  0.0000E+00  0.0000E+00  0.0000E+00  0.0000E+00  0.0000E+00  0.0000E+00  0.0000E+00  0.0000E+00  0.0000E+00  0.0000E+00  0.0000E+00  0.0000E+00  0.0000E+00  0.0000E+00  0.0000E+00  0.0000E+00  0.0000E+00  0.0000E+00
    -44.862  0.0000E+00  0.0000E+00  0.0000E+00  0.0000E+00  0.0000E+00  0.0000E+00  0.0000E+00  0.0000E+00  0.0000E+00  0.0000E+00  0.0000E+00  0.0000E+00  0.0000E+00  0.0000E+00  0.0000E+00  0.0000E+00  0.0000E+00  0.0000E+00
    -44.645  0.0000E+00  0.0000E+00  0.0000E+00  0.0000E+00  0.0000E+00  0.0000E+00  0.0000E+00  0.0000E+00  0.0000E+00  0.0000E+00  0.0000E+00  0.0000E+00  0.0000E+00  0.0000E+00  0.0000E+00  0.0000E+00  0.0000E+00  0.0000E+00
    -44.427  0.0000E+00  0.0000E+00  0.0000E+00  0.0000E+00  0.0000E+00  0.0000E+00  0.0000E+00  0.0000E+00  0.0000E+00  0.0000E+00  0.0000E+00  0.0000E+00  0.0000E+00  0.0000E+00  0.0000E+00  0.0000E+00  0.0000E+00  0.0000E+00
    -44.209  0.0000E+00  0.0000E+00  0.0000E+00  0.0000E+00  0.0000E+00  0.0000E+00  0.0000E+00  0.0000E+00  0.0000E+00  0.0000E+00  0.0000E+00  0.0000E+00  0.0000E+00  0.0000E+00  0.0000E+00  0.0000E+00  0.0000E+00  0.0000E+00
    -43.992  0.0000E+00  0.0000E+00  0.0000E+00  0.0000E+00  0.0000E+00  0.0000E+00  0.0000E+00  0.0000E+00  0.0000E+00  0.0000E+00  0.0000E+00  0.0000E+00  0.0000E+00  0.0000E+00  0.0000E+00  0.0000E+00  0.0000E+00  0.0000E+00
    -43.774  0.0000E+00  0.0000E+00  0.0000E+00  0.0000E+00  0.0000E+00  0.0000E+00  0.0000E+00  0.0000E+00  0.0000E+00  0.0000E+00  0.0000E+00  0.0000E+00  0.0000E+00  0.0000E+00  0.0000E+00  0.0000E+00  0.0000E+00  0.0000E+00