 vasp.6.4.1 05Apr23 (build Jun 01 2023 13:46:15) complex                        
  
 executed on             LinuxIFC date 2023.12.16  20:12:38
 running   20 mpi-ranks, on    5 nodes
 distrk:  each k-point on   20 cores,    1 groups
 distr:  one band on NCORE=   1 cores,   20 groups


--------------------------------------------------------------------------------------------------------


 INCAR:
   ALGO = Fast
   EDIFF = 0.0002
   ENCUT = 550
   IBRION = 2
   ISIF = 4
   ISMEAR = 0
   ISPIN = 2
   IVDW = 13
   LASPH = True
   LMAXMIX = 4
   LORBIT = 11
   LREAL = Auto
   LWAVE = False
   MAGMOM = 1*2.641 2*-2.641 2*2.641 2*-2.641 1*2.641 8*0.0
   NELM = 100
   NSW = 99
   PREC = Accurate
   SIGMA = 0.05

 POTCAR:   PAW_PBE Fe_pv 06Sep2000                
 POTCAR:   PAW_PBE Se 06Sep2000                   
 -----------------------------------------------------------------------------
|                                                                             |
|           W    W    AA    RRRRR   N    N  II  N    N   GGGG   !!!           |
|           W    W   A  A   R    R  NN   N  II  NN   N  G    G  !!!           |
|           W    W  A    A  R    R  N N  N  II  N N  N  G       !!!           |
|           W WW W  AAAAAA  RRRRR   N  N N  II  N  N N  G  GGG   !            |
|           WW  WW  A    A  R   R   N   NN  II  N   NN  G    G                |
|           W    W  A    A  R    R  N    N  II  N    N   GGGG   !!!           |
|                                                                             |
|     For optimal performance we recommend to set                             |
|       NCORE = 2 up to number-of-cores-per-socket                            |
|     NCORE specifies how many cores store one orbital (NPAR=cpu/NCORE).      |
|     This setting can greatly improve the performance of VASP for DFT.       |
|     The default, NCORE=1 might be grossly inefficient on modern             |
|     multi-core architectures or massively parallel machines. Do your        |
|     own testing! More info at https://www.vasp.at/wiki/index.php/NCORE      |
|     Unfortunately you need to use the default for GW and RPA                |
|     calculations (for HF NCORE is supported but not extensively tested      |
|     yet).                                                                   |
|                                                                             |
 -----------------------------------------------------------------------------

 POTCAR:   PAW_PBE Fe_pv 06Sep2000                
   VRHFIN =Fe:  3pd7s1                                                                              
   LEXCH  = PE                                                                                      
   EATOM  =  2456.8974 eV,  180.5769 Ry                                                             
                                                                                                    
   TITEL  = PAW_PBE Fe_pv 06Sep2000                                                                 
   LULTRA =        F    use ultrasoft PP ?                                                          
   IUNSCR =        1    unscreen: 0-lin 1-nonlin 2-no                                               
   RPACOR =    1.750    partial core radius                                                         
   POMASS =   55.847; ZVAL   =   14.000    mass and valenz                                          
   RCORE  =    2.200    outmost cutoff radius                                                       
   RWIGS  =    2.200; RWIGS  =    1.164    wigner-seitz radius (au A)                               
   ENMAX  =  293.238; ENMIN  =  219.929 eV                                                          
   RCLOC  =    1.701    cutoff for local pot                                                        
   LCOR   =        T    correct aug charges                                                         
   LPAW   =        T    paw PP                                                                      
   EAUG   =  578.342                                                                                
   DEXC   =    -.002                                                                                
   RMAX   =    2.693    core radius for proj-oper                                                   
   RAUG   =    1.300    factor for augmentation sphere                                              
   RDEP   =    2.296    radius for radial grids                                                     
   QCUT   =   -4.642; QGAM   =    9.285    optimization parameters                                  
                                                                                                    
   Description                                                                                      
     l     E      TYP  RCUT    TYP  RCUT                                                            
     1   .000     23  2.000                                                                         
     1  -.400     23  2.000                                                                         
     2   .000     23  2.200                                                                         
     2   .000     23  2.200                                                                         
     0   .000     23  2.000                                                                         
     0  2.000     23  2.000                                                                         
     3   .000      7   .000                                                                         
  local pseudopotential read in
  partial core-charges read in
  atomic valenz-charges read in
  non local Contribution for L=           1  read in
    real space projection operators read in
  non local Contribution for L=           1  read in
    real space projection operators read in
  non local Contribution for L=           2  read in
    real space projection operators read in
  non local Contribution for L=           2  read in
    real space projection operators read in
  non local Contribution for L=           0  read in
    real space projection operators read in
  non local Contribution for L=           0  read in
    real space projection operators read in
    PAW grid and wavefunctions read in
 
   number of l-projection  operators is LMAX  =           6
   number of lm-projection operators is LMMAX =          18
 
 POTCAR:   PAW_PBE Se 06Sep2000                   
   VRHFIN =Se: s2p4                                                                                 
   LEXCH  = PE                                                                                      
   EATOM  =   256.9644 eV,   18.8864 Ry                                                             
                                                                                                    
   TITEL  = PAW_PBE Se 06Sep2000                                                                    
   LULTRA =        F    use ultrasoft PP ?                                                          
   IUNSCR =        1    unscreen: 0-lin 1-nonlin 2-no                                               
   RPACOR =    1.900    partial core radius                                                         
   POMASS =   78.960; ZVAL   =    6.000    mass and valenz                                          
   RCORE  =    2.100    outmost cutoff radius                                                       
   RWIGS  =    2.200; RWIGS  =    1.164    wigner-seitz radius (au A)                               
   ENMAX  =  211.534; ENMIN  =  158.651 eV                                                          
   ICORE  =        3    local potential                                                             
   LCOR   =        T    correct aug charges                                                         
   LPAW   =        T    paw PP                                                                      
   EAUG   =  446.842                                                                                
   DEXC   =    -.031                                                                                
   RMAX   =    3.170    core radius for proj-oper                                                   
   RAUG   =    1.300    factor for augmentation sphere                                              
   RDEP   =    2.177    radius for radial grids                                                     
   QCUT   =   -3.943; QGAM   =    7.886    optimization parameters                                  
                                                                                                    
   Description                                                                                      
     l     E      TYP  RCUT    TYP  RCUT                                                            
     0   .000     23  2.100                                                                         
     0   .000     23  2.100                                                                         
     1   .000     23  2.100                                                                         
     1   .000     23  2.100                                                                         
     2   .000     23  2.100                                                                         
     3  -.100      7  2.100                                                                         
  local pseudopotential read in
  partial core-charges read in
  atomic valenz-charges read in
  non local Contribution for L=           0  read in
    real space projection operators read in
  non local Contribution for L=           0  read in
    real space projection operators read in
  non local Contribution for L=           1  read in
    real space projection operators read in
  non local Contribution for L=           1  read in
    real space projection operators read in
  non local Contribution for L=           2  read in
    real space projection operators read in
    PAW grid and wavefunctions read in
 
   number of l-projection  operators is LMAX  =           5
   number of lm-projection operators is LMMAX =          13
 
 Optimization of the real space projectors (new method)

 maximal supplied QI-value         = 17.01
 optimisation between [QCUT,QGAM] = [ 11.91, 23.98] = [ 39.69,161.04] Ry 
 Optimized for a Real-space Cutoff    1.45 Angstroem

   l    n(q)    QCUT    max X(q) W(low)/X(q) W(high)/X(q)  e(spline) 
   1     10    11.905     4.550    0.27E-05    0.11E-05    0.28E-07
   1     10    11.905     5.234    0.10E-04    0.61E-04    0.17E-06
   2      9    11.905     3.960    0.19E-04    0.73E-05    0.50E-07
   2      9    11.905    29.565    0.24E-03    0.51E-04    0.27E-06
   0     10    11.905    23.582    0.17E-04    0.10E-05    0.14E-07
   0     10    11.905    39.747    0.23E-04    0.68E-05    0.74E-07
 Optimization of the real space projectors (new method)

 maximal supplied QI-value         = 17.95
 optimisation between [QCUT,QGAM] = [ 11.85, 23.88] = [ 39.31,159.64] Ry 
 Optimized for a Real-space Cutoff    1.18 Angstroem

   l    n(q)    QCUT    max X(q) W(low)/X(q) W(high)/X(q)  e(spline) 
   0      8    11.849     6.499    0.17E-04    0.94E-05    0.89E-08
   0      8    11.849    52.623    0.21E-03    0.78E-04    0.81E-07
   1      8    11.849     4.229    0.79E-04    0.83E-04    0.23E-07
   1      8    11.849    29.991    0.12E-03    0.43E-03    0.14E-06
   2      7    11.849     3.719    0.22E-03    0.64E-04    0.38E-07
 PAW_PBE Fe_pv 06Sep2000                :
 energy of atom  1       EATOM=-2456.8974
 kinetic energy error for atom=    0.0060 (will be added to EATOM!!)
 PAW_PBE Se 06Sep2000                   :
 energy of atom  2       EATOM= -256.9644
 kinetic energy error for atom=    0.0007 (will be added to EATOM!!)
 
 
 POSCAR: Fe8 Se8
  positions in direct lattice
  velocities in cartesian coordinates
 exchange correlation table for  LEXCH =        8
   RHO(1)=    0.500       N(1)  =     2000
   RHO(2)=  100.500       N(2)  =     4000
 


--------------------------------------------------------------------------------------------------------


 ion  position               nearest neighbor table
   1  0.000  0.000  0.000-  11 2.29  14 2.29   5 2.44   8 2.44
   2  0.000  0.500  0.000-  12 2.29  13 2.29   6 2.44   7 2.44
   3  0.500  0.000  0.000-   9 2.29  16 2.29   6 2.44   7 2.44
   4  0.500  0.500  0.000-  10 2.29  15 2.29   5 2.44   8 2.44
   5  0.250  0.250  0.000-   9 2.29  13 2.29   1 2.44   4 2.44
   6  0.250  0.750  0.000-  10 2.29  14 2.29   2 2.44   3 2.44
   7  0.750  0.250  0.000-  11 2.29  15 2.29   2 2.44   3 2.44
   8  0.750  0.750  0.000-  12 2.29  16 2.29   1 2.44   4 2.44
   9  0.375  0.125  0.698-   3 2.29   5 2.29
  10  0.375  0.625  0.698-   4 2.29   6 2.29
  11  0.875  0.125  0.698-   1 2.29   7 2.29
  12  0.875  0.625  0.698-   2 2.29   8 2.29
  13  0.125  0.375  0.302-   2 2.29   5 2.29
  14  0.125  0.875  0.302-   1 2.29   6 2.29
  15  0.625  0.375  0.302-   4 2.29   7 2.29
  16  0.625  0.875  0.302-   3 2.29   8 2.29
 
  LATTYP: Found a base centered orthorhombic cell.
 ALAT       =     9.7644645081
 B/A-ratio  =     1.1934403124
 C/A-ratio  =     0.5994158632
  
  Lattice vectors:
  
 A1 = (   4.8822322541,  -5.8266527866,   0.0000000000)
 A2 = (   4.8822322541,   5.8266527866,   0.0000000000)
 A3 = (   0.0000000000,   0.0000000000,   5.8529749219)


Analysis of symmetry for initial positions (statically):
=====================================================================
 Subroutine PRICEL returns following result:
 
  LATTYP: Found a base centered orthorhombic cell.
 ALAT       =     4.8822322541
 B/A-ratio  =     1.1934403124
 C/A-ratio  =     1.1988317264
  
  Lattice vectors:
  
 A1 = (   2.4411161270,  -2.9133263933,   0.0000000000)
 A2 = (   2.4411161270,   2.9133263933,   0.0000000000)
 A3 = (   0.0000000000,   0.0000000000,   5.8529749219)
 
   4 primitive cells build up your supercell.
 

 Routine SETGRP: Setting up the symmetry group for a 
 base centered orthorhombic supercell.


 Subroutine GETGRP returns: Found  8 space group operations
 (whereof  4 operations were pure point group operations)
 out of a pool of  8 trial point group operations.


The static configuration has the point symmetry C_2h.
 The point group associated with its full space group is D_2h.


Analysis of symmetry for dynamics (positions and initial velocities):
=====================================================================
 Subroutine PRICEL returns following result:
 
  LATTYP: Found a base centered orthorhombic cell.
 ALAT       =     4.8822322541
 B/A-ratio  =     1.1934403124
 C/A-ratio  =     1.1988317264
  
  Lattice vectors:
  
 A1 = (   2.4411161270,  -2.9133263933,   0.0000000000)
 A2 = (   2.4411161270,   2.9133263933,   0.0000000000)
 A3 = (   0.0000000000,   0.0000000000,   5.8529749219)
 
   4 primitive cells build up your supercell.
 

 Routine SETGRP: Setting up the symmetry group for a 
 base centered orthorhombic supercell.


 Subroutine GETGRP returns: Found  8 space group operations
 (whereof  4 operations were pure point group operations)
 out of a pool of  8 trial point group operations.


The dynamic configuration has the point symmetry C_2h.
 The point group associated with its full space group is D_2h.


Analysis of structural, dynamic, and magnetic symmetry:
=====================================================================
 Subroutine PRICEL returns following result:
 
  LATTYP: Found a base centered orthorhombic cell.
 ALAT       =     4.8822322541
 B/A-ratio  =     1.1934403124
 C/A-ratio  =     1.1988317264
  
  Lattice vectors:
  
 A1 = (   2.4411161270,  -2.9133263933,   0.0000000000)
 A2 = (   2.4411161270,   2.9133263933,   0.0000000000)
 A3 = (   0.0000000000,   0.0000000000,   5.8529749219)
 
   4 primitive cells build up your supercell.
 

 Routine SETGRP: Setting up the symmetry group for a 
 base centered orthorhombic supercell.


 Subroutine GETGRP returns: Found  8 space group operations
 (whereof  4 operations were pure point group operations)
 out of a pool of  8 trial point group operations.


The overall configuration has the point symmetry C_2h.
 The point group associated with its full space group is D_2h.


 Subroutine INISYM returns: Found  8 space group operations
 (whereof  4 operations are pure point group operations),
 and found     4 'primitive' translations


----------------------------------------------------------------------------------------

                                     Primitive cell                                     

  volume of cell :      83.2500

  direct lattice vectors                    reciprocal lattice vectors
     2.441116127 -2.913326393  0.000000000     0.204824340 -0.171625123  0.000000000
     2.441116127  2.913326393  0.000000000     0.204824340  0.171625123  0.000000000
     0.000000000  0.000000000  5.852974922     0.000000000  0.000000000  0.170853286

  length of vectors
     3.800857616  3.800857616  5.852974922     0.267223115  0.267223115  0.170853286

  position of ions in fractional coordinates (direct lattice)
     0.000000000  0.000000000  0.000000000
     0.500000000  0.500000000  0.000000000
     0.750000000  0.250000000  0.697737230
     0.250000000  0.750000000  0.302262770

  ion indices of the primitive-cell ions
   primitive index   ion index
                 1           1
                 2           5
                 3          11
                 4          14

----------------------------------------------------------------------------------------

 
 
 KPOINTS: KPOINTS                                 

Automatic generation of k-mesh.
 Grid dimensions read from file:
 generate k-points for:    7    7    9

 Generating k-lattice:

  Cartesian coordinates                     Fractional coordinates (reciprocal lattice)
     0.014630310 -0.012258937  0.000000000     0.142857143  0.000000000  0.000000000
     0.014630310  0.012258937  0.000000000     0.000000000  0.142857143  0.000000000
     0.000000000  0.000000000  0.018983698     0.000000000  0.000000000  0.111111111

  Length of vectors
     0.019087365  0.019087365  0.018983698

  Shift w.r.t. Gamma in fractional coordinates (k-lattice)
     0.000000000  0.000000000  0.000000000

 
 Subroutine IBZKPT returns following result:
 ===========================================
 
 Found     80 irreducible k-points:
 
 Following reciprocal coordinates:
            Coordinates               Weight
  0.000000  0.000000  0.000000      1.000000
  0.142857 -0.000000  0.000000      4.000000
  0.285714 -0.000000  0.000000      4.000000
  0.428571 -0.000000  0.000000      4.000000
  0.142857  0.142857  0.000000      2.000000
  0.285714  0.142857  0.000000      4.000000
  0.428571  0.142857  0.000000      4.000000
 -0.428571  0.142857  0.000000      4.000000
 -0.285714  0.142857  0.000000      4.000000
 -0.142857  0.142857  0.000000      2.000000
  0.285714  0.285714  0.000000      2.000000
  0.428571  0.285714  0.000000      4.000000
 -0.428571  0.285714  0.000000      4.000000
 -0.285714  0.285714  0.000000      2.000000
  0.428571  0.428571  0.000000      2.000000
 -0.428571  0.428571  0.000000      2.000000
  0.000000  0.000000  0.111111      2.000000
  0.142857 -0.000000  0.111111      8.000000
  0.285714 -0.000000  0.111111      8.000000
  0.428571 -0.000000  0.111111      8.000000
  0.142857  0.142857  0.111111      4.000000
  0.285714  0.142857  0.111111      8.000000
  0.428571  0.142857  0.111111      8.000000
 -0.428571  0.142857  0.111111      8.000000
 -0.285714  0.142857  0.111111      8.000000
 -0.142857  0.142857  0.111111      4.000000
  0.285714  0.285714  0.111111      4.000000
  0.428571  0.285714  0.111111      8.000000
 -0.428571  0.285714  0.111111      8.000000
 -0.285714  0.285714  0.111111      4.000000
  0.428571  0.428571  0.111111      4.000000
 -0.428571  0.428571  0.111111      4.000000
  0.000000  0.000000  0.222222      2.000000
  0.142857 -0.000000  0.222222      8.000000
  0.285714 -0.000000  0.222222      8.000000
  0.428571 -0.000000  0.222222      8.000000
  0.142857  0.142857  0.222222      4.000000
  0.285714  0.142857  0.222222      8.000000
  0.428571  0.142857  0.222222      8.000000
 -0.428571  0.142857  0.222222      8.000000
 -0.285714  0.142857  0.222222      8.000000
 -0.142857  0.142857  0.222222      4.000000
  0.285714  0.285714  0.222222      4.000000
  0.428571  0.285714  0.222222      8.000000
 -0.428571  0.285714  0.222222      8.000000
 -0.285714  0.285714  0.222222      4.000000
  0.428571  0.428571  0.222222      4.000000
 -0.428571  0.428571  0.222222      4.000000
  0.000000  0.000000  0.333333      2.000000
  0.142857 -0.000000  0.333333      8.000000
  0.285714 -0.000000  0.333333      8.000000
  0.428571 -0.000000  0.333333      8.000000
  0.142857  0.142857  0.333333      4.000000
  0.285714  0.142857  0.333333      8.000000
  0.428571  0.142857  0.333333      8.000000
 -0.428571  0.142857  0.333333      8.000000
 -0.285714  0.142857  0.333333      8.000000
 -0.142857  0.142857  0.333333      4.000000
  0.285714  0.285714  0.333333      4.000000
  0.428571  0.285714  0.333333      8.000000
 -0.428571  0.285714  0.333333      8.000000
 -0.285714  0.285714  0.333333      4.000000
  0.428571  0.428571  0.333333      4.000000
 -0.428571  0.428571  0.333333      4.000000
  0.000000  0.000000  0.444444      2.000000
  0.142857 -0.000000  0.444444      8.000000
  0.285714 -0.000000  0.444444      8.000000
  0.428571 -0.000000  0.444444      8.000000
  0.142857  0.142857  0.444444      4.000000
  0.285714  0.142857  0.444444      8.000000
  0.428571  0.142857  0.444444      8.000000
 -0.428571  0.142857  0.444444      8.000000
 -0.285714  0.142857  0.444444      8.000000
 -0.142857  0.142857  0.444444      4.000000
  0.285714  0.285714  0.444444      4.000000
  0.428571  0.285714  0.444444      8.000000
 -0.428571  0.285714  0.444444      8.000000
 -0.285714  0.285714  0.444444      4.000000
  0.428571  0.428571  0.444444      4.000000
 -0.428571  0.428571  0.444444      4.000000
 
 Following cartesian coordinates:
            Coordinates               Weight
  0.000000  0.000000  0.000000      1.000000
  0.014630 -0.012259  0.000000      4.000000
  0.029261 -0.024518  0.000000      4.000000
  0.043891 -0.036777  0.000000      4.000000
  0.029261  0.000000  0.000000      2.000000
  0.043891 -0.012259  0.000000      4.000000
  0.058521 -0.024518  0.000000      4.000000
 -0.029261  0.049036  0.000000      4.000000
 -0.014630  0.036777  0.000000      4.000000
 -0.000000  0.024518  0.000000      2.000000
  0.058521  0.000000  0.000000      2.000000
  0.073152 -0.012259  0.000000      4.000000
 -0.014630  0.061295  0.000000      4.000000
  0.000000  0.049036  0.000000      2.000000
  0.087782 -0.000000  0.000000      2.000000
  0.000000  0.073554  0.000000      2.000000
  0.000000  0.000000  0.018984      2.000000
  0.014630 -0.012259  0.018984      8.000000
  0.029261 -0.024518  0.018984      8.000000
  0.043891 -0.036777  0.018984      8.000000
  0.029261  0.000000  0.018984      4.000000
  0.043891 -0.012259  0.018984      8.000000
  0.058521 -0.024518  0.018984      8.000000
 -0.029261  0.049036  0.018984      8.000000
 -0.014630  0.036777  0.018984      8.000000
 -0.000000  0.024518  0.018984      4.000000
  0.058521  0.000000  0.018984      4.000000
  0.073152 -0.012259  0.018984      8.000000
 -0.014630  0.061295  0.018984      8.000000
  0.000000  0.049036  0.018984      4.000000
  0.087782 -0.000000  0.018984      4.000000
  0.000000  0.073554  0.018984      4.000000
  0.000000  0.000000  0.037967      2.000000
  0.014630 -0.012259  0.037967      8.000000
  0.029261 -0.024518  0.037967      8.000000
  0.043891 -0.036777  0.037967      8.000000
  0.029261  0.000000  0.037967      4.000000
  0.043891 -0.012259  0.037967      8.000000
  0.058521 -0.024518  0.037967      8.000000
 -0.029261  0.049036  0.037967      8.000000
 -0.014630  0.036777  0.037967      8.000000
 -0.000000  0.024518  0.037967      4.000000
  0.058521  0.000000  0.037967      4.000000
  0.073152 -0.012259  0.037967      8.000000
 -0.014630  0.061295  0.037967      8.000000
  0.000000  0.049036  0.037967      4.000000
  0.087782 -0.000000  0.037967      4.000000
  0.000000  0.073554  0.037967      4.000000
  0.000000  0.000000  0.056951      2.000000
  0.014630 -0.012259  0.056951      8.000000
  0.029261 -0.024518  0.056951      8.000000
  0.043891 -0.036777  0.056951      8.000000
  0.029261  0.000000  0.056951      4.000000
  0.043891 -0.012259  0.056951      8.000000
  0.058521 -0.024518  0.056951      8.000000
 -0.029261  0.049036  0.056951      8.000000
 -0.014630  0.036777  0.056951      8.000000
 -0.000000  0.024518  0.056951      4.000000
  0.058521  0.000000  0.056951      4.000000
  0.073152 -0.012259  0.056951      8.000000
 -0.014630  0.061295  0.056951      8.000000
  0.000000  0.049036  0.056951      4.000000
  0.087782 -0.000000  0.056951      4.000000
  0.000000  0.073554  0.056951      4.000000
  0.000000  0.000000  0.075935      2.000000
  0.014630 -0.012259  0.075935      8.000000
  0.029261 -0.024518  0.075935      8.000000
  0.043891 -0.036777  0.075935      8.000000
  0.029261  0.000000  0.075935      4.000000
  0.043891 -0.012259  0.075935      8.000000
  0.058521 -0.024518  0.075935      8.000000
 -0.029261  0.049036  0.075935      8.000000
 -0.014630  0.036777  0.075935      8.000000
 -0.000000  0.024518  0.075935      4.000000
  0.058521  0.000000  0.075935      4.000000
  0.073152 -0.012259  0.075935      8.000000
 -0.014630  0.061295  0.075935      8.000000
  0.000000  0.049036  0.075935      4.000000
  0.087782 -0.000000  0.075935      4.000000
  0.000000  0.073554  0.075935      4.000000
 


--------------------------------------------------------------------------------------------------------




 Dimension of arrays:
   k-points           NKPTS =     80   k-points in BZ     NKDIM =     80   number of bands    NBANDS=    100
   number of dos      NEDOS =    301   number of ions     NIONS =     16
   non local maximal  LDIM  =      6   non local SUM 2l+1 LMDIM =     18
   total plane-waves  NPLWV = 172800
   max r-space proj   IRMAX =   6648   max aug-charges    IRDMAX=  22827
   dimension x,y,z NGX =    60 NGY =   60 NGZ =   48
   dimension x,y,z NGXF=   120 NGYF=  120 NGZF=   96
   support grid    NGXF=   120 NGYF=  120 NGZF=   96
   ions per type =               8   8
   NGX,Y,Z   is equivalent  to a cutoff of  13.12, 13.12, 13.63 a.u.
   NGXF,Y,Z  is equivalent  to a cutoff of  26.24, 26.24, 27.27 a.u.

 SYSTEM =  unknown system                          
 POSCAR =  Fe8 Se8                                 

 Startparameter for this run:
   NWRITE =      2    write-flag & timer
   PREC   = accura    normal or accurate (medium, high low for compatibility)
   ISTART =      0    job   : 0-new  1-cont  2-samecut
   ICHARG =      2    charge: 1-file 2-atom 10-const
   ISPIN  =      2    spin polarized calculation?
   LNONCOLLINEAR =      F non collinear calculations
   LSORBIT =      F    spin-orbit coupling
   INIWAV =      1    electr: 0-lowe 1-rand  2-diag
   LASPH  =      T    aspherical Exc in radial PAW
 Electronic Relaxation 1
   ENCUT  =  550.0 eV  40.42 Ry    6.36 a.u.  14.54 14.54 11.19*2*pi/ulx,y,z
   ENINI  =  550.0     initial cutoff
   ENAUG  =  578.3 eV  augmentation charge cutoff
   NELM   =    100;   NELMIN=  2; NELMDL=  0     # of ELM steps 
   EDIFF  = 0.2E-03   stopping-criterion for ELM
   LREAL  =      T    real-space projection
   NLSPLINE    = F    spline interpolate recip. space projectors
   LCOMPAT=      F    compatible to vasp.4.4
   GGA_COMPAT  = T    GGA compatible to vasp.4.4-vasp.4.6
   LMAXPAW     = -100 max onsite density
   LMAXMIX     =    4 max onsite mixed and CHGCAR
   VOSKOWN=      0    Vosko Wilk Nusair interpolation
   ROPT   =   -0.00025  -0.00025
 Ionic relaxation
   EDIFFG = 0.2E-02   stopping-criterion for IOM
   NSW    =     99    number of steps for IOM
   NBLOCK =      1;   KBLOCK =     99    inner block; outer block 
   IBRION =      2    ionic relax: 0-MD 1-quasi-New 2-CG
   NFREE  =      1    steps in history (QN), initial steepest desc. (CG)
   ISIF   =      4    stress and relaxation
   IWAVPR =     11    prediction:  0-non 1-charg 2-wave 3-comb
   ISYM   =      2    0-nonsym 1-usesym 2-fastsym
   LCORR  =      T    Harris-Foulkes like correction to forces

   POTIM  = 0.5000    time-step for ionic-motion
   TEIN   =    0.0    initial temperature
   TEBEG  =    0.0;   TEEND  =   0.0 temperature during run
   SMASS  =  -3.00    Nose mass-parameter (am)
   estimated Nose-frequenzy (Omega)   =  0.10E-29 period in steps = 0.13E+47 mass=  -0.132E-26a.u.
   SCALEE = 1.0000    scale energy and forces
   NPACO  =    256;   APACO  = 10.0  distance and # of slots for P.C.
   PSTRESS=    0.0 pullay stress

  Mass of Ions in am
   POMASS =  55.85 78.96
  Ionic Valenz
   ZVAL   =  14.00  6.00
  Atomic Wigner-Seitz radii
   RWIGS  =  -1.00 -1.00
  virtual crystal weights 
   VCA    =   1.00  1.00
   NELECT =     160.0000    total number of electrons
   NUPDOWN=      -1.0000    fix difference up-down

 DOS related values:
   EMIN   =  10.00;   EMAX   =-10.00  energy-range for DOS
   EFERMI =   0.00;   METHOD = LEGACY      
   ISMEAR =     0;   SIGMA  =   0.05  broadening in eV -4-tet -1-fermi 0-gaus

 Electronic relaxation 2 (details)
   IALGO  =     68    algorithm
   LDIAG  =      T    sub-space diagonalisation (order eigenvalues)
   LSUBROT=      F    optimize rotation matrix (better conditioning)
   TURBO    =      0    0=normal 1=particle mesh
   IRESTART =      0    0=no restart 2=restart with 2 vectors
   NREBOOT  =      0    no. of reboots
   NMIN     =      0    reboot dimension
   EREF     =   0.00    reference energy to select bands
   IMIX   =      4    mixing-type and parameters
     AMIX     =   0.40;   BMIX     =  1.00
     AMIX_MAG =   1.60;   BMIX_MAG =  1.00
     AMIN     =   0.10
     WC   =   100.;   INIMIX=   1;  MIXPRE=   1;  MAXMIX= -45

 Intra band minimization:
   WEIMIN = 0.0010     energy-eigenvalue tresh-hold
   EBREAK =  0.50E-06  absolut break condition
   DEPER  =   0.30     relativ break condition  

   TIME   =   0.40     timestep for ELM

  volume/ion in A,a.u.               =      20.81       140.45
  Fermi-wavevector in a.u.,A,eV,Ry     =   1.282232  2.423068 22.369610  1.644120
  Thomas-Fermi vector in A             =   2.414556
 
 Write flags
   LWAVE        =      F    write WAVECAR
   LDOWNSAMPLE  =      F    k-point downsampling of WAVECAR
   LCHARG       =      T    write CHGCAR
   LVTOT        =      F    write LOCPOT, total local potential
   LVHAR        =      F    write LOCPOT, Hartree potential only
   LELF         =      F    write electronic localiz. function (ELF)
   LORBIT       =     11    0 simple, 1 ext, 2 COOP (PROOUT), +10 PAW based schemes


 Dipole corrections
   LMONO  =      F    monopole corrections only (constant potential shift)
   LDIPOL =      F    correct potential (dipole corrections)
   IDIPOL =      0    1-x, 2-y, 3-z, 4-all directions 
   EPSILON=  1.0000000 bulk dielectric constant

 Exchange correlation treatment:
   GGA     =    --    GGA type
   LEXCH   =     8    internal setting for exchange type
   LIBXC   =     F    Libxc                    
   VOSKOWN =     0    Vosko Wilk Nusair interpolation
   LHFCALC =     F    Hartree Fock is set to
   LHFONE  =     F    Hartree Fock one center treatment
   AEXX    =    0.0000 exact exchange contribution

 Linear response parameters
   LEPSILON=     F    determine dielectric tensor
   LRPA    =     F    only Hartree local field effects (RPA)
   LNABLA  =     F    use nabla operator in PAW spheres
   LVEL    =     F    velocity operator in full k-point grid
   CSHIFT  =0.1000    complex shift for real part using Kramers Kronig
   OMEGAMAX=  -1.0    maximum frequency
   DEG_THRESHOLD= 0.2000000E-02 threshold for treating states as degnerate
   RTIME   =   -0.100 relaxation time in fs
  (WPLASMAI=    0.000 imaginary part of plasma frequency in eV, 0.658/RTIME)
   DFIELD  = 0.0000000 0.0000000 0.0000000 field for delta impulse in time
 
  Optional k-point grid parameters
   LKPOINTS_OPT  =     F    use optional k-point grid
   KPOINTS_OPT_MODE=     1    mode for optional k-point grid
 
 Orbital magnetization related:
   ORBITALMAG=     F  switch on orbital magnetization
   LCHIMAG   =     F  perturbation theory with respect to B field
   DQ        =  0.001000  dq finite difference perturbation B field
   LLRAUG    =     F  two centre corrections for induced B field
   LBONE     =     F  B-component reconstruction in AE one-centre
   LVGVCALC  =     T  calculate vGv susceptibility
   LVGVAPPL  =     F  apply vGv susceptibility instead of pGv for G=0

 Random number generation:
   RANDOM_GENERATOR = DEFAULT
   PCG_SEED         = not used


--------------------------------------------------------------------------------------------------------


 conjugate gradient relaxation of ions
 charge density and potential will be updated during run
 spin polarized calculation
 RMM-DIIS sequential band-by-band and
  variant of blocked Davidson during initial phase
 perform sub-space diagonalisation
    before iterative eigenvector-optimisation
 modified Broyden-mixing scheme, WC =      100.0
 initial mixing is a Kerker type mixing with AMIX =  0.4000 and BMIX =      1.0000
 Hartree-type preconditioning will be used
 using additional bands           20
 real space projection scheme for non local part
 use partial core corrections
 calculate Harris-corrections to forces 
   (improved forces if not selfconsistent)
 use gradient corrections 
 use of overlap-Matrix (Vanderbilt PP)
 Gauss-broadening in eV      SIGMA  =   0.05


--------------------------------------------------------------------------------------------------------


  energy-cutoff  :      550.00
  volume of cell :      333.00
      direct lattice vectors                 reciprocal lattice vectors
     4.882232254 -5.826652787  0.000000000     0.102412170 -0.085812561  0.000000000
     4.882232254  5.826652787  0.000000000     0.102412170  0.085812561  0.000000000
     0.000000000  0.000000000  5.852974922     0.000000000  0.000000000  0.170853286

  length of vectors
     7.601715233  7.601715233  5.852974922     0.133611557  0.133611557  0.170853286


 
 k-points in units of 2pi/SCALE and weight: KPOINTS                                 
   0.00000000  0.00000000  0.00000000       0.002
   0.01463031 -0.01225894  0.00000000       0.009
   0.02926062 -0.02451787  0.00000000       0.009
   0.04389093 -0.03677681  0.00000000       0.009
   0.02926062 -0.00000000  0.00000000       0.005
   0.04389093 -0.01225894  0.00000000       0.009
   0.05852124 -0.02451787  0.00000000       0.009
  -0.02926062  0.04903575  0.00000000       0.009
  -0.01463031  0.03677681  0.00000000       0.009
   0.00000000  0.02451787  0.00000000       0.005
   0.05852124 -0.00000000  0.00000000       0.005
   0.07315155 -0.01225894  0.00000000       0.009
  -0.01463031  0.06129469  0.00000000       0.009
  -0.00000000  0.04903575  0.00000000       0.005
   0.08778186  0.00000000  0.00000000       0.005
  -0.00000000  0.07355362  0.00000000       0.005
   0.00000000  0.00000000  0.01898370       0.005
   0.01463031 -0.01225894  0.01898370       0.018
   0.02926062 -0.02451787  0.01898370       0.018
   0.04389093 -0.03677681  0.01898370       0.018
   0.02926062 -0.00000000  0.01898370       0.009
   0.04389093 -0.01225894  0.01898370       0.018
   0.05852124 -0.02451787  0.01898370       0.018
  -0.02926062  0.04903575  0.01898370       0.018
  -0.01463031  0.03677681  0.01898370       0.018
   0.00000000  0.02451787  0.01898370       0.009
   0.05852124 -0.00000000  0.01898370       0.009
   0.07315155 -0.01225894  0.01898370       0.018
  -0.01463031  0.06129469  0.01898370       0.018
  -0.00000000  0.04903575  0.01898370       0.009
   0.08778186  0.00000000  0.01898370       0.009
  -0.00000000  0.07355362  0.01898370       0.009
   0.00000000  0.00000000  0.03796740       0.005
   0.01463031 -0.01225894  0.03796740       0.018
   0.02926062 -0.02451787  0.03796740       0.018
   0.04389093 -0.03677681  0.03796740       0.018
   0.02926062 -0.00000000  0.03796740       0.009
   0.04389093 -0.01225894  0.03796740       0.018
   0.05852124 -0.02451787  0.03796740       0.018
  -0.02926062  0.04903575  0.03796740       0.018
  -0.01463031  0.03677681  0.03796740       0.018
   0.00000000  0.02451787  0.03796740       0.009
   0.05852124 -0.00000000  0.03796740       0.009
   0.07315155 -0.01225894  0.03796740       0.018
  -0.01463031  0.06129469  0.03796740       0.018
  -0.00000000  0.04903575  0.03796740       0.009
   0.08778186  0.00000000  0.03796740       0.009
  -0.00000000  0.07355362  0.03796740       0.009
   0.00000000  0.00000000  0.05695110       0.005
   0.01463031 -0.01225894  0.05695110       0.018
   0.02926062 -0.02451787  0.05695110       0.018
   0.04389093 -0.03677681  0.05695110       0.018
   0.02926062 -0.00000000  0.05695110       0.009
   0.04389093 -0.01225894  0.05695110       0.018
   0.05852124 -0.02451787  0.05695110       0.018
  -0.02926062  0.04903575  0.05695110       0.018
  -0.01463031  0.03677681  0.05695110       0.018
   0.00000000  0.02451787  0.05695110       0.009
   0.05852124 -0.00000000  0.05695110       0.009
   0.07315155 -0.01225894  0.05695110       0.018
  -0.01463031  0.06129469  0.05695110       0.018
  -0.00000000  0.04903575  0.05695110       0.009
   0.08778186  0.00000000  0.05695110       0.009
  -0.00000000  0.07355362  0.05695110       0.009
   0.00000000  0.00000000  0.07593479       0.005
   0.01463031 -0.01225894  0.07593479       0.018
   0.02926062 -0.02451787  0.07593479       0.018
   0.04389093 -0.03677681  0.07593479       0.018
   0.02926062 -0.00000000  0.07593479       0.009
   0.04389093 -0.01225894  0.07593479       0.018
   0.05852124 -0.02451787  0.07593479       0.018
  -0.02926062  0.04903575  0.07593479       0.018
  -0.01463031  0.03677681  0.07593479       0.018
   0.00000000  0.02451787  0.07593479       0.009
   0.05852124 -0.00000000  0.07593479       0.009
   0.07315155 -0.01225894  0.07593479       0.018
  -0.01463031  0.06129469  0.07593479       0.018
  -0.00000000  0.04903575  0.07593479       0.009
   0.08778186  0.00000000  0.07593479       0.009
  -0.00000000  0.07355362  0.07593479       0.009
 
 k-points in reciprocal lattice and weights: KPOINTS                                 
   0.00000000  0.00000000  0.00000000       0.002
   0.14285714 -0.00000000  0.00000000       0.009
   0.28571429 -0.00000000  0.00000000       0.009
   0.42857143 -0.00000000  0.00000000       0.009
   0.14285714  0.14285714  0.00000000       0.005
   0.28571429  0.14285714  0.00000000       0.009
   0.42857143  0.14285714  0.00000000       0.009
  -0.42857143  0.14285714  0.00000000       0.009
  -0.28571429  0.14285714  0.00000000       0.009
  -0.14285714  0.14285714  0.00000000       0.005
   0.28571429  0.28571429  0.00000000       0.005
   0.42857143  0.28571429  0.00000000       0.009
  -0.42857143  0.28571429  0.00000000       0.009
  -0.28571429  0.28571429  0.00000000       0.005
   0.42857143  0.42857143  0.00000000       0.005
  -0.42857143  0.42857143  0.00000000       0.005
   0.00000000  0.00000000  0.11111111       0.005
   0.14285714 -0.00000000  0.11111111       0.018
   0.28571429 -0.00000000  0.11111111       0.018
   0.42857143 -0.00000000  0.11111111       0.018
   0.14285714  0.14285714  0.11111111       0.009
   0.28571429  0.14285714  0.11111111       0.018
   0.42857143  0.14285714  0.11111111       0.018
  -0.42857143  0.14285714  0.11111111       0.018
  -0.28571429  0.14285714  0.11111111       0.018
  -0.14285714  0.14285714  0.11111111       0.009
   0.28571429  0.28571429  0.11111111       0.009
   0.42857143  0.28571429  0.11111111       0.018
  -0.42857143  0.28571429  0.11111111       0.018
  -0.28571429  0.28571429  0.11111111       0.009
   0.42857143  0.42857143  0.11111111       0.009
  -0.42857143  0.42857143  0.11111111       0.009
   0.00000000  0.00000000  0.22222222       0.005
   0.14285714 -0.00000000  0.22222222       0.018
   0.28571429 -0.00000000  0.22222222       0.018
   0.42857143 -0.00000000  0.22222222       0.018
   0.14285714  0.14285714  0.22222222       0.009
   0.28571429  0.14285714  0.22222222       0.018
   0.42857143  0.14285714  0.22222222       0.018
  -0.42857143  0.14285714  0.22222222       0.018
  -0.28571429  0.14285714  0.22222222       0.018
  -0.14285714  0.14285714  0.22222222       0.009
   0.28571429  0.28571429  0.22222222       0.009
   0.42857143  0.28571429  0.22222222       0.018
  -0.42857143  0.28571429  0.22222222       0.018
  -0.28571429  0.28571429  0.22222222       0.009
   0.42857143  0.42857143  0.22222222       0.009
  -0.42857143  0.42857143  0.22222222       0.009
   0.00000000  0.00000000  0.33333333       0.005
   0.14285714 -0.00000000  0.33333333       0.018
   0.28571429 -0.00000000  0.33333333       0.018
   0.42857143 -0.00000000  0.33333333       0.018
   0.14285714  0.14285714  0.33333333       0.009
   0.28571429  0.14285714  0.33333333       0.018
   0.42857143  0.14285714  0.33333333       0.018
  -0.42857143  0.14285714  0.33333333       0.018
  -0.28571429  0.14285714  0.33333333       0.018
  -0.14285714  0.14285714  0.33333333       0.009
   0.28571429  0.28571429  0.33333333       0.009
   0.42857143  0.28571429  0.33333333       0.018
  -0.42857143  0.28571429  0.33333333       0.018
  -0.28571429  0.28571429  0.33333333       0.009
   0.42857143  0.42857143  0.33333333       0.009
  -0.42857143  0.42857143  0.33333333       0.009
   0.00000000  0.00000000  0.44444444       0.005
   0.14285714 -0.00000000  0.44444444       0.018
   0.28571429 -0.00000000  0.44444444       0.018
   0.42857143 -0.00000000  0.44444444       0.018
   0.14285714  0.14285714  0.44444444       0.009
   0.28571429  0.14285714  0.44444444       0.018
   0.42857143  0.14285714  0.44444444       0.018
  -0.42857143  0.14285714  0.44444444       0.018
  -0.28571429  0.14285714  0.44444444       0.018
  -0.14285714  0.14285714  0.44444444       0.009
   0.28571429  0.28571429  0.44444444       0.009
   0.42857143  0.28571429  0.44444444       0.018
  -0.42857143  0.28571429  0.44444444       0.018
  -0.28571429  0.28571429  0.44444444       0.009
   0.42857143  0.42857143  0.44444444       0.009
  -0.42857143  0.42857143  0.44444444       0.009
 
 position of ions in fractional coordinates (direct lattice) 
   0.00000000  0.00000000  0.00000000
   0.00000000  0.50000000  0.00000000
   0.50000000  0.00000000  0.00000000
   0.50000000  0.50000000  0.00000000
   0.25000000  0.25000000  0.00000000
   0.25000000  0.75000000  0.00000000
   0.75000000  0.25000000  0.00000000
   0.75000000  0.75000000  0.00000000
   0.37500000  0.12500000  0.69773723
   0.37500000  0.62500000  0.69773723
   0.87500000  0.12500000  0.69773723
   0.87500000  0.62500000  0.69773723
   0.12500000  0.37500000  0.30226277
   0.12500000  0.87500000  0.30226277
   0.62500000  0.37500000  0.30226277
   0.62500000  0.87500000  0.30226277
 
 position of ions in cartesian coordinates  (Angst):
   0.00000000  0.00000000  0.00000000
   2.44111613  2.91332639  0.00000000
   2.44111613 -2.91332639  0.00000000
   4.88223225  0.00000000  0.00000000
   2.44111613  0.00000000  0.00000000
   4.88223225  2.91332639  0.00000000
   4.88223225 -2.91332639  0.00000000
   7.32334838  0.00000000  0.00000000
   2.44111613 -1.45666320  4.08383851
   4.88223225  1.45666320  4.08383851
   4.88223225 -4.36998959  4.08383851
   7.32334838 -1.45666320  4.08383851
   2.44111613  1.45666320  1.76913641
   4.88223225  4.36998959  1.76913641
   4.88223225 -1.45666320  1.76913641
   7.32334838  1.45666320  1.76913641
 


--------------------------------------------------------------------------------------------------------


 k-point   1 :   0.0000 0.0000 0.0000  plane waves:    9787
 k-point   2 :   0.1429-0.0000 0.0000  plane waves:    9772
 k-point   3 :   0.2857-0.0000 0.0000  plane waves:    9759
 k-point   4 :   0.4286-0.0000 0.0000  plane waves:    9748
 k-point   5 :   0.1429 0.1429 0.0000  plane waves:    9777
 k-point   6 :   0.2857 0.1429 0.0000  plane waves:    9745
 k-point   7 :   0.4286 0.1429 0.0000  plane waves:    9752
 k-point   8 :  -0.4286 0.1429 0.0000  plane waves:    9757
 k-point   9 :  -0.2857 0.1429 0.0000  plane waves:    9758
 k-point  10 :  -0.1429 0.1429 0.0000  plane waves:    9776
 k-point  11 :   0.2857 0.2857 0.0000  plane waves:    9723
 k-point  12 :   0.4286 0.2857 0.0000  plane waves:    9734
 k-point  13 :  -0.4286 0.2857 0.0000  plane waves:    9738
 k-point  14 :  -0.2857 0.2857 0.0000  plane waves:    9752
 k-point  15 :   0.4286 0.4286 0.0000  plane waves:    9720
 k-point  16 :  -0.4286 0.4286 0.0000  plane waves:    9722
 k-point  17 :   0.0000 0.0000 0.1111  plane waves:    9789
 k-point  18 :   0.1429-0.0000 0.1111  plane waves:    9762
 k-point  19 :   0.2857-0.0000 0.1111  plane waves:    9757
 k-point  20 :   0.4286-0.0000 0.1111  plane waves:    9742
 k-point  21 :   0.1429 0.1429 0.1111  plane waves:    9776
 k-point  22 :   0.2857 0.1429 0.1111  plane waves:    9758
 k-point  23 :   0.4286 0.1429 0.1111  plane waves:    9756
 k-point  24 :  -0.4286 0.1429 0.1111  plane waves:    9744
 k-point  25 :  -0.2857 0.1429 0.1111  plane waves:    9764
 k-point  26 :  -0.1429 0.1429 0.1111  plane waves:    9747
 k-point  27 :   0.2857 0.2857 0.1111  plane waves:    9736
 k-point  28 :   0.4286 0.2857 0.1111  plane waves:    9738
 k-point  29 :  -0.4286 0.2857 0.1111  plane waves:    9748
 k-point  30 :  -0.2857 0.2857 0.1111  plane waves:    9750
 k-point  31 :   0.4286 0.4286 0.1111  plane waves:    9725
 k-point  32 :  -0.4286 0.4286 0.1111  plane waves:    9741
 k-point  33 :   0.0000 0.0000 0.2222  plane waves:    9768
 k-point  34 :   0.1429-0.0000 0.2222  plane waves:    9755
 k-point  35 :   0.2857-0.0000 0.2222  plane waves:    9752
 k-point  36 :   0.4286-0.0000 0.2222  plane waves:    9750
 k-point  37 :   0.1429 0.1429 0.2222  plane waves:    9746
 k-point  38 :   0.2857 0.1429 0.2222  plane waves:    9753
 k-point  39 :   0.4286 0.1429 0.2222  plane waves:    9738
 k-point  40 :  -0.4286 0.1429 0.2222  plane waves:    9754
 k-point  41 :  -0.2857 0.1429 0.2222  plane waves:    9754
 k-point  42 :  -0.1429 0.1429 0.2222  plane waves:    9752
 k-point  43 :   0.2857 0.2857 0.2222  plane waves:    9738
 k-point  44 :   0.4286 0.2857 0.2222  plane waves:    9739
 k-point  45 :  -0.4286 0.2857 0.2222  plane waves:    9753
 k-point  46 :  -0.2857 0.2857 0.2222  plane waves:    9763
 k-point  47 :   0.4286 0.4286 0.2222  plane waves:    9734
 k-point  48 :  -0.4286 0.4286 0.2222  plane waves:    9737
 k-point  49 :   0.0000 0.0000 0.3333  plane waves:    9772
 k-point  50 :   0.1429-0.0000 0.3333  plane waves:    9767
 k-point  51 :   0.2857-0.0000 0.3333  plane waves:    9760
 k-point  52 :   0.4286-0.0000 0.3333  plane waves:    9745
 k-point  53 :   0.1429 0.1429 0.3333  plane waves:    9772
 k-point  54 :   0.2857 0.1429 0.3333  plane waves:    9757
 k-point  55 :   0.4286 0.1429 0.3333  plane waves:    9752
 k-point  56 :  -0.4286 0.1429 0.3333  plane waves:    9746
 k-point  57 :  -0.2857 0.1429 0.3333  plane waves:    9762
 k-point  58 :  -0.1429 0.1429 0.3333  plane waves:    9767
 k-point  59 :   0.2857 0.2857 0.3333  plane waves:    9752
 k-point  60 :   0.4286 0.2857 0.3333  plane waves:    9748
 k-point  61 :  -0.4286 0.2857 0.3333  plane waves:    9739
 k-point  62 :  -0.2857 0.2857 0.3333  plane waves:    9757
 k-point  63 :   0.4286 0.4286 0.3333  plane waves:    9760
 k-point  64 :  -0.4286 0.4286 0.3333  plane waves:    9742
 k-point  65 :   0.0000 0.0000 0.4444  plane waves:    9766
 k-point  66 :   0.1429-0.0000 0.4444  plane waves:    9767
 k-point  67 :   0.2857-0.0000 0.4444  plane waves:    9757
 k-point  68 :   0.4286-0.0000 0.4444  plane waves:    9755
 k-point  69 :   0.1429 0.1429 0.4444  plane waves:    9749
 k-point  70 :   0.2857 0.1429 0.4444  plane waves:    9757
 k-point  71 :   0.4286 0.1429 0.4444  plane waves:    9750
 k-point  72 :  -0.4286 0.1429 0.4444  plane waves:    9744
 k-point  73 :  -0.2857 0.1429 0.4444  plane waves:    9758
 k-point  74 :  -0.1429 0.1429 0.4444  plane waves:    9765
 k-point  75 :   0.2857 0.2857 0.4444  plane waves:    9787
 k-point  76 :   0.4286 0.2857 0.4444  plane waves:    9758
 k-point  77 :  -0.4286 0.2857 0.4444  plane waves:    9747
 k-point  78 :  -0.2857 0.2857 0.4444  plane waves:    9748
 k-point  79 :   0.4286 0.4286 0.4444  plane waves:    9765
 k-point  80 :  -0.4286 0.4286 0.4444  plane waves:    9769

 maximum and minimum number of plane-waves per node :      9789     9720

 maximum number of plane-waves:      9789
 maximum index in each direction: 
   IXMAX=   14   IYMAX=   14   IZMAX=   11
   IXMIN=  -14   IYMIN=  -14   IZMIN=  -11


 serial   3D FFT for wavefunctions
 parallel 3D FFT for charge:
    minimum data exchange during FFTs selected (reduces bandwidth)


 total amount of memory used by VASP MPI-rank0   195010. kBytes
=======================================================================

   base      :      30000. kBytes
   nonlr-proj:      13101. kBytes
   fftplans  :       3084. kBytes
   grid      :      19560. kBytes
   one-center:        497. kBytes
   wavefun   :     128768. kBytes
 
     INWAV:  cpu time      0.0000: real time      0.0002
 Broyden mixing: mesh for mixing (old mesh)
   NGX = 29   NGY = 29   NGZ = 23
  (NGX  =120   NGY  =120   NGZ  = 96)
  gives a total of  19343 points

 initial charge density was supplied:
 charge density of overlapping atoms calculated
 number of electron     160.0000000 magnetization      -0.0000000
 keeping initial charge density in first step


--------------------------------------------------------------------------------------------------------


 Maximum index for non-local projection operator         6429
 Maximum index for augmentation-charges         1103 (set IRDMAX)


--------------------------------------------------------------------------------------------------------


 First call to EWALD:  gamma=   0.256
 Maximum number of real-space cells 3x 3x 3
 Maximum number of reciprocal cells 3x 3x 2

    FEWALD:  cpu time      0.0016: real time      0.0017


--------------------------------------- Ionic step        1  -------------------------------------------




--------------------------------------- Iteration      1(   1)  ---------------------------------------


    POTLOK:  cpu time      0.0696: real time      0.0740
    SETDIJ:  cpu time      0.2809: real time      0.2820
     EDDAV:  cpu time     29.3052: real time     29.4626
       DOS:  cpu time      0.0025: real time      0.0026
    --------------------------------------------
      LOOP:  cpu time     29.6582: real time     29.8212

 eigenvalue-minimisations  : 35780
 total energy-change (2. order) : 0.1992241E+04  (-0.8886491E+04)
 number of electron     160.0000000 magnetization      -0.0000000
 augmentation part      160.0000000 magnetization      -0.0000000

 Free energy of the ion-electron system (eV)
  ---------------------------------------------------
  alpha Z        PSCENC =       762.61737321
  Ewald energy   TEWEN  =    -10723.37107127
  -Hartree energ DENC   =     -9488.25736953
  -exchange      EXHF   =         0.00000000
  -V(xc)+E(xc)   XCENC  =       564.12874531
  PAW double counting   =     15527.92248475   -16123.68540829
  entropy T*S    EENTRO =        -0.00979226
  eigenvalues    EBANDS =      -237.94498008
  atomic energy  EATOM  =     21710.84102437
  Solvation  Ediel_sol  =         0.00000000
  ---------------------------------------------------
  free energy    TOTEN  =      1992.24100622 eV

  energy without entropy =     1992.25079848  energy(sigma->0) =     1992.24590235


--------------------------------------------------------------------------------------------------------




--------------------------------------- Iteration      1(   2)  ---------------------------------------


     EDDAV:  cpu time     27.8058: real time     27.9539
       DOS:  cpu time      0.0023: real time      0.0023
    --------------------------------------------
      LOOP:  cpu time     27.8081: real time     27.9562

 eigenvalue-minimisations  : 32000
 total energy-change (2. order) :-0.1871043E+04  (-0.1818253E+04)
 number of electron     160.0000000 magnetization      -0.0000000
 augmentation part      160.0000000 magnetization      -0.0000000

 Free energy of the ion-electron system (eV)
  ---------------------------------------------------
  alpha Z        PSCENC =       762.61737321
  Ewald energy   TEWEN  =    -10723.37107127
  -Hartree energ DENC   =     -9488.25736953
  -exchange      EXHF   =         0.00000000
  -V(xc)+E(xc)   XCENC  =       564.12874531
  PAW double counting   =     15527.92248475   -16123.68540829
  entropy T*S    EENTRO =        -0.01654661
  eigenvalues    EBANDS =     -2108.98091315
  atomic energy  EATOM  =     21710.84102437
  Solvation  Ediel_sol  =         0.00000000
  ---------------------------------------------------
  free energy    TOTEN  =       121.19831879 eV

  energy without entropy =      121.21486540  energy(sigma->0) =      121.20659209


--------------------------------------------------------------------------------------------------------




--------------------------------------- Iteration      1(   3)  ---------------------------------------


     EDDAV:  cpu time     36.8514: real time     37.0521
       DOS:  cpu time      0.0022: real time      0.0022
    --------------------------------------------
      LOOP:  cpu time     36.8536: real time     37.0544

 eigenvalue-minimisations  : 46140
 total energy-change (2. order) :-0.2069312E+03  (-0.1845782E+03)
 number of electron     160.0000000 magnetization      -0.0000000
 augmentation part      160.0000000 magnetization      -0.0000000

 Free energy of the ion-electron system (eV)
  ---------------------------------------------------
  alpha Z        PSCENC =       762.61737321
  Ewald energy   TEWEN  =    -10723.37107127
  -Hartree energ DENC   =     -9488.25736953
  -exchange      EXHF   =         0.00000000
  -V(xc)+E(xc)   XCENC  =       564.12874531
  PAW double counting   =     15527.92248475   -16123.68540829
  entropy T*S    EENTRO =        -0.02704031
  eigenvalues    EBANDS =     -2315.90159469
  atomic energy  EATOM  =     21710.84102437
  Solvation  Ediel_sol  =         0.00000000
  ---------------------------------------------------
  free energy    TOTEN  =       -85.73285645 eV

  energy without entropy =      -85.70581614  energy(sigma->0) =      -85.71933630


--------------------------------------------------------------------------------------------------------




--------------------------------------- Iteration      1(   4)  ---------------------------------------


     EDDAV:  cpu time     37.8618: real time     38.1043
       DOS:  cpu time      0.0022: real time      0.0022
    --------------------------------------------
      LOOP:  cpu time     37.8640: real time     38.1066

 eigenvalue-minimisations  : 47460
 total energy-change (2. order) :-0.1462641E+02  (-0.1430882E+02)
 number of electron     160.0000000 magnetization      -0.0000000
 augmentation part      160.0000000 magnetization      -0.0000000

 Free energy of the ion-electron system (eV)
  ---------------------------------------------------
  alpha Z        PSCENC =       762.61737321
  Ewald energy   TEWEN  =    -10723.37107127
  -Hartree energ DENC   =     -9488.25736953
  -exchange      EXHF   =         0.00000000
  -V(xc)+E(xc)   XCENC  =       564.12874531
  PAW double counting   =     15527.92248475   -16123.68540829
  entropy T*S    EENTRO =        -0.03017580
  eigenvalues    EBANDS =     -2330.52486643
  atomic energy  EATOM  =     21710.84102437
  Solvation  Ediel_sol  =         0.00000000
  ---------------------------------------------------
  free energy    TOTEN  =      -100.35926367 eV

  energy without entropy =     -100.32908787  energy(sigma->0) =     -100.34417577


--------------------------------------------------------------------------------------------------------




--------------------------------------- Iteration      1(   5)  ---------------------------------------


     EDDAV:  cpu time     35.4757: real time     35.6673
       DOS:  cpu time      0.0021: real time      0.0021
    CHARGE:  cpu time      1.0941: real time      1.1021
    MIXING:  cpu time      0.0015: real time      0.0015
    --------------------------------------------
      LOOP:  cpu time     36.5735: real time     36.7731

 eigenvalue-minimisations  : 44420
 total energy-change (2. order) :-0.3341811E+00  (-0.3334143E+00)
 number of electron     160.0000073 magnetization       0.0000000
 augmentation part       52.9886436 magnetization       0.0000000

 Broyden mixing:
  rms(total) = 0.28136E+01    rms(broyden)= 0.28132E+01
  rms(prec ) = 0.44044E+01
  weight for this iteration     100.00

 Free energy of the ion-electron system (eV)
  ---------------------------------------------------
  alpha Z        PSCENC =       762.61737321
  Ewald energy   TEWEN  =    -10723.37107127
  -Hartree energ DENC   =     -9488.25736953
  -exchange      EXHF   =         0.00000000
  -V(xc)+E(xc)   XCENC  =       564.12874531
  PAW double counting   =     15527.92248475   -16123.68540829
  entropy T*S    EENTRO =        -0.03022933
  eigenvalues    EBANDS =     -2330.85899398
  atomic energy  EATOM  =     21710.84102437
  Solvation  Ediel_sol  =         0.00000000
  ---------------------------------------------------
  free energy    TOTEN  =      -100.69344476 eV

  energy without entropy =     -100.66321543  energy(sigma->0) =     -100.67833010


--------------------------------------------------------------------------------------------------------




--------------------------------------- Iteration      1(   6)  ---------------------------------------


    POTLOK:  cpu time      0.0586: real time      0.1081
    SETDIJ:  cpu time      0.2696: real time      0.2706
    EDDIAG:  cpu time      4.6164: real time      4.6396
  RMM-DIIS:  cpu time     17.1096: real time     17.1958
    ORTHCH:  cpu time      0.6116: real time      0.6142
       DOS:  cpu time      0.0022: real time      0.0022
    CHARGE:  cpu time      1.1044: real time      1.1113
    MIXING:  cpu time      0.0019: real time      0.0019
    --------------------------------------------
      LOOP:  cpu time     23.7743: real time     23.9438

 eigenvalue-minimisations  : 32087
 total energy-change (2. order) :-0.1325316E+02  (-0.1815632E+02)
 number of electron     160.0000093 magnetization      -0.0000000
 augmentation part       70.6095561 magnetization      -0.0000000

 Broyden mixing:
  rms(total) = 0.55425E+01    rms(broyden)= 0.55424E+01
  rms(prec ) = 0.86936E+01
  weight for this iteration     100.00

 eigenvalues of (default mixing * dielectric matrix)
  average eigenvalue GAMMA=   0.2894
  0.2894

 Free energy of the ion-electron system (eV)
  ---------------------------------------------------
  alpha Z        PSCENC =       762.61737321
  Ewald energy   TEWEN  =    -10723.37107127
  -Hartree energ DENC   =     -9013.87755276
  -exchange      EXHF   =         0.00000000
  -V(xc)+E(xc)   XCENC  =       552.13444661
  PAW double counting   =     14947.62804232   -15510.94514529
  entropy T*S    EENTRO =        -0.03952579
  eigenvalues    EBANDS =     -2838.93420028
  atomic energy  EATOM  =     21710.84102437
  Solvation  Ediel_sol  =         0.00000000
  ---------------------------------------------------
  free energy    TOTEN  =      -113.94660889 eV

  energy without entropy =     -113.90708310  energy(sigma->0) =     -113.92684599


--------------------------------------------------------------------------------------------------------




--------------------------------------- Iteration      1(   7)  ---------------------------------------


    POTLOK:  cpu time      0.0803: real time      0.0904
    SETDIJ:  cpu time      0.2692: real time      0.2703
    EDDIAG:  cpu time      4.6525: real time      4.6795
  RMM-DIIS:  cpu time     17.0697: real time     17.1596
    ORTHCH:  cpu time      0.6068: real time      0.6093
       DOS:  cpu time      0.0022: real time      0.0022
    CHARGE:  cpu time      1.0834: real time      1.0890
    MIXING:  cpu time      0.0015: real time      0.0015
    --------------------------------------------
      LOOP:  cpu time     23.7655: real time     23.9017

 eigenvalue-minimisations  : 32024
 total energy-change (2. order) : 0.2292648E+02  (-0.4667710E+01)
 number of electron     160.0000075 magnetization      -0.0000000
 augmentation part       57.6999205 magnetization      -0.0000000

 Broyden mixing:
  rms(total) = 0.12173E+01    rms(broyden)= 0.12166E+01
  rms(prec ) = 0.14659E+01
  weight for this iteration     100.00

 eigenvalues of (default mixing * dielectric matrix)
  average eigenvalue GAMMA=   0.4378
  0.6147  0.2609

 Free energy of the ion-electron system (eV)
  ---------------------------------------------------
  alpha Z        PSCENC =       762.61737321
  Ewald energy   TEWEN  =    -10723.37107127
  -Hartree energ DENC   =     -9307.47511963
  -exchange      EXHF   =         0.00000000
  -V(xc)+E(xc)   XCENC  =       557.22736005
  PAW double counting   =     15454.01101369   -16051.46713579
  entropy T*S    EENTRO =        -0.03503764
  eigenvalues    EBANDS =     -2493.36853575
  atomic energy  EATOM  =     21710.84102437
  Solvation  Ediel_sol  =         0.00000000
  ---------------------------------------------------
  free energy    TOTEN  =       -91.02012876 eV

  energy without entropy =      -90.98509112  energy(sigma->0) =      -91.00260994


--------------------------------------------------------------------------------------------------------




--------------------------------------- Iteration      1(   8)  ---------------------------------------


    POTLOK:  cpu time      0.0553: real time      0.0558
    SETDIJ:  cpu time      0.2711: real time      0.2721
    EDDIAG:  cpu time      4.6082: real time      4.6314
  RMM-DIIS:  cpu time     21.4754: real time     21.5882
    ORTHCH:  cpu time      0.6070: real time      0.6096
       DOS:  cpu time      0.0020: real time      0.0020
    CHARGE:  cpu time      1.1269: real time      1.1333
    MIXING:  cpu time      0.0016: real time      0.0016
    --------------------------------------------
      LOOP:  cpu time     28.1474: real time     28.2940

 eigenvalue-minimisations  : 41277
 total energy-change (2. order) :-0.6114455E+00  (-0.3126927E+00)
 number of electron     160.0000072 magnetization      -0.0000000
 augmentation part       58.2665885 magnetization      -0.0000000

 Broyden mixing:
  rms(total) = 0.58959E+00    rms(broyden)= 0.58926E+00
  rms(prec ) = 0.77297E+00
  weight for this iteration     100.00

 eigenvalues of (default mixing * dielectric matrix)
  average eigenvalue GAMMA=   0.6106
  0.3020  0.7649  0.7649

 Free energy of the ion-electron system (eV)
  ---------------------------------------------------
  alpha Z        PSCENC =       762.61737321
  Ewald energy   TEWEN  =    -10723.37107127
  -Hartree energ DENC   =     -9295.26253591
  -exchange      EXHF   =         0.00000000
  -V(xc)+E(xc)   XCENC  =       557.73726339
  PAW double counting   =     15498.94854155   -16103.29069522
  entropy T*S    EENTRO =        -0.02847451
  eigenvalues    EBANDS =     -2499.82299985
  atomic energy  EATOM  =     21710.84102437
  Solvation  Ediel_sol  =         0.00000000
  ---------------------------------------------------
  free energy    TOTEN  =       -91.63157424 eV

  energy without entropy =      -91.60309973  energy(sigma->0) =      -91.61733698


--------------------------------------------------------------------------------------------------------




--------------------------------------- Iteration      1(   9)  ---------------------------------------


    POTLOK:  cpu time      0.0571: real time      0.1126
    SETDIJ:  cpu time      0.2699: real time      0.2710
    EDDIAG:  cpu time      4.6134: real time      4.6381
  RMM-DIIS:  cpu time     22.8558: real time     22.9794
    ORTHCH:  cpu time      0.6184: real time      0.6212
       DOS:  cpu time      0.0021: real time      0.0021
    CHARGE:  cpu time      1.1055: real time      1.1112
    MIXING:  cpu time      0.0017: real time      0.0017
    --------------------------------------------
      LOOP:  cpu time     29.5240: real time     29.7373

 eigenvalue-minimisations  : 44155
 total energy-change (2. order) :-0.1027809E+00  (-0.9664141E-01)
 number of electron     160.0000071 magnetization       0.0000000
 augmentation part       58.7377965 magnetization       0.0000000

 Broyden mixing:
  rms(total) = 0.31327E+00    rms(broyden)= 0.31269E+00
  rms(prec ) = 0.38258E+00
  weight for this iteration     100.00

 eigenvalues of (default mixing * dielectric matrix)
  average eigenvalue GAMMA=   0.8067
  1.1219  1.1219  0.2956  0.6873

 Free energy of the ion-electron system (eV)
  ---------------------------------------------------
  alpha Z        PSCENC =       762.61737321
  Ewald energy   TEWEN  =    -10723.37107127
  -Hartree energ DENC   =     -9278.18205196
  -exchange      EXHF   =         0.00000000
  -V(xc)+E(xc)   XCENC  =       558.00472721
  PAW double counting   =     15573.72683985   -16184.47290527
  entropy T*S    EENTRO =        -0.01918139
  eigenvalues    EBANDS =     -2510.87910990
  atomic energy  EATOM  =     21710.84102437
  Solvation  Ediel_sol  =         0.00000000
  ---------------------------------------------------
  free energy    TOTEN  =       -91.73435514 eV

  energy without entropy =      -91.71517375  energy(sigma->0) =      -91.72476444


--------------------------------------------------------------------------------------------------------




--------------------------------------- Iteration      1(  10)  ---------------------------------------


    POTLOK:  cpu time      0.0676: real time      0.0772
    SETDIJ:  cpu time      0.2680: real time      0.2689
    EDDIAG:  cpu time      4.7232: real time      4.7462
  RMM-DIIS:  cpu time     25.2184: real time     25.3521
    ORTHCH:  cpu time      0.6131: real time      0.6159
       DOS:  cpu time      0.0022: real time      0.0022
    CHARGE:  cpu time      1.1614: real time      1.1677
    MIXING:  cpu time      0.0020: real time      0.0020
    --------------------------------------------
      LOOP:  cpu time     32.0558: real time     32.2321

 eigenvalue-minimisations  : 46061
 total energy-change (2. order) :-0.3135483E-01  (-0.3209229E-01)
 number of electron     160.0000071 magnetization       0.0000000
 augmentation part       58.9406972 magnetization       0.0000000

 Broyden mixing:
  rms(total) = 0.19232E+00    rms(broyden)= 0.19208E+00
  rms(prec ) = 0.22176E+00
  weight for this iteration     100.00

 eigenvalues of (default mixing * dielectric matrix)
  average eigenvalue GAMMA=   1.0285
  1.6550  1.6550  0.2961  0.7681  0.7681

 Free energy of the ion-electron system (eV)
  ---------------------------------------------------
  alpha Z        PSCENC =       762.61737321
  Ewald energy   TEWEN  =    -10723.37107127
  -Hartree energ DENC   =     -9271.64563935
  -exchange      EXHF   =         0.00000000
  -V(xc)+E(xc)   XCENC  =       558.01724983
  PAW double counting   =     15619.94374625   -16234.13582154
  entropy T*S    EENTRO =        -0.01745582
  eigenvalues    EBANDS =     -2514.01511565
  atomic energy  EATOM  =     21710.84102437
  Solvation  Ediel_sol  =         0.00000000
  ---------------------------------------------------
  free energy    TOTEN  =       -91.76570997 eV

  energy without entropy =      -91.74825415  energy(sigma->0) =      -91.75698206


--------------------------------------------------------------------------------------------------------




--------------------------------------- Iteration      1(  11)  ---------------------------------------


    POTLOK:  cpu time      0.0828: real time      0.1128
    SETDIJ:  cpu time      0.2691: real time      0.2701
    EDDIAG:  cpu time      4.6491: real time      4.6754
  RMM-DIIS:  cpu time     20.6265: real time     20.7403
    ORTHCH:  cpu time      0.6051: real time      0.6077
       DOS:  cpu time      0.0021: real time      0.0021
    CHARGE:  cpu time      1.0650: real time      1.0706
    MIXING:  cpu time      0.0018: real time      0.0018
    --------------------------------------------
      LOOP:  cpu time     27.3015: real time     27.4809

 eigenvalue-minimisations  : 40545
 total energy-change (2. order) : 0.3087388E-02  (-0.8379973E-02)
 number of electron     160.0000071 magnetization       0.0000000
 augmentation part       58.9069193 magnetization       0.0000000

 Broyden mixing:
  rms(total) = 0.79665E-01    rms(broyden)= 0.79570E-01
  rms(prec ) = 0.94040E-01
  weight for this iteration     100.00

 eigenvalues of (default mixing * dielectric matrix)
  average eigenvalue GAMMA=   1.0998
  1.9010  1.9010  0.2961  0.9107  0.9107  0.6792

 Free energy of the ion-electron system (eV)
  ---------------------------------------------------
  alpha Z        PSCENC =       762.61737321
  Ewald energy   TEWEN  =    -10723.37107127
  -Hartree energ DENC   =     -9269.29170935
  -exchange      EXHF   =         0.00000000
  -V(xc)+E(xc)   XCENC  =       558.19458573
  PAW double counting   =     15679.85307852   -16297.47798782
  entropy T*S    EENTRO =        -0.01688324
  eigenvalues    EBANDS =     -2513.11103274
  atomic energy  EATOM  =     21710.84102437
  Solvation  Ediel_sol  =         0.00000000
  ---------------------------------------------------
  free energy    TOTEN  =       -91.76262258 eV

  energy without entropy =      -91.74573934  energy(sigma->0) =      -91.75418096


--------------------------------------------------------------------------------------------------------




--------------------------------------- Iteration      1(  12)  ---------------------------------------


    POTLOK:  cpu time      0.0617: real time      0.0621
    SETDIJ:  cpu time      0.2684: real time      0.2695
    EDDIAG:  cpu time      4.6452: real time      4.6676
  RMM-DIIS:  cpu time     23.2248: real time     23.3454
    ORTHCH:  cpu time      0.6136: real time      0.6163
       DOS:  cpu time      0.0022: real time      0.0023
    CHARGE:  cpu time      1.1590: real time      1.1651
    MIXING:  cpu time      0.0019: real time      0.0019
    --------------------------------------------
      LOOP:  cpu time     29.9769: real time     30.1302

 eigenvalue-minimisations  : 42848
 total energy-change (2. order) :-0.1252636E-01  (-0.3030615E-02)
 number of electron     160.0000071 magnetization       0.0000000
 augmentation part       58.9556305 magnetization       0.0000000

 Broyden mixing:
  rms(total) = 0.46424E-01    rms(broyden)= 0.46414E-01
  rms(prec ) = 0.55368E-01
  weight for this iteration     100.00

 eigenvalues of (default mixing * dielectric matrix)
  average eigenvalue GAMMA=   1.0859
  2.1834  1.3994  1.3994  0.2961  0.8734  0.7684  0.6814

 Free energy of the ion-electron system (eV)
  ---------------------------------------------------
  alpha Z        PSCENC =       762.61737321
  Ewald energy   TEWEN  =    -10723.37107127
  -Hartree energ DENC   =     -9267.79148435
  -exchange      EXHF   =         0.00000000
  -V(xc)+E(xc)   XCENC  =       558.19957801
  PAW double counting   =     15687.07896868   -16305.14702933
  entropy T*S    EENTRO =        -0.01790982
  eigenvalues    EBANDS =     -2514.18459844
  atomic energy  EATOM  =     21710.84102437
  Solvation  Ediel_sol  =         0.00000000
  ---------------------------------------------------
  free energy    TOTEN  =       -91.77514894 eV

  energy without entropy =      -91.75723911  energy(sigma->0) =      -91.76619402


--------------------------------------------------------------------------------------------------------




--------------------------------------- Iteration      1(  13)  ---------------------------------------


    POTLOK:  cpu time      0.0700: real time      0.0870
    SETDIJ:  cpu time      0.2688: real time      0.2700
    EDDIAG:  cpu time      4.7407: real time      4.7658
  RMM-DIIS:  cpu time     21.9028: real time     22.0160
    ORTHCH:  cpu time      0.6112: real time      0.6139
       DOS:  cpu time      0.0022: real time      0.0022
    CHARGE:  cpu time      1.0441: real time      1.0496
    MIXING:  cpu time      0.0017: real time      0.0017
    --------------------------------------------
      LOOP:  cpu time     28.6415: real time     28.8061

 eigenvalue-minimisations  : 40123
 total energy-change (2. order) : 0.2870764E-03  (-0.7894246E-03)
 number of electron     160.0000071 magnetization      -0.0000000
 augmentation part       58.9811474 magnetization      -0.0000000

 Broyden mixing:
  rms(total) = 0.17197E-01    rms(broyden)= 0.17187E-01
  rms(prec ) = 0.20869E-01
  weight for this iteration     100.00

 eigenvalues of (default mixing * dielectric matrix)
  average eigenvalue GAMMA=   1.1322
  2.6379  1.4195  1.4195  0.2961  1.0438  0.8876  0.6972  0.6557

 Free energy of the ion-electron system (eV)
  ---------------------------------------------------
  alpha Z        PSCENC =       762.61737321
  Ewald energy   TEWEN  =    -10723.37107127
  -Hartree energ DENC   =     -9267.18238890
  -exchange      EXHF   =         0.00000000
  -V(xc)+E(xc)   XCENC  =       558.24079399
  PAW double counting   =     15689.30313265   -16307.56542833
  entropy T*S    EENTRO =        -0.01772461
  eigenvalues    EBANDS =     -2514.64057297
  atomic energy  EATOM  =     21710.84102437
  Solvation  Ediel_sol  =         0.00000000
  ---------------------------------------------------
  free energy    TOTEN  =       -91.77486186 eV

  energy without entropy =      -91.75713724  energy(sigma->0) =      -91.76599955


--------------------------------------------------------------------------------------------------------




--------------------------------------- Iteration      1(  14)  ---------------------------------------


    POTLOK:  cpu time      0.0629: real time      0.1022
    SETDIJ:  cpu time      0.2710: real time      0.2719
    EDDIAG:  cpu time      4.4674: real time      4.4892
  RMM-DIIS:  cpu time     17.0708: real time     17.1626
    ORTHCH:  cpu time      0.6122: real time      0.6153
       DOS:  cpu time      0.0021: real time      0.0021
    CHARGE:  cpu time      1.1239: real time      1.1297
    MIXING:  cpu time      0.0020: real time      0.0020
    --------------------------------------------
      LOOP:  cpu time     23.6122: real time     23.7752

 eigenvalue-minimisations  : 32154
 total energy-change (2. order) : 0.5930053E-04  (-0.2356357E-03)
 number of electron     160.0000071 magnetization       0.0000000
 augmentation part       58.9971147 magnetization       0.0000000

 Broyden mixing:
  rms(total) = 0.98470E-02    rms(broyden)= 0.98373E-02
  rms(prec ) = 0.11776E-01
  weight for this iteration     100.00

 eigenvalues of (default mixing * dielectric matrix)
  average eigenvalue GAMMA=   1.1470
  2.6279  1.5659  1.3510  1.3510  0.2961  0.8808  0.8808  0.7389  0.6312

 Free energy of the ion-electron system (eV)
  ---------------------------------------------------
  alpha Z        PSCENC =       762.61737321
  Ewald energy   TEWEN  =    -10723.37107127
  -Hartree energ DENC   =     -9266.94806157
  -exchange      EXHF   =         0.00000000
  -V(xc)+E(xc)   XCENC  =       558.25574744
  PAW double counting   =     15690.07931358   -16308.39289222
  entropy T*S    EENTRO =        -0.01753853
  eigenvalues    EBANDS =     -2514.83869757
  atomic energy  EATOM  =     21710.84102437
  Solvation  Ediel_sol  =         0.00000000
  ---------------------------------------------------
  free energy    TOTEN  =       -91.77480256 eV

  energy without entropy =      -91.75726403  energy(sigma->0) =      -91.76603330


--------------------------------------------------------------------------------------------------------




--------------------------------------- Iteration      1(  15)  ---------------------------------------


    POTLOK:  cpu time      0.0542: real time      0.0546
    SETDIJ:  cpu time      0.2711: real time      0.2724
    EDDIAG:  cpu time      4.7694: real time      4.7961
  RMM-DIIS:  cpu time     11.9033: real time     11.9681
    ORTHCH:  cpu time      0.6215: real time      0.6242
       DOS:  cpu time      0.0022: real time      0.0022
    --------------------------------------------
      LOOP:  cpu time     17.6216: real time     17.7175

 eigenvalue-minimisations  : 20854
 total energy-change (2. order) :-0.4673857E-04  (-0.4467485E-04)
 number of electron     160.0000071 magnetization       0.0000000
 augmentation part       58.9971147 magnetization       0.0000000

 Free energy of the ion-electron system (eV)
  ---------------------------------------------------
  alpha Z        PSCENC =       762.61737321
  Ewald energy   TEWEN  =    -10723.37107127
  -Hartree energ DENC   =     -9267.20573250
  -exchange      EXHF   =         0.00000000
  -V(xc)+E(xc)   XCENC  =       558.25018925
  PAW double counting   =     15690.88425372   -16309.13339053
  entropy T*S    EENTRO =        -0.01752982
  eigenvalues    EBANDS =     -2514.63996573
  atomic energy  EATOM  =     21710.84102437
  Solvation  Ediel_sol  =         0.00000000
  ---------------------------------------------------
  free energy    TOTEN  =       -91.77484930 eV

  energy without entropy =      -91.75731948  energy(sigma->0) =      -91.76608439


--------------------------------------------------------------------------------------------------------




 average (electrostatic) potential at core
  the test charge radii are     0.9500  1.0808
  (the norm of the test charge is              1.0000)
       1 -48.0120       2 -48.0120       3 -48.0120       4 -48.0120       5 -48.0120
       6 -48.0120       7 -48.0120       8 -48.0120       9 -55.4109      10 -55.4109
      11 -55.4109      12 -55.4109      13 -55.4109      14 -55.4109      15 -55.4109
      16 -55.4109
 
 
 
 E-fermi :   3.2161     XC(G=0): -10.0576     alpha+bet : -8.7379

 Fermi energy:         3.2160747548

 spin component 1

 k-point     1 :       0.0000    0.0000    0.0000
  band No.  band energies     occupation 
      1     -51.6881      1.00000
      2     -51.6824      1.00000
      3     -51.6824      1.00000
      4     -51.6787      1.00000
      5     -51.5264      1.00000
      6     -51.4744      1.00000
      7     -51.4705      1.00000
      8     -51.4705      1.00000
      9     -51.4649      1.00000
     10     -51.3809      1.00000
     11     -51.3809      1.00000
     12     -51.2333      1.00000
     13     -48.7675      1.00000
     14     -48.7661      1.00000
     15     -48.7661      1.00000
     16     -48.7658      1.00000
     17     -48.7295      1.00000
     18     -48.5674      1.00000
     19     -48.5674      1.00000
     20     -48.4168      1.00000
     21     -48.4168      1.00000
     22     -48.4166      1.00000
     23     -48.4150      1.00000
     24     -48.4026      1.00000
     25     -10.7476      1.00000
     26      -9.7848      1.00000
     27      -9.7848      1.00000
     28      -9.7684      1.00000
     29      -9.7684      1.00000
     30      -9.4950      1.00000
     31      -9.4447      1.00000
[...]
         0         1         2         3         4         5         6         7         8         9
 total charge-density along one line
 
 soft charge-density along one line, spin component           2
         0         1         2         3         4         5         6         7         8         9
 total charge-density along one line
 
 pseudopotential strength for first ion, spin component:           1
-55.695   0.064  -0.000  28.746  -0.051   0.000  -0.000   0.000
  0.064 -55.747   0.000  -0.051  28.785  -0.000  -0.000   0.000
 -0.000   0.000 -55.579   0.000  -0.000  28.654   0.000  -0.000
 28.746  -0.051   0.000 -10.385   0.037  -0.000   0.000  -0.000
 -0.051  28.785  -0.000   0.037 -10.413   0.000   0.000  -0.000
  0.000  -0.000  28.654  -0.000   0.000 -10.324  -0.000   0.000
 -0.000  -0.000   0.000   0.000   0.000  -0.000  -9.320  -0.000
  0.000   0.000  -0.000  -0.000  -0.000   0.000  -0.000  -9.099
 -0.000   0.000   0.000   0.000  -0.000  -0.000   0.000  -0.002
 -0.000  -0.000  -0.000   0.000   0.000   0.000  -0.025  -0.000
 -0.000  -0.000  -0.000   0.000   0.000   0.000  -0.000  -0.102
  0.000   0.000  -0.000  -0.000  -0.000   0.000   0.031   0.000
 -0.000  -0.000   0.000   0.000   0.000  -0.000   0.000  -0.022
  0.000  -0.000  -0.000  -0.000   0.000   0.000  -0.000   0.001
  0.000   0.000   0.000  -0.000  -0.000  -0.000   0.005   0.000
  0.000   0.000   0.000  -0.000  -0.000  -0.000   0.000   0.025
 -0.000  -0.000   0.000   0.000   0.000  -0.000   0.000  -0.015
  0.000   0.000  -0.000  -0.000   0.000   0.000  -0.000   0.003
 pseudopotential strength for first ion, spin component:           2
-53.456   0.105  -0.000  27.035  -0.075   0.000  -0.000   0.000
  0.105 -53.465   0.000  -0.075  27.040  -0.000  -0.000   0.000
 -0.000   0.000 -53.440   0.000  -0.000  27.016   0.000  -0.000
 27.035  -0.075   0.000  -9.176   0.056  -0.000   0.000  -0.000
 -0.075  27.040  -0.000   0.056  -9.180   0.000   0.000  -0.000
  0.000  -0.000  27.016  -0.000   0.000  -9.165  -0.000   0.000
 -0.000  -0.000   0.000   0.000   0.000  -0.000  -7.119  -0.000
  0.000   0.000  -0.000  -0.000  -0.000   0.000  -0.000  -7.509
 -0.000   0.000   0.000   0.000  -0.000  -0.000   0.000   0.076
 -0.000  -0.000  -0.000   0.000   0.000   0.000   0.118  -0.000
 -0.000  -0.000  -0.000   0.000   0.000   0.000  -0.000   0.007
  0.000   0.000  -0.000  -0.000  -0.000   0.000  -0.482   0.000
 -0.000  -0.000   0.000  -0.000   0.000  -0.000   0.000  -0.392
  0.000  -0.000  -0.000  -0.000  -0.000   0.000  -0.000  -0.016
  0.000   0.000   0.000  -0.000  -0.000  -0.000  -0.026   0.000
  0.000   0.000   0.000  -0.000  -0.000  -0.000   0.000  -0.003
 -0.000   0.000   0.000   0.000  -0.000  -0.000   0.000  -0.012
  0.000  -0.000  -0.000  -0.000   0.000   0.000  -0.000   0.003
 total augmentation occupancy for first ion, spin component:           1
  2.009  -0.020   0.000   0.055  -0.048   0.000   0.000  -0.000   0.000  -0.000  -0.000  -0.000  -0.000   0.000   0.000  -0.000
 -0.020   2.012   0.000  -0.048   0.062  -0.000  -0.000   0.000   0.000  -0.000  -0.000  -0.000   0.000   0.000   0.000   0.000
 -0.000   0.000   2.007  -0.000   0.000   0.049   0.000   0.000   0.000   0.000   0.000  -0.000   0.000   0.000  -0.000   0.000
  0.055  -0.048  -0.000   0.193  -0.116   0.000  -0.000  -0.000  -0.000  -0.000   0.000  -0.000   0.000  -0.000  -0.000   0.000
 -0.048   0.062   0.000  -0.116   0.211  -0.000   0.000  -0.000   0.000   0.000   0.000   0.000  -0.000   0.000   0.000  -0.000
  0.000   0.000   0.049   0.000   0.000   0.171   0.000   0.000   0.000   0.000   0.000   0.000   0.000  -0.000   0.000   0.000
  0.000  -0.000   0.000  -0.000   0.000   0.000   1.226  -0.000  -0.000  -0.094  -0.000  -0.091  -0.000  -0.000  -0.055  -0.000
 -0.000   0.000   0.000  -0.000  -0.000   0.000   0.000   1.479   0.011   0.000  -0.093  -0.000   0.078  -0.133   0.000   0.105
  0.000   0.000   0.000  -0.000   0.000   0.000   0.000   0.011   1.304   0.000  -0.181   0.000  -0.135   0.025   0.000  -0.088
 -0.000  -0.000  -0.000  -0.000   0.000   0.000  -0.094   0.000   0.000   1.193   0.000  -0.056  -0.000  -0.000  -0.071   0.000
 -0.000  -0.000   0.000   0.000  -0.000   0.000  -0.000  -0.093  -0.181   0.000   1.503  -0.000   0.108  -0.086  -0.000   0.122
  0.000  -0.000  -0.000  -0.000   0.000  -0.000  -0.091  -0.000   0.000  -0.056  -0.000   0.157  -0.000  -0.000  -0.029   0.000
  0.000  -0.000   0.000   0.000  -0.000   0.000   0.000   0.078  -0.135   0.000   0.108  -0.000   0.246  -0.067   0.000   0.090
 -0.000  -0.000   0.000   0.000  -0.000  -0.000  -0.000  -0.133   0.025  -0.000  -0.086  -0.000  -0.067   0.162   0.000  -0.006
  0.000   0.000   0.000  -0.000   0.000   0.000  -0.055   0.000  -0.000  -0.071  -0.000  -0.029  -0.000   0.000   0.156  -0.000
  0.000   0.000   0.000  -0.000  -0.000   0.000  -0.000   0.105  -0.088   0.000   0.122   0.000   0.090  -0.006  -0.000   0.136
 -0.000   0.000  -0.000   0.000  -0.000  -0.000  -0.000  -0.017  -0.025   0.000   0.089  -0.000  -0.338   0.031   0.000  -0.015
  0.000   0.000  -0.000  -0.000   0.000  -0.000   0.000  -0.001   0.017   0.000  -0.014   0.000   0.021  -0.005   0.000   0.004
 total augmentation occupancy for first ion, spin component:           2
 -0.006   0.000   0.000  -0.002  -0.000   0.000   0.000  -0.000   0.000  -0.000  -0.000   0.000   0.000   0.000   0.000   0.000
  0.000  -0.008  -0.000  -0.000  -0.008   0.000   0.000   0.000  -0.000   0.000   0.000  -0.000   0.000   0.000  -0.000   0.000
 -0.000   0.000  -0.008   0.000  -0.000  -0.006  -0.000   0.000  -0.000   0.000   0.000   0.000   0.000   0.000  -0.000  -0.000
 -0.002  -0.000   0.000   0.015  -0.002  -0.000   0.000   0.000   0.000   0.000  -0.000  -0.000   0.000  -0.000   0.000   0.000
 -0.000  -0.008  -0.000  -0.002   0.001   0.000  -0.000   0.000   0.000  -0.000  -0.000   0.000  -0.000   0.000   0.000  -0.000
 -0.000  -0.000  -0.006  -0.000  -0.000   0.008   0.000   0.000   0.000   0.000   0.000   0.000   0.000   0.000   0.000  -0.000
  0.000   0.000   0.000   0.000  -0.000   0.000   0.730  -0.000  -0.000   0.109   0.000  -0.273  -0.000   0.000   0.011  -0.000
  0.000   0.000   0.000  -0.000  -0.000   0.000   0.000   0.374   0.071  -0.000   0.039  -0.000  -0.208   0.001   0.000  -0.034
  0.000   0.000  -0.000   0.000  -0.000   0.000   0.000   0.071   0.561   0.000   0.233   0.000  -0.001  -0.227   0.000  -0.035
 -0.000   0.000   0.000   0.000  -0.000  -0.000   0.109  -0.000   0.000   0.739   0.000   0.012   0.000  -0.000  -0.273   0.000
 -0.000   0.000   0.000   0.000   0.000   0.000   0.000   0.039   0.233   0.000   0.266  -0.000  -0.019  -0.030  -0.000  -0.161
  0.000  -0.000  -0.000  -0.000   0.000   0.000  -0.273   0.000  -0.000   0.012  -0.000   0.057  -0.000  -0.000   0.004  -0.000
  0.000   0.000   0.000  -0.000   0.000   0.000  -0.000  -0.208  -0.001   0.000  -0.019  -0.000   0.011   0.022   0.000  -0.002
  0.000   0.000   0.000   0.000   0.000   0.000  -0.000   0.001  -0.227   0.000  -0.030   0.000   0.022   0.021   0.000   0.014
  0.000  -0.000   0.000   0.000   0.000  -0.000   0.011  -0.000   0.000  -0.273   0.000   0.004   0.000   0.000   0.044  -0.000
  0.000   0.000  -0.000   0.000  -0.000  -0.000   0.000  -0.034  -0.035   0.000  -0.161   0.000  -0.002   0.014   0.000  -0.007
 -0.000  -0.000   0.000   0.000  -0.000  -0.000  -0.000   0.131   0.013   0.000  -0.047   0.000  -0.039   0.004   0.000  -0.029
  0.000  -0.000   0.000   0.000   0.000   0.000   0.000   0.011   0.018   0.000  -0.020   0.000  -0.003  -0.002  -0.000   0.000


------------------------ aborting loop because EDIFF is reached ----------------------------------------





 total charge

# of ion       s       p       d       tot
------------------------------------------
    1        0.339   6.290   6.044  12.673
    2        0.339   6.290   6.044  12.673
    3        0.339   6.290   6.044  12.673
    4        0.339   6.290   6.044  12.673
    5        0.339   6.290   6.044  12.673
    6        0.339   6.290   6.044  12.673
    7        0.339   6.290   6.044  12.673
    8        0.339   6.290   6.044  12.673
    9        1.485   2.275   0.047   3.807
   10        1.485   2.275   0.047   3.807
   11        1.485   2.275   0.047   3.807
   12        1.485   2.275   0.047   3.807
   13        1.485   2.275   0.047   3.807
   14        1.485   2.275   0.047   3.807
   15        1.485   2.275   0.047   3.807
   16        1.485   2.275   0.047   3.807
--------------------------------------------------
tot         14.590  68.514  48.733 131.837



 magnetization (x)

# of ion       s       p       d       tot
------------------------------------------
    1        0.030   0.012   2.603   2.644
    2       -0.030  -0.012  -2.603  -2.644
    3       -0.030  -0.012  -2.603  -2.644
    4        0.030   0.012   2.603   2.644
    5        0.030   0.012   2.603   2.644
    6       -0.030  -0.012  -2.603  -2.644
    7       -0.030  -0.012  -2.603  -2.644
    8        0.030   0.012   2.603   2.644
    9        0.000   0.000   0.000   0.000
   10        0.000   0.000   0.000   0.000
   11        0.000   0.000   0.000   0.000
   12        0.000   0.000   0.000   0.000
   13        0.000   0.000   0.000   0.000
   14        0.000   0.000   0.000   0.000
   15        0.000   0.000   0.000   0.000
   16        0.000   0.000   0.000   0.000
--------------------------------------------------
tot          0.000   0.000   0.000   0.000
 
    CHARGE:  cpu time      1.0883: real time      1.0948
    FORLOC:  cpu time      0.0032: real time      0.0032
    FORNL :  cpu time      7.1117: real time      7.1458
    STRESS:  cpu time     21.4326: real time     21.5375
    FORCOR:  cpu time      0.0523: real time      0.0525
    FORHAR:  cpu time      0.0073: real time      0.0073
    MIXING:  cpu time      0.0015: real time      0.0015
    OFIELD:  cpu time      0.0000: real time      0.0000
    FORVDW:  cpu time      0.7274: real time      0.7298

  FORCE on cell =-STRESS in cart. coord.  units (eV):
  Direction    XX          YY          ZZ          XY          YZ          ZX
  --------------------------------------------------------------------------------------
  Alpha Z   762.61737   762.61737   762.61737
  Ewald    -646.15436 -1424.19061 -8663.59665     0.00000    -0.00000     0.00000
  Hartree  5762.99326  5001.09073 -1506.98729     0.00000     0.00000    -0.00000
  E(xc)    -896.30145  -898.04354  -897.46964    -0.00000     0.00000    -0.00000
  Local   -6937.57072 -5396.35398  8367.89212     0.00000    -0.00000     0.00000
  n-local  -273.01091  -246.00817  -238.08675    -1.09500    -0.23277    -0.62713
  augment   531.02592   516.78094   515.47564     0.00000     0.00000     0.00000
  Kinetic  1698.32614  1686.07518  1661.75319     3.60873    -0.14987     0.10905
  Fock        0.00000     0.00000     0.00000     0.00000     0.00000     0.00000
  vdW        -5.99218    -6.08576    -6.20062     0.00000     0.00000    -0.00000
  -------------------------------------------------------------------------------------
  Total      -4.06693    -4.11784    -4.60261     0.00000     0.00000     0.00000
  in kB     -19.56740   -19.81234   -22.14475     0.00000     0.00000     0.00000
  external pressure =      -20.51 kB  Pullay stress =        0.00 kB


 VOLUME and BASIS-vectors are now :
 -----------------------------------------------------------------------------
  energy-cutoff  :      550.00
  volume of cell :      333.00
      direct lattice vectors                 reciprocal lattice vectors
     4.878097749 -5.832709928  0.000000000     0.102498971 -0.085723447 -0.000000000
     4.878097749  5.832709928 -0.000000000     0.102498971  0.085723447  0.000000000
     0.000000000 -0.000000000  5.851852361     0.000000000  0.000000000  0.170886061

  length of vectors
     7.603705857  7.603705857  5.851852361     0.133620913  0.133620913  0.170886061


 FORCES acting on ions
    electron-ion (+dipol)            ewald-force                    non-local-force                 convergence-correction
 -----------------------------------------------------------------------------------------------
   -.459E-13 -.102E-12 -.107E-12   0.163E-12 -.639E-13 0.142E-13   -.376E-22 -.316E-21 0.689E-22   0.207E-12 -.879E-12 0.398E-12
   0.671E-12 0.769E-12 -.774E-13   0.160E-12 -.711E-13 0.284E-13   -.255E-21 0.334E-23 -.759E-22   0.686E-14 -.632E-12 0.143E-13
   0.634E-12 -.165E-11 -.121E-10   0.164E-12 -.568E-13 0.284E-13   0.133E-21 -.747E-21 -.151E-22   -.132E-12 0.525E-12 0.123E-11
   -.489E-11 -.970E-11 -.904E-11   0.163E-12 -.711E-13 0.391E-13   -.307E-21 -.207E-21 -.737E-22   0.470E-12 0.628E-12 -.820E-12
   -.256E-11 -.402E-11 -.370E-11   -.175E-12 0.462E-13 -.320E-13   0.144E-21 0.237E-21 -.616E-22   -.513E-12 0.920E-12 0.504E-13
   0.436E-11 0.567E-11 -.434E-11   -.171E-12 0.604E-13 -.249E-13   -.113E-21 0.682E-21 0.392E-23   -.685E-12 0.568E-12 0.200E-12
   -.145E-10 -.295E-10 0.377E-10   -.171E-12 0.178E-13 -.355E-13   0.232E-21 0.118E-21 -.792E-22   0.107E-11 -.126E-12 0.108E-11
   0.914E-12 -.658E-11 0.358E-10   -.163E-12 0.284E-13 -.284E-13   -.355E-23 0.554E-22 0.194E-22   0.219E-12 -.526E-12 -.713E-13
   0.569E-07 -.115E-11 0.350E+03   -.376E-15 -.711E-14 -.351E+03   0.673E-17 0.348E-17 0.111E+01   0.701E-13 0.219E-12 0.861E-02
   0.569E-07 -.200E-11 0.350E+03   0.711E-14 0.354E-14 -.351E+03   -.444E-17 -.511E-18 0.111E+01   0.186E-13 -.164E-12 0.861E-02
   0.569E-07 0.204E-12 0.350E+03   0.711E-14 0.312E-14 -.351E+03   0.403E-17 0.389E-17 0.111E+01   0.626E-13 -.786E-13 0.861E-02
   0.569E-07 -.366E-12 0.350E+03   0.704E-14 0.213E-13 -.351E+03   -.565E-17 -.604E-17 0.111E+01   -.174E-12 0.366E-14 0.861E-02
   -.569E-07 0.122E-12 -.350E+03   -.160E-14 0.436E-13 0.351E+03   0.279E-17 0.108E-17 -.111E+01   -.863E-13 0.202E-13 -.861E-02
   -.569E-07 -.152E-13 -.350E+03   -.911E-15 0.428E-13 0.351E+03   0.417E-18 -.370E-17 -.111E+01   0.238E-14 0.132E-14 -.861E-02
   -.569E-07 0.116E-12 -.350E+03   0.676E-15 0.145E-13 0.351E+03   -.110E-17 0.119E-17 -.111E+01   -.191E-12 -.278E-12 -.861E-02
   -.569E-07 0.280E-11 -.350E+03   0.885E-14 0.262E-14 0.351E+03   -.153E-17 0.407E-17 -.111E+01   0.182E-12 0.188E-12 -.861E-02
 -----------------------------------------------------------------------------------------------
   -.151E-10 -.454E-10 0.331E-10   0.447E-15 0.142E-13 0.171E-12   0.125E-17 0.345E-17 0.000E+00   0.532E-12 0.388E-12 0.164E-11
 
 
 POSITION                                       TOTAL-FORCE (eV/Angst)
 -----------------------------------------------------------------------------------
     -0.00000     -0.00000     -0.00000         0.000000      0.000000      0.000000
      2.43905      2.91635     -0.00000         0.000000      0.000000      0.000000
      2.43905     -2.91635      0.00000         0.000000      0.000000      0.000000
      4.87810      0.00000     -0.00000         0.000000      0.000000      0.000000
      2.43905      0.00000     -0.00000         0.000000      0.000000      0.000000
      4.87810      2.91635     -0.00000         0.000000      0.000000      0.000000
      4.87810     -2.91635      0.00000         0.000000      0.000000      0.000000
      7.31715      0.00000     -0.00000         0.000000      0.000000      0.000000
      2.43905     -1.45818      4.07958        -0.000000     -0.000000      0.018854
      4.87810      1.45818      4.07958         0.000000     -0.000000      0.018854
      4.87810     -4.37453      4.07958        -0.000000     -0.000000      0.018854
      7.31715     -1.45818      4.07958         0.000000     -0.000000      0.018854
      2.43905      1.45818      1.77227         0.000000      0.000000     -0.018854
      4.87810      4.37453      1.77227        -0.000000      0.000000     -0.018854
      4.87810     -1.45818      1.77227         0.000000      0.000000     -0.018854
      7.31715      1.45818      1.77227         0.000000      0.000000     -0.018854
 -----------------------------------------------------------------------------------
    total drift:                               -0.000000     -0.000000      0.000000


--------------------------------------------------------------------------------------------------------



  FREE ENERGIE OF THE ION-ELECTRON SYSTEM (eV)
  ---------------------------------------------------
  free  energy   TOTEN  =       -98.13186312 eV

  energy  without entropy=      -98.11392344  energy(sigma->0) =      -98.12289328
 
 d Force =-0.1159908E-03[-0.315E-03, 0.832E-04]  d Energy =-0.1206455E-03 0.465E-05
 d Force = 0.5883280E+01[ 0.587E+01, 0.589E+01]  d Ewald  = 0.6326825E+01-0.444E+00


--------------------------------------------------------------------------------------------------------


    POTLOK:  cpu time      0.3211: real time      0.3413


--------------------------------------------------------------------------------------------------------




--------------------------------------------------------------------------------------------------------


  
 reached required accuracy - stopping structural energy minimisation
     LOOP+:  cpu time    108.1729: real time    110.0068
    4ORBIT:  cpu time      0.0000: real time      0.0000



 total charge

# of ion       s       p       d       tot
------------------------------------------
    1        0.339   6.290   6.044  12.673
    2        0.339   6.290   6.044  12.673
    3        0.339   6.290   6.044  12.673
    4        0.339   6.290   6.044  12.673
    5        0.339   6.290   6.044  12.673
    6        0.339   6.290   6.044  12.673
    7        0.339   6.290   6.044  12.673
    8        0.339   6.290   6.044  12.673
    9        1.485   2.275   0.047   3.807
   10        1.485   2.275   0.047   3.807
   11        1.485   2.275   0.047   3.807
   12        1.485   2.275   0.047   3.807
   13        1.485   2.275   0.047   3.807
   14        1.485   2.275   0.047   3.807
   15        1.485   2.275   0.047   3.807
   16        1.485   2.275   0.047   3.807
--------------------------------------------------
tot         14.590  68.514  48.733 131.837



 magnetization (x)

# of ion       s       p       d       tot
------------------------------------------
    1        0.030   0.012   2.603   2.644
    2       -0.030  -0.012  -2.603  -2.644
    3       -0.030  -0.012  -2.603  -2.644
    4        0.030   0.012   2.603   2.644
    5        0.030   0.012   2.603   2.644
    6       -0.030  -0.012  -2.603  -2.644
    7       -0.030  -0.012  -2.603  -2.644
    8        0.030   0.012   2.603   2.644
    9        0.000   0.000   0.000   0.000
   10        0.000   0.000   0.000   0.000
   11        0.000   0.000   0.000   0.000
   12        0.000   0.000   0.000   0.000
   13        0.000   0.000   0.000   0.000
   14        0.000   0.000   0.000   0.000
   15        0.000   0.000   0.000   0.000
   16        0.000   0.000   0.000   0.000
--------------------------------------------------
tot          0.000   0.000   0.000   0.000
 

 total amount of memory used by VASP MPI-rank0   195010. kBytes
=======================================================================

   base      :      30000. kBytes
   nonlr-proj:      13101. kBytes
   fftplans  :       3084. kBytes
   grid      :      19560. kBytes
   one-center:        497. kBytes
   wavefun   :     128768. kBytes
 
  
  
 General timing and accounting informations for this job:
 ========================================================
  
                  Total CPU time used (sec):      704.352
                            User time (sec):      701.631
                          System time (sec):        2.721
                         Elapsed time (sec):      710.933
  
                   Maximum memory used (kb):      477456.
                   Average memory used (kb):          N/A
  
                          Minor page faults:       246234
                          Major page faults:            0
                 Voluntary context switches:        37967
