 vasp.6.4.1 05Apr23 (build Jun 01 2023 13:46:15) complex                        
  
 executed on             LinuxIFC date 2023.12.16  20:24:39
 running   20 mpi-ranks, on    5 nodes
 distrk:  each k-point on   20 cores,    1 groups
 distr:  one band on NCORE=   1 cores,   20 groups


--------------------------------------------------------------------------------------------------------


 INCAR:
   ALGO = Fast
   EDIFF = 0.0002
   ENCUT = 550
   IBRION = -1
   ISIF = 4
   ISMEAR = -5
   ISPIN = 2
   IVDW = 13
   LASPH = True
   LMAXMIX = 4
   LORBIT = 11
   LREAL = Auto
   LWAVE = False
   MAGMOM = 1*2.644 2*-2.644 2*2.644 2*-2.644 1*2.644 8*0.0
   NELM = 100
   NSW = 0
   PREC = Accurate
   SIGMA = 0.05

 POTCAR:   PAW_PBE Fe_pv 06Sep2000                
 POTCAR:   PAW_PBE Se 06Sep2000                   
 -----------------------------------------------------------------------------
|                                                                             |
|           W    W    AA    RRRRR   N    N  II  N    N   GGGG   !!!           |
|           W    W   A  A   R    R  NN   N  II  NN   N  G    G  !!!           |
|           W    W  A    A  R    R  N N  N  II  N N  N  G       !!!           |
|           W WW W  AAAAAA  RRRRR   N  N N  II  N  N N  G  GGG   !            |
|           WW  WW  A    A  R   R   N   NN  II  N   NN  G    G                |
|           W    W  A    A  R    R  N    N  II  N    N   GGGG   !!!           |
|                                                                             |
|     For optimal performance we recommend to set                             |
|       NCORE = 2 up to number-of-cores-per-socket                            |
|     NCORE specifies how many cores store one orbital (NPAR=cpu/NCORE).      |
|     This setting can greatly improve the performance of VASP for DFT.       |
|     The default, NCORE=1 might be grossly inefficient on modern             |
|     multi-core architectures or massively parallel machines. Do your        |
|     own testing! More info at https://www.vasp.at/wiki/index.php/NCORE      |
|     Unfortunately you need to use the default for GW and RPA                |
|     calculations (for HF NCORE is supported but not extensively tested      |
|     yet).                                                                   |
|                                                                             |
 -----------------------------------------------------------------------------

 POTCAR:   PAW_PBE Fe_pv 06Sep2000                
   VRHFIN =Fe:  3pd7s1                                                                              
   LEXCH  = PE                                                                                      
   EATOM  =  2456.8974 eV,  180.5769 Ry                                                             
                                                                                                    
   TITEL  = PAW_PBE Fe_pv 06Sep2000                                                                 
   LULTRA =        F    use ultrasoft PP ?                                                          
   IUNSCR =        1    unscreen: 0-lin 1-nonlin 2-no                                               
   RPACOR =    1.750    partial core radius                                                         
   POMASS =   55.847; ZVAL   =   14.000    mass and valenz                                          
   RCORE  =    2.200    outmost cutoff radius                                                       
   RWIGS  =    2.200; RWIGS  =    1.164    wigner-seitz radius (au A)                               
   ENMAX  =  293.238; ENMIN  =  219.929 eV                                                          
   RCLOC  =    1.701    cutoff for local pot                                                        
   LCOR   =        T    correct aug charges                                                         
   LPAW   =        T    paw PP                                                                      
   EAUG   =  578.342                                                                                
   DEXC   =    -.002                                                                                
   RMAX   =    2.693    core radius for proj-oper                                                   
   RAUG   =    1.300    factor for augmentation sphere                                              
   RDEP   =    2.296    radius for radial grids                                                     
   QCUT   =   -4.642; QGAM   =    9.285    optimization parameters                                  
                                                                                                    
   Description                                                                                      
     l     E      TYP  RCUT    TYP  RCUT                                                            
     1   .000     23  2.000                                                                         
     1  -.400     23  2.000                                                                         
     2   .000     23  2.200                                                                         
     2   .000     23  2.200                                                                         
     0   .000     23  2.000                                                                         
     0  2.000     23  2.000                                                                         
     3   .000      7   .000                                                                         
  local pseudopotential read in
  partial core-charges read in
  atomic valenz-charges read in
  non local Contribution for L=           1  read in
    real space projection operators read in
  non local Contribution for L=           1  read in
    real space projection operators read in
  non local Contribution for L=           2  read in
    real space projection operators read in
  non local Contribution for L=           2  read in
    real space projection operators read in
  non local Contribution for L=           0  read in
    real space projection operators read in
  non local Contribution for L=           0  read in
    real space projection operators read in
    PAW grid and wavefunctions read in
 
   number of l-projection  operators is LMAX  =           6
   number of lm-projection operators is LMMAX =          18
 
 POTCAR:   PAW_PBE Se 06Sep2000                   
   VRHFIN =Se: s2p4                                                                                 
   LEXCH  = PE                                                                                      
   EATOM  =   256.9644 eV,   18.8864 Ry                                                             
                                                                                                    
   TITEL  = PAW_PBE Se 06Sep2000                                                                    
   LULTRA =        F    use ultrasoft PP ?                                                          
   IUNSCR =        1    unscreen: 0-lin 1-nonlin 2-no                                               
   RPACOR =    1.900    partial core radius                                                         
   POMASS =   78.960; ZVAL   =    6.000    mass and valenz                                          
   RCORE  =    2.100    outmost cutoff radius                                                       
   RWIGS  =    2.200; RWIGS  =    1.164    wigner-seitz radius (au A)                               
   ENMAX  =  211.534; ENMIN  =  158.651 eV                                                          
   ICORE  =        3    local potential                                                             
   LCOR   =        T    correct aug charges                                                         
   LPAW   =        T    paw PP                                                                      
   EAUG   =  446.842                                                                                
   DEXC   =    -.031                                                                                
   RMAX   =    3.170    core radius for proj-oper                                                   
   RAUG   =    1.300    factor for augmentation sphere                                              
   RDEP   =    2.177    radius for radial grids                                                     
   QCUT   =   -3.943; QGAM   =    7.886    optimization parameters                                  
                                                                                                    
   Description                                                                                      
     l     E      TYP  RCUT    TYP  RCUT                                                            
     0   .000     23  2.100                                                                         
     0   .000     23  2.100                                                                         
     1   .000     23  2.100                                                                         
     1   .000     23  2.100                                                                         
     2   .000     23  2.100                                                                         
     3  -.100      7  2.100                                                                         
  local pseudopotential read in
  partial core-charges read in
  atomic valenz-charges read in
  non local Contribution for L=           0  read in
    real space projection operators read in
  non local Contribution for L=           0  read in
    real space projection operators read in
  non local Contribution for L=           1  read in
    real space projection operators read in
  non local Contribution for L=           1  read in
    real space projection operators read in
  non local Contribution for L=           2  read in
    real space projection operators read in
    PAW grid and wavefunctions read in
 
   number of l-projection  operators is LMAX  =           5
   number of lm-projection operators is LMMAX =          13
 
 Optimization of the real space projectors (new method)

 maximal supplied QI-value         = 17.01
 optimisation between [QCUT,QGAM] = [ 11.91, 23.98] = [ 39.69,161.04] Ry 
 Optimized for a Real-space Cutoff    1.45 Angstroem

   l    n(q)    QCUT    max X(q) W(low)/X(q) W(high)/X(q)  e(spline) 
   1     10    11.905     4.550    0.27E-05    0.11E-05    0.28E-07
   1     10    11.905     5.234    0.10E-04    0.61E-04    0.17E-06
   2      9    11.905     3.960    0.19E-04    0.73E-05    0.50E-07
   2      9    11.905    29.565    0.24E-03    0.51E-04    0.27E-06
   0     10    11.905    23.582    0.17E-04    0.10E-05    0.14E-07
   0     10    11.905    39.747    0.23E-04    0.68E-05    0.74E-07
 Optimization of the real space projectors (new method)

 maximal supplied QI-value         = 17.95
 optimisation between [QCUT,QGAM] = [ 11.85, 23.88] = [ 39.31,159.64] Ry 
 Optimized for a Real-space Cutoff    1.18 Angstroem

   l    n(q)    QCUT    max X(q) W(low)/X(q) W(high)/X(q)  e(spline) 
   0      8    11.849     6.499    0.17E-04    0.94E-05    0.89E-08
   0      8    11.849    52.623    0.21E-03    0.78E-04    0.81E-07
   1      8    11.849     4.229    0.79E-04    0.83E-04    0.23E-07
   1      8    11.849    29.991    0.12E-03    0.43E-03    0.14E-06
   2      7    11.849     3.719    0.22E-03    0.64E-04    0.38E-07
 PAW_PBE Fe_pv 06Sep2000                :
 energy of atom  1       EATOM=-2456.8974
 kinetic energy error for atom=    0.0060 (will be added to EATOM!!)
 PAW_PBE Se 06Sep2000                   :
 energy of atom  2       EATOM= -256.9644
 kinetic energy error for atom=    0.0007 (will be added to EATOM!!)
 
 
 POSCAR: Fe8 Se8
  positions in direct lattice
  velocities in cartesian coordinates
 exchange correlation table for  LEXCH =        8
   RHO(1)=    0.500       N(1)  =     2000
   RHO(2)=  100.500       N(2)  =     4000
 


--------------------------------------------------------------------------------------------------------


 ion  position               nearest neighbor table
   1  0.000  0.000  0.000-  11 2.30  14 2.30   5 2.44   8 2.44
   2  0.000  0.500  0.000-  12 2.30  13 2.30   6 2.44   7 2.44
   3  0.500  0.000  0.000-   9 2.30  16 2.30   6 2.44   7 2.44
   4  0.500  0.500  0.000-  10 2.30  15 2.30   5 2.44   8 2.44
   5  0.250  0.250  0.000-   9 2.30  13 2.30   1 2.44   4 2.44
   6  0.250  0.750  0.000-  10 2.30  14 2.30   2 2.44   3 2.44
   7  0.750  0.250  0.000-  11 2.30  15 2.30   2 2.44   3 2.44
   8  0.750  0.750  0.000-  12 2.30  16 2.30   1 2.44   4 2.44
   9  0.375  0.125  0.697-   3 2.30   5 2.30
  10  0.375  0.625  0.697-   4 2.30   6 2.30
  11  0.875  0.125  0.697-   1 2.30   7 2.30
  12  0.875  0.625  0.697-   2 2.30   8 2.30
  13  0.125  0.375  0.303-   2 2.30   5 2.30
  14  0.125  0.875  0.303-   1 2.30   6 2.30
  15  0.625  0.375  0.303-   4 2.30   7 2.30
  16  0.625  0.875  0.303-   3 2.30   8 2.30
 
  LATTYP: Found a base centered orthorhombic cell.
 ALAT       =     9.7561954980
 B/A-ratio  =     1.1956935323
 C/A-ratio  =     0.5998088458
  
  Lattice vectors:
  
 A1 = (   4.8780977490,  -5.8327099282,   0.0000000000)
 A2 = (   4.8780977490,   5.8327099282,   0.0000000000)
 A3 = (   0.0000000000,   0.0000000000,   5.8518523608)


Analysis of symmetry for initial positions (statically):
=====================================================================
 Subroutine PRICEL returns following result:
 
  LATTYP: Found a base centered orthorhombic cell.
 ALAT       =     4.8780977490
 B/A-ratio  =     1.1956935323
 C/A-ratio  =     1.1996176916
  
  Lattice vectors:
  
 A1 = (   2.4390488745,  -2.9163549641,   0.0000000000)
 A2 = (   2.4390488745,   2.9163549641,   0.0000000000)
 A3 = (   0.0000000000,   0.0000000000,   5.8518523608)
 
   4 primitive cells build up your supercell.
 

 Routine SETGRP: Setting up the symmetry group for a 
 base centered orthorhombic supercell.


 Subroutine GETGRP returns: Found  8 space group operations
 (whereof  4 operations were pure point group operations)
 out of a pool of  8 trial point group operations.


The static configuration has the point symmetry C_2h.
 The point group associated with its full space group is D_2h.


Analysis of symmetry for dynamics (positions and initial velocities):
=====================================================================
 Subroutine PRICEL returns following result:
 
  LATTYP: Found a base centered orthorhombic cell.
 ALAT       =     4.8780977490
 B/A-ratio  =     1.1956935323
 C/A-ratio  =     1.1996176916
  
  Lattice vectors:
  
 A1 = (   2.4390488745,  -2.9163549641,   0.0000000000)
 A2 = (   2.4390488745,   2.9163549641,   0.0000000000)
 A3 = (   0.0000000000,   0.0000000000,   5.8518523608)
 
   4 primitive cells build up your supercell.
 

 Routine SETGRP: Setting up the symmetry group for a 
 base centered orthorhombic supercell.


 Subroutine GETGRP returns: Found  8 space group operations
 (whereof  4 operations were pure point group operations)
 out of a pool of  8 trial point group operations.


The dynamic configuration has the point symmetry C_2h.
 The point group associated with its full space group is D_2h.


Analysis of structural, dynamic, and magnetic symmetry:
=====================================================================
 Subroutine PRICEL returns following result:
 
  LATTYP: Found a base centered orthorhombic cell.
 ALAT       =     4.8780977490
 B/A-ratio  =     1.1956935323
 C/A-ratio  =     1.1996176916
  
  Lattice vectors:
  
 A1 = (   2.4390488745,  -2.9163549641,   0.0000000000)
 A2 = (   2.4390488745,   2.9163549641,   0.0000000000)
 A3 = (   0.0000000000,   0.0000000000,   5.8518523608)
 
   4 primitive cells build up your supercell.
 

 Routine SETGRP: Setting up the symmetry group for a 
 base centered orthorhombic supercell.


 Subroutine GETGRP returns: Found  8 space group operations
 (whereof  4 operations were pure point group operations)
 out of a pool of  8 trial point group operations.


The overall configuration has the point symmetry C_2h.
 The point group associated with its full space group is D_2h.


 Subroutine INISYM returns: Found  8 space group operations
 (whereof  4 operations are pure point group operations),
 and found     4 'primitive' translations


----------------------------------------------------------------------------------------

                                     Primitive cell                                     

  volume of cell :      83.2500

  direct lattice vectors                    reciprocal lattice vectors
     2.439048874 -2.916354964  0.000000000     0.204997942 -0.171446894  0.000000000
     2.439048874  2.916354964  0.000000000     0.204997942  0.171446894  0.000000000
     0.000000000  0.000000000  5.851852361     0.000000000  0.000000000  0.170886061

  length of vectors
     3.801852928  3.801852928  5.851852361     0.267241826  0.267241826  0.170886061

  position of ions in fractional coordinates (direct lattice)
     0.000000000  0.000000000  0.000000000
     0.500000000  0.500000000  0.000000000
     0.750000000  0.250000000  0.697143094
     0.250000000  0.750000000  0.302856906

  ion indices of the primitive-cell ions
   primitive index   ion index
                 1           1
                 2           5
                 3          11
                 4          14

----------------------------------------------------------------------------------------

 
 
 KPOINTS: KPOINTS                                 

Automatic generation of k-mesh.
 Grid dimensions read from file:
 generate k-points for:    7    7    9

 Generating k-lattice:

  Cartesian coordinates                     Fractional coordinates (reciprocal lattice)
     0.014642710 -0.012246207  0.000000000     0.142857143  0.000000000  0.000000000
     0.014642710  0.012246207  0.000000000     0.000000000  0.142857143  0.000000000
     0.000000000  0.000000000  0.018987340     0.000000000  0.000000000  0.111111111

  Length of vectors
     0.019088702  0.019088702  0.018987340

  Shift w.r.t. Gamma in fractional coordinates (k-lattice)
     0.000000000  0.000000000  0.000000000

 TETIRR: Found    664 inequivalent tetrahedra from     2646
 
 Subroutine IBZKPT returns following result:
 ===========================================
 
 Found     80 irreducible k-points:
 
 Following reciprocal coordinates:
            Coordinates               Weight
  0.000000  0.000000  0.000000      1.000000
  0.142857  0.000000  0.000000      4.000000
  0.285714 -0.000000  0.000000      4.000000
  0.428571 -0.000000  0.000000      4.000000
  0.142857  0.142857  0.000000      2.000000
  0.285714  0.142857  0.000000      4.000000
  0.428571  0.142857  0.000000      4.000000
 -0.428571  0.142857  0.000000      4.000000
 -0.285714  0.142857  0.000000      4.000000
 -0.142857  0.142857  0.000000      2.000000
  0.285714  0.285714  0.000000      2.000000
  0.428571  0.285714  0.000000      4.000000
 -0.428571  0.285714  0.000000      4.000000
 -0.285714  0.285714  0.000000      2.000000
  0.428571  0.428571  0.000000      2.000000
 -0.428571  0.428571  0.000000      2.000000
  0.000000  0.000000  0.111111      2.000000
  0.142857  0.000000  0.111111      8.000000
  0.285714 -0.000000  0.111111      8.000000
  0.428571 -0.000000  0.111111      8.000000
  0.142857  0.142857  0.111111      4.000000
  0.285714  0.142857  0.111111      8.000000
  0.428571  0.142857  0.111111      8.000000
 -0.428571  0.142857  0.111111      8.000000
 -0.285714  0.142857  0.111111      8.000000
 -0.142857  0.142857  0.111111      4.000000
  0.285714  0.285714  0.111111      4.000000
  0.428571  0.285714  0.111111      8.000000
 -0.428571  0.285714  0.111111      8.000000
 -0.285714  0.285714  0.111111      4.000000
  0.428571  0.428571  0.111111      4.000000
 -0.428571  0.428571  0.111111      4.000000
  0.000000  0.000000  0.222222      2.000000
  0.142857  0.000000  0.222222      8.000000
  0.285714 -0.000000  0.222222      8.000000
  0.428571 -0.000000  0.222222      8.000000
  0.142857  0.142857  0.222222      4.000000
  0.285714  0.142857  0.222222      8.000000
  0.428571  0.142857  0.222222      8.000000
 -0.428571  0.142857  0.222222      8.000000
 -0.285714  0.142857  0.222222      8.000000
 -0.142857  0.142857  0.222222      4.000000
  0.285714  0.285714  0.222222      4.000000
  0.428571  0.285714  0.222222      8.000000
 -0.428571  0.285714  0.222222      8.000000
 -0.285714  0.285714  0.222222      4.000000
  0.428571  0.428571  0.222222      4.000000
 -0.428571  0.428571  0.222222      4.000000
  0.000000  0.000000  0.333333      2.000000
  0.142857  0.000000  0.333333      8.000000
  0.285714 -0.000000  0.333333      8.000000
  0.428571 -0.000000  0.333333      8.000000
  0.142857  0.142857  0.333333      4.000000
  0.285714  0.142857  0.333333      8.000000
  0.428571  0.142857  0.333333      8.000000
 -0.428571  0.142857  0.333333      8.000000
 -0.285714  0.142857  0.333333      8.000000
 -0.142857  0.142857  0.333333      4.000000
  0.285714  0.285714  0.333333      4.000000
  0.428571  0.285714  0.333333      8.000000
 -0.428571  0.285714  0.333333      8.000000
 -0.285714  0.285714  0.333333      4.000000
  0.428571  0.428571  0.333333      4.000000
 -0.428571  0.428571  0.333333      4.000000
  0.000000  0.000000  0.444444      2.000000
  0.142857  0.000000  0.444444      8.000000
  0.285714 -0.000000  0.444444      8.000000
  0.428571 -0.000000  0.444444      8.000000
  0.142857  0.142857  0.444444      4.000000
  0.285714  0.142857  0.444444      8.000000
  0.428571  0.142857  0.444444      8.000000
 -0.428571  0.142857  0.444444      8.000000
 -0.285714  0.142857  0.444444      8.000000
 -0.142857  0.142857  0.444444      4.000000
  0.285714  0.285714  0.444444      4.000000
  0.428571  0.285714  0.444444      8.000000
 -0.428571  0.285714  0.444444      8.000000
 -0.285714  0.285714  0.444444      4.000000
  0.428571  0.428571  0.444444      4.000000
 -0.428571  0.428571  0.444444      4.000000
 
 Following cartesian coordinates:
            Coordinates               Weight
  0.000000  0.000000  0.000000      1.000000
  0.014643 -0.012246  0.000000      4.000000
  0.029285 -0.024492  0.000000      4.000000
  0.043928 -0.036739  0.000000      4.000000
  0.029285 -0.000000  0.000000      2.000000
  0.043928 -0.012246  0.000000      4.000000
  0.058571 -0.024492  0.000000      4.000000
 -0.029285  0.048985  0.000000      4.000000
 -0.014643  0.036739  0.000000      4.000000
 -0.000000  0.024492  0.000000      2.000000
  0.058571  0.000000  0.000000      2.000000
  0.073214 -0.012246  0.000000      4.000000
 -0.014643  0.061231  0.000000      4.000000
 -0.000000  0.048985  0.000000      2.000000
  0.087856  0.000000  0.000000      2.000000
  0.000000  0.073477  0.000000      2.000000
  0.000000  0.000000  0.018987      2.000000
  0.014643 -0.012246  0.018987      8.000000
  0.029285 -0.024492  0.018987      8.000000
  0.043928 -0.036739  0.018987      8.000000
  0.029285 -0.000000  0.018987      4.000000
  0.043928 -0.012246  0.018987      8.000000
  0.058571 -0.024492  0.018987      8.000000
 -0.029285  0.048985  0.018987      8.000000
 -0.014643  0.036739  0.018987      8.000000
 -0.000000  0.024492  0.018987      4.000000
  0.058571  0.000000  0.018987      4.000000
  0.073214 -0.012246  0.018987      8.000000
 -0.014643  0.061231  0.018987      8.000000
 -0.000000  0.048985  0.018987      4.000000
  0.087856  0.000000  0.018987      4.000000
  0.000000  0.073477  0.018987      4.000000
  0.000000  0.000000  0.037975      2.000000
  0.014643 -0.012246  0.037975      8.000000
  0.029285 -0.024492  0.037975      8.000000
  0.043928 -0.036739  0.037975      8.000000
  0.029285 -0.000000  0.037975      4.000000
  0.043928 -0.012246  0.037975      8.000000
  0.058571 -0.024492  0.037975      8.000000
 -0.029285  0.048985  0.037975      8.000000
 -0.014643  0.036739  0.037975      8.000000
 -0.000000  0.024492  0.037975      4.000000
  0.058571  0.000000  0.037975      4.000000
  0.073214 -0.012246  0.037975      8.000000
 -0.014643  0.061231  0.037975      8.000000
 -0.000000  0.048985  0.037975      4.000000
  0.087856  0.000000  0.037975      4.000000
  0.000000  0.073477  0.037975      4.000000
  0.000000  0.000000  0.056962      2.000000
  0.014643 -0.012246  0.056962      8.000000
  0.029285 -0.024492  0.056962      8.000000
  0.043928 -0.036739  0.056962      8.000000
  0.029285 -0.000000  0.056962      4.000000
  0.043928 -0.012246  0.056962      8.000000
  0.058571 -0.024492  0.056962      8.000000
 -0.029285  0.048985  0.056962      8.000000
 -0.014643  0.036739  0.056962      8.000000
 -0.000000  0.024492  0.056962      4.000000
  0.058571  0.000000  0.056962      4.000000
  0.073214 -0.012246  0.056962      8.000000
 -0.014643  0.061231  0.056962      8.000000
 -0.000000  0.048985  0.056962      4.000000
  0.087856  0.000000  0.056962      4.000000
  0.000000  0.073477  0.056962      4.000000
  0.000000  0.000000  0.075949      2.000000
  0.014643 -0.012246  0.075949      8.000000
  0.029285 -0.024492  0.075949      8.000000
  0.043928 -0.036739  0.075949      8.000000
  0.029285 -0.000000  0.075949      4.000000
  0.043928 -0.012246  0.075949      8.000000
  0.058571 -0.024492  0.075949      8.000000
 -0.029285  0.048985  0.075949      8.000000
 -0.014643  0.036739  0.075949      8.000000
 -0.000000  0.024492  0.075949      4.000000
  0.058571  0.000000  0.075949      4.000000
  0.073214 -0.012246  0.075949      8.000000
 -0.014643  0.061231  0.075949      8.000000
 -0.000000  0.048985  0.075949      4.000000
  0.087856  0.000000  0.075949      4.000000
  0.000000  0.073477  0.075949      4.000000
 


--------------------------------------------------------------------------------------------------------




 Dimension of arrays:
   k-points           NKPTS =     80   k-points in BZ     NKDIM =     80   number of bands    NBANDS=    100
   number of dos      NEDOS =    301   number of ions     NIONS =     16
   non local maximal  LDIM  =      6   non local SUM 2l+1 LMDIM =     18
   total plane-waves  NPLWV = 172800
   max r-space proj   IRMAX =   6648   max aug-charges    IRDMAX=  22827
   dimension x,y,z NGX =    60 NGY =   60 NGZ =   48
   dimension x,y,z NGXF=   120 NGYF=  120 NGZF=   96
   support grid    NGXF=   120 NGYF=  120 NGZF=   96
   ions per type =               8   8
   NGX,Y,Z   is equivalent  to a cutoff of  13.12, 13.12, 13.64 a.u.
   NGXF,Y,Z  is equivalent  to a cutoff of  26.24, 26.24, 27.27 a.u.

 SYSTEM =  unknown system                          
 POSCAR =  Fe8 Se8                                 

 Startparameter for this run:
   NWRITE =      2    write-flag & timer
   PREC   = accura    normal or accurate (medium, high low for compatibility)
   ISTART =      0    job   : 0-new  1-cont  2-samecut
   ICHARG =      2    charge: 1-file 2-atom 10-const
   ISPIN  =      2    spin polarized calculation?
   LNONCOLLINEAR =      F non collinear calculations
   LSORBIT =      F    spin-orbit coupling
   INIWAV =      1    electr: 0-lowe 1-rand  2-diag
   LASPH  =      T    aspherical Exc in radial PAW
 Electronic Relaxation 1
   ENCUT  =  550.0 eV  40.42 Ry    6.36 a.u.  14.54 14.54 11.19*2*pi/ulx,y,z
   ENINI  =  550.0     initial cutoff
   ENAUG  =  578.3 eV  augmentation charge cutoff
   NELM   =    100;   NELMIN=  2; NELMDL=  0     # of ELM steps 
   EDIFF  = 0.2E-03   stopping-criterion for ELM
   LREAL  =      T    real-space projection
   NLSPLINE    = F    spline interpolate recip. space projectors
   LCOMPAT=      F    compatible to vasp.4.4
   GGA_COMPAT  = T    GGA compatible to vasp.4.4-vasp.4.6
   LMAXPAW     = -100 max onsite density
   LMAXMIX     =    4 max onsite mixed and CHGCAR
   VOSKOWN=      0    Vosko Wilk Nusair interpolation
   ROPT   =   -0.00025  -0.00025
 Ionic relaxation
   EDIFFG = 0.2E-02   stopping-criterion for IOM
   NSW    =      0    number of steps for IOM
   NBLOCK =      1;   KBLOCK =      1    inner block; outer block 
   IBRION =     -1    ionic relax: 0-MD 1-quasi-New 2-CG
   NFREE  =      0    steps in history (QN), initial steepest desc. (CG)
   ISIF   =      4    stress and relaxation
   IWAVPR =     10    prediction:  0-non 1-charg 2-wave 3-comb
   ISYM   =      2    0-nonsym 1-usesym 2-fastsym
   LCORR  =      T    Harris-Foulkes like correction to forces

   POTIM  = 0.5000    time-step for ionic-motion
   TEIN   =    0.0    initial temperature
   TEBEG  =    0.0;   TEEND  =   0.0 temperature during run
   SMASS  =  -3.00    Nose mass-parameter (am)
   estimated Nose-frequenzy (Omega)   =  0.10E-29 period in steps = 0.13E+47 mass=  -0.132E-26a.u.
   SCALEE = 1.0000    scale energy and forces
   NPACO  =    256;   APACO  = 10.0  distance and # of slots for P.C.
   PSTRESS=    0.0 pullay stress

  Mass of Ions in am
   POMASS =  55.85 78.96
  Ionic Valenz
   ZVAL   =  14.00  6.00
  Atomic Wigner-Seitz radii
   RWIGS  =  -1.00 -1.00
  virtual crystal weights 
   VCA    =   1.00  1.00
   NELECT =     160.0000    total number of electrons
   NUPDOWN=      -1.0000    fix difference up-down

 DOS related values:
   EMIN   =  10.00;   EMAX   =-10.00  energy-range for DOS
   EFERMI =   0.00;   METHOD = LEGACY      
   ISMEAR =    -5;   SIGMA  =   0.05  broadening in eV -4-tet -1-fermi 0-gaus

 Electronic relaxation 2 (details)
   IALGO  =     68    algorithm
   LDIAG  =      T    sub-space diagonalisation (order eigenvalues)
   LSUBROT=      F    optimize rotation matrix (better conditioning)
   TURBO    =      0    0=normal 1=particle mesh
   IRESTART =      0    0=no restart 2=restart with 2 vectors
   NREBOOT  =      0    no. of reboots
   NMIN     =      0    reboot dimension
   EREF     =   0.00    reference energy to select bands
   IMIX   =      4    mixing-type and parameters
     AMIX     =   0.40;   BMIX     =  1.00
     AMIX_MAG =   1.60;   BMIX_MAG =  1.00
     AMIN     =   0.10
     WC   =   100.;   INIMIX=   1;  MIXPRE=   1;  MAXMIX= -45

 Intra band minimization:
   WEIMIN = 0.0000     energy-eigenvalue tresh-hold
   EBREAK =  0.50E-06  absolut break condition
   DEPER  =   0.30     relativ break condition  

   TIME   =   0.40     timestep for ELM

  volume/ion in A,a.u.               =      20.81       140.45
  Fermi-wavevector in a.u.,A,eV,Ry     =   1.282232  2.423068 22.369610  1.644120
  Thomas-Fermi vector in A             =   2.414556
 
 Write flags
   LWAVE        =      F    write WAVECAR
   LDOWNSAMPLE  =      F    k-point downsampling of WAVECAR
   LCHARG       =      T    write CHGCAR
   LVTOT        =      F    write LOCPOT, total local potential
   LVHAR        =      F    write LOCPOT, Hartree potential only
   LELF         =      F    write electronic localiz. function (ELF)
   LORBIT       =     11    0 simple, 1 ext, 2 COOP (PROOUT), +10 PAW based schemes


 Dipole corrections
   LMONO  =      F    monopole corrections only (constant potential shift)
   LDIPOL =      F    correct potential (dipole corrections)
   IDIPOL =      0    1-x, 2-y, 3-z, 4-all directions 
   EPSILON=  1.0000000 bulk dielectric constant

 Exchange correlation treatment:
   GGA     =    --    GGA type
   LEXCH   =     8    internal setting for exchange type
   LIBXC   =     F    Libxc                    
   VOSKOWN =     0    Vosko Wilk Nusair interpolation
   LHFCALC =     F    Hartree Fock is set to
   LHFONE  =     F    Hartree Fock one center treatment
   AEXX    =    0.0000 exact exchange contribution

 Linear response parameters
   LEPSILON=     F    determine dielectric tensor
   LRPA    =     F    only Hartree local field effects (RPA)
   LNABLA  =     F    use nabla operator in PAW spheres
   LVEL    =     F    velocity operator in full k-point grid
   CSHIFT  =0.1000    complex shift for real part using Kramers Kronig
   OMEGAMAX=  -1.0    maximum frequency
   DEG_THRESHOLD= 0.2000000E-02 threshold for treating states as degnerate
   RTIME   =   -0.100 relaxation time in fs
  (WPLASMAI=    0.000 imaginary part of plasma frequency in eV, 0.658/RTIME)
   DFIELD  = 0.0000000 0.0000000 0.0000000 field for delta impulse in time
 
  Optional k-point grid parameters
   LKPOINTS_OPT  =     F    use optional k-point grid
   KPOINTS_OPT_MODE=     1    mode for optional k-point grid
 
 Orbital magnetization related:
   ORBITALMAG=     F  switch on orbital magnetization
   LCHIMAG   =     F  perturbation theory with respect to B field
   DQ        =  0.001000  dq finite difference perturbation B field
   LLRAUG    =     F  two centre corrections for induced B field
   LBONE     =     F  B-component reconstruction in AE one-centre
   LVGVCALC  =     T  calculate vGv susceptibility
   LVGVAPPL  =     F  apply vGv susceptibility instead of pGv for G=0

 Random number generation:
   RANDOM_GENERATOR = DEFAULT
   PCG_SEED         = not used


--------------------------------------------------------------------------------------------------------


 Static calculation
 charge density and potential will be updated during run
 spin polarized calculation
 RMM-DIIS sequential band-by-band and
  variant of blocked Davidson during initial phase
 perform sub-space diagonalisation
    before iterative eigenvector-optimisation
 modified Broyden-mixing scheme, WC =      100.0
 initial mixing is a Kerker type mixing with AMIX =  0.4000 and BMIX =      1.0000
 Hartree-type preconditioning will be used
 using additional bands           20
 real space projection scheme for non local part
 use partial core corrections
 calculate Harris-corrections to forces 
   (improved forces if not selfconsistent)
 use gradient corrections 
 use of overlap-Matrix (Vanderbilt PP)
 Fermi weights with tetrahedron method with Bloechl corrections


--------------------------------------------------------------------------------------------------------


  energy-cutoff  :      550.00
  volume of cell :      333.00
      direct lattice vectors                 reciprocal lattice vectors
     4.878097749 -5.832709928  0.000000000     0.102498971 -0.085723447  0.000000000
     4.878097749  5.832709928  0.000000000     0.102498971  0.085723447  0.000000000
     0.000000000  0.000000000  5.851852361     0.000000000  0.000000000  0.170886061

  length of vectors
     7.603705857  7.603705857  5.851852361     0.133620913  0.133620913  0.170886061


 
 k-points in units of 2pi/SCALE and weight: KPOINTS                                 
   0.00000000  0.00000000  0.00000000       0.002
   0.01464271 -0.01224621  0.00000000       0.009
   0.02928542 -0.02449241  0.00000000       0.009
   0.04392813 -0.03673862  0.00000000       0.009
   0.02928542  0.00000000  0.00000000       0.005
   0.04392813 -0.01224621  0.00000000       0.009
   0.05857084 -0.02449241  0.00000000       0.009
  -0.02928542  0.04898483  0.00000000       0.009
  -0.01464271  0.03673862  0.00000000       0.009
  -0.00000000  0.02449241  0.00000000       0.005
   0.05857084 -0.00000000  0.00000000       0.005
   0.07321355 -0.01224621  0.00000000       0.009
  -0.01464271  0.06123103  0.00000000       0.009
   0.00000000  0.04898483  0.00000000       0.005
   0.08785626 -0.00000000  0.00000000       0.005
  -0.00000000  0.07347724  0.00000000       0.005
   0.00000000  0.00000000  0.01898734       0.005
   0.01464271 -0.01224621  0.01898734       0.018
   0.02928542 -0.02449241  0.01898734       0.018
   0.04392813 -0.03673862  0.01898734       0.018
   0.02928542  0.00000000  0.01898734       0.009
   0.04392813 -0.01224621  0.01898734       0.018
   0.05857084 -0.02449241  0.01898734       0.018
  -0.02928542  0.04898483  0.01898734       0.018
  -0.01464271  0.03673862  0.01898734       0.018
  -0.00000000  0.02449241  0.01898734       0.009
   0.05857084 -0.00000000  0.01898734       0.009
   0.07321355 -0.01224621  0.01898734       0.018
  -0.01464271  0.06123103  0.01898734       0.018
   0.00000000  0.04898483  0.01898734       0.009
   0.08785626 -0.00000000  0.01898734       0.009
  -0.00000000  0.07347724  0.01898734       0.009
   0.00000000  0.00000000  0.03797468       0.005
   0.01464271 -0.01224621  0.03797468       0.018
   0.02928542 -0.02449241  0.03797468       0.018
   0.04392813 -0.03673862  0.03797468       0.018
   0.02928542  0.00000000  0.03797468       0.009
   0.04392813 -0.01224621  0.03797468       0.018
   0.05857084 -0.02449241  0.03797468       0.018
  -0.02928542  0.04898483  0.03797468       0.018
  -0.01464271  0.03673862  0.03797468       0.018
  -0.00000000  0.02449241  0.03797468       0.009
   0.05857084 -0.00000000  0.03797468       0.009
   0.07321355 -0.01224621  0.03797468       0.018
  -0.01464271  0.06123103  0.03797468       0.018
   0.00000000  0.04898483  0.03797468       0.009
   0.08785626 -0.00000000  0.03797468       0.009
  -0.00000000  0.07347724  0.03797468       0.009
   0.00000000  0.00000000  0.05696202       0.005
   0.01464271 -0.01224621  0.05696202       0.018
   0.02928542 -0.02449241  0.05696202       0.018
   0.04392813 -0.03673862  0.05696202       0.018
   0.02928542  0.00000000  0.05696202       0.009
   0.04392813 -0.01224621  0.05696202       0.018
   0.05857084 -0.02449241  0.05696202       0.018
  -0.02928542  0.04898483  0.05696202       0.018
  -0.01464271  0.03673862  0.05696202       0.018
  -0.00000000  0.02449241  0.05696202       0.009
   0.05857084 -0.00000000  0.05696202       0.009
   0.07321355 -0.01224621  0.05696202       0.018
  -0.01464271  0.06123103  0.05696202       0.018
   0.00000000  0.04898483  0.05696202       0.009
   0.08785626 -0.00000000  0.05696202       0.009
  -0.00000000  0.07347724  0.05696202       0.009
   0.00000000  0.00000000  0.07594936       0.005
   0.01464271 -0.01224621  0.07594936       0.018
   0.02928542 -0.02449241  0.07594936       0.018
   0.04392813 -0.03673862  0.07594936       0.018
   0.02928542  0.00000000  0.07594936       0.009
   0.04392813 -0.01224621  0.07594936       0.018
   0.05857084 -0.02449241  0.07594936       0.018
  -0.02928542  0.04898483  0.07594936       0.018
  -0.01464271  0.03673862  0.07594936       0.018
  -0.00000000  0.02449241  0.07594936       0.009
   0.05857084 -0.00000000  0.07594936       0.009
   0.07321355 -0.01224621  0.07594936       0.018
  -0.01464271  0.06123103  0.07594936       0.018
   0.00000000  0.04898483  0.07594936       0.009
   0.08785626 -0.00000000  0.07594936       0.009
  -0.00000000  0.07347724  0.07594936       0.009
 
 k-points in reciprocal lattice and weights: KPOINTS                                 
   0.00000000  0.00000000  0.00000000       0.002
   0.14285714  0.00000000  0.00000000       0.009
   0.28571429 -0.00000000  0.00000000       0.009
   0.42857143 -0.00000000  0.00000000       0.009
   0.14285714  0.14285714  0.00000000       0.005
   0.28571429  0.14285714  0.00000000       0.009
   0.42857143  0.14285714  0.00000000       0.009
  -0.42857143  0.14285714  0.00000000       0.009
  -0.28571429  0.14285714  0.00000000       0.009
  -0.14285714  0.14285714  0.00000000       0.005
   0.28571429  0.28571429  0.00000000       0.005
   0.42857143  0.28571429  0.00000000       0.009
  -0.42857143  0.28571429  0.00000000       0.009
  -0.28571429  0.28571429  0.00000000       0.005
   0.42857143  0.42857143  0.00000000       0.005
  -0.42857143  0.42857143  0.00000000       0.005
   0.00000000  0.00000000  0.11111111       0.005
   0.14285714  0.00000000  0.11111111       0.018
   0.28571429 -0.00000000  0.11111111       0.018
   0.42857143 -0.00000000  0.11111111       0.018
   0.14285714  0.14285714  0.11111111       0.009
   0.28571429  0.14285714  0.11111111       0.018
   0.42857143  0.14285714  0.11111111       0.018
  -0.42857143  0.14285714  0.11111111       0.018
  -0.28571429  0.14285714  0.11111111       0.018
  -0.14285714  0.14285714  0.11111111       0.009
   0.28571429  0.28571429  0.11111111       0.009
   0.42857143  0.28571429  0.11111111       0.018
  -0.42857143  0.28571429  0.11111111       0.018
  -0.28571429  0.28571429  0.11111111       0.009
   0.42857143  0.42857143  0.11111111       0.009
  -0.42857143  0.42857143  0.11111111       0.009
   0.00000000  0.00000000  0.22222222       0.005
   0.14285714  0.00000000  0.22222222       0.018
   0.28571429 -0.00000000  0.22222222       0.018
   0.42857143 -0.00000000  0.22222222       0.018
   0.14285714  0.14285714  0.22222222       0.009
   0.28571429  0.14285714  0.22222222       0.018
   0.42857143  0.14285714  0.22222222       0.018
  -0.42857143  0.14285714  0.22222222       0.018
  -0.28571429  0.14285714  0.22222222       0.018
  -0.14285714  0.14285714  0.22222222       0.009
   0.28571429  0.28571429  0.22222222       0.009
   0.42857143  0.28571429  0.22222222       0.018
  -0.42857143  0.28571429  0.22222222       0.018
  -0.28571429  0.28571429  0.22222222       0.009
   0.42857143  0.42857143  0.22222222       0.009
  -0.42857143  0.42857143  0.22222222       0.009
   0.00000000  0.00000000  0.33333333       0.005
   0.14285714  0.00000000  0.33333333       0.018
   0.28571429 -0.00000000  0.33333333       0.018
   0.42857143 -0.00000000  0.33333333       0.018
   0.14285714  0.14285714  0.33333333       0.009
   0.28571429  0.14285714  0.33333333       0.018
   0.42857143  0.14285714  0.33333333       0.018
  -0.42857143  0.14285714  0.33333333       0.018
  -0.28571429  0.14285714  0.33333333       0.018
  -0.14285714  0.14285714  0.33333333       0.009
   0.28571429  0.28571429  0.33333333       0.009
   0.42857143  0.28571429  0.33333333       0.018
  -0.42857143  0.28571429  0.33333333       0.018
  -0.28571429  0.28571429  0.33333333       0.009
   0.42857143  0.42857143  0.33333333       0.009
  -0.42857143  0.42857143  0.33333333       0.009
   0.00000000  0.00000000  0.44444444       0.005
   0.14285714  0.00000000  0.44444444       0.018
   0.28571429 -0.00000000  0.44444444       0.018
   0.42857143 -0.00000000  0.44444444       0.018
   0.14285714  0.14285714  0.44444444       0.009
   0.28571429  0.14285714  0.44444444       0.018
   0.42857143  0.14285714  0.44444444       0.018
  -0.42857143  0.14285714  0.44444444       0.018
  -0.28571429  0.14285714  0.44444444       0.018
  -0.14285714  0.14285714  0.44444444       0.009
   0.28571429  0.28571429  0.44444444       0.009
   0.42857143  0.28571429  0.44444444       0.018
  -0.42857143  0.28571429  0.44444444       0.018
  -0.28571429  0.28571429  0.44444444       0.009
   0.42857143  0.42857143  0.44444444       0.009
  -0.42857143  0.42857143  0.44444444       0.009
 
 position of ions in fractional coordinates (direct lattice) 
   0.00000000  0.00000000  0.00000000
   0.00000000  0.50000000  0.00000000
   0.50000000  0.00000000  0.00000000
   0.50000000  0.50000000  0.00000000
   0.25000000  0.25000000  0.00000000
   0.25000000  0.75000000  0.00000000
   0.75000000  0.25000000  0.00000000
   0.75000000  0.75000000  0.00000000
   0.37500000  0.12500000  0.69714309
   0.37500000  0.62500000  0.69714309
   0.87500000  0.12500000  0.69714309
   0.87500000  0.62500000  0.69714309
   0.12500000  0.37500000  0.30285691
   0.12500000  0.87500000  0.30285691
   0.62500000  0.37500000  0.30285691
   0.62500000  0.87500000  0.30285691
 
 position of ions in cartesian coordinates  (Angst):
   0.00000000  0.00000000  0.00000000
   2.43904887  2.91635496  0.00000000
   2.43904887 -2.91635496  0.00000000
   4.87809775  0.00000000  0.00000000
   2.43904887  0.00000000  0.00000000
   4.87809775  2.91635496  0.00000000
   4.87809775 -2.91635496  0.00000000
   7.31714662  0.00000000  0.00000000
   2.43904887 -1.45817748  4.07957846
   4.87809775  1.45817748  4.07957846
   4.87809775 -4.37453245  4.07957846
   7.31714662 -1.45817748  4.07957846
   2.43904887  1.45817748  1.77227390
   4.87809775  4.37453245  1.77227390
   4.87809775 -1.45817748  1.77227390
   7.31714662  1.45817748  1.77227390
 


--------------------------------------------------------------------------------------------------------


 k-point   1 :   0.0000 0.0000 0.0000  plane waves:    9779
 k-point   2 :   0.1429 0.0000 0.0000  plane waves:    9773
 k-point   3 :   0.2857-0.0000 0.0000  plane waves:    9762
 k-point   4 :   0.4286-0.0000 0.0000  plane waves:    9747
 k-point   5 :   0.1429 0.1429 0.0000  plane waves:    9777
 k-point   6 :   0.2857 0.1429 0.0000  plane waves:    9748
 k-point   7 :   0.4286 0.1429 0.0000  plane waves:    9759
 k-point   8 :  -0.4286 0.1429 0.0000  plane waves:    9758
 k-point   9 :  -0.2857 0.1429 0.0000  plane waves:    9763
 k-point  10 :  -0.1429 0.1429 0.0000  plane waves:    9769
 k-point  11 :   0.2857 0.2857 0.0000  plane waves:    9727
 k-point  12 :   0.4286 0.2857 0.0000  plane waves:    9744
 k-point  13 :  -0.4286 0.2857 0.0000  plane waves:    9741
 k-point  14 :  -0.2857 0.2857 0.0000  plane waves:    9752
 k-point  15 :   0.4286 0.4286 0.0000  plane waves:    9724
 k-point  16 :  -0.4286 0.4286 0.0000  plane waves:    9722
 k-point  17 :   0.0000 0.0000 0.1111  plane waves:    9775
 k-point  18 :   0.1429 0.0000 0.1111  plane waves:    9768
 k-point  19 :   0.2857-0.0000 0.1111  plane waves:    9755
 k-point  20 :   0.4286-0.0000 0.1111  plane waves:    9738
 k-point  21 :   0.1429 0.1429 0.1111  plane waves:    9772
 k-point  22 :   0.2857 0.1429 0.1111  plane waves:    9755
 k-point  23 :   0.4286 0.1429 0.1111  plane waves:    9753
 k-point  24 :  -0.4286 0.1429 0.1111  plane waves:    9746
 k-point  25 :  -0.2857 0.1429 0.1111  plane waves:    9773
 k-point  26 :  -0.1429 0.1429 0.1111  plane waves:    9744
 k-point  27 :   0.2857 0.2857 0.1111  plane waves:    9733
 k-point  28 :   0.4286 0.2857 0.1111  plane waves:    9737
 k-point  29 :  -0.4286 0.2857 0.1111  plane waves:    9744
 k-point  30 :  -0.2857 0.2857 0.1111  plane waves:    9748
 k-point  31 :   0.4286 0.4286 0.1111  plane waves:    9726
 k-point  32 :  -0.4286 0.4286 0.1111  plane waves:    9746
 k-point  33 :   0.0000 0.0000 0.2222  plane waves:    9762
 k-point  34 :   0.1429 0.0000 0.2222  plane waves:    9753
 k-point  35 :   0.2857-0.0000 0.2222  plane waves:    9752
 k-point  36 :   0.4286-0.0000 0.2222  plane waves:    9749
 k-point  37 :   0.1429 0.1429 0.2222  plane waves:    9757
 k-point  38 :   0.2857 0.1429 0.2222  plane waves:    9751
 k-point  39 :   0.4286 0.1429 0.2222  plane waves:    9739
 k-point  40 :  -0.4286 0.1429 0.2222  plane waves:    9750
 k-point  41 :  -0.2857 0.1429 0.2222  plane waves:    9756
 k-point  42 :  -0.1429 0.1429 0.2222  plane waves:    9750
 k-point  43 :   0.2857 0.2857 0.2222  plane waves:    9739
 k-point  44 :   0.4286 0.2857 0.2222  plane waves:    9738
 k-point  45 :  -0.4286 0.2857 0.2222  plane waves:    9759
 k-point  46 :  -0.2857 0.2857 0.2222  plane waves:    9765
 k-point  47 :   0.4286 0.4286 0.2222  plane waves:    9731
 k-point  48 :  -0.4286 0.4286 0.2222  plane waves:    9743
 k-point  49 :   0.0000 0.0000 0.3333  plane waves:    9764
 k-point  50 :   0.1429 0.0000 0.3333  plane waves:    9772
 k-point  51 :   0.2857-0.0000 0.3333  plane waves:    9759
 k-point  52 :   0.4286-0.0000 0.3333  plane waves:    9748
 k-point  53 :   0.1429 0.1429 0.3333  plane waves:    9772
 k-point  54 :   0.2857 0.1429 0.3333  plane waves:    9759
 k-point  55 :   0.4286 0.1429 0.3333  plane waves:    9751
 k-point  56 :  -0.4286 0.1429 0.3333  plane waves:    9745
 k-point  57 :  -0.2857 0.1429 0.3333  plane waves:    9762
 k-point  58 :  -0.1429 0.1429 0.3333  plane waves:    9766
 k-point  59 :   0.2857 0.2857 0.3333  plane waves:    9754
 k-point  60 :   0.4286 0.2857 0.3333  plane waves:    9746
 k-point  61 :  -0.4286 0.2857 0.3333  plane waves:    9740
 k-point  62 :  -0.2857 0.2857 0.3333  plane waves:    9761
 k-point  63 :   0.4286 0.4286 0.3333  plane waves:    9766
 k-point  64 :  -0.4286 0.4286 0.3333  plane waves:    9744
 k-point  65 :   0.0000 0.0000 0.4444  plane waves:    9766
 k-point  66 :   0.1429 0.0000 0.4444  plane waves:    9769
 k-point  67 :   0.2857-0.0000 0.4444  plane waves:    9760
 k-point  68 :   0.4286-0.0000 0.4444  plane waves:    9756
 k-point  69 :   0.1429 0.1429 0.4444  plane waves:    9742
 k-point  70 :   0.2857 0.1429 0.4444  plane waves:    9764
 k-point  71 :   0.4286 0.1429 0.4444  plane waves:    9756
 k-point  72 :  -0.4286 0.1429 0.4444  plane waves:    9745
 k-point  73 :  -0.2857 0.1429 0.4444  plane waves:    9761
 k-point  74 :  -0.1429 0.1429 0.4444  plane waves:    9769
 k-point  75 :   0.2857 0.2857 0.4444  plane waves:    9783
 k-point  76 :   0.4286 0.2857 0.4444  plane waves:    9758
 k-point  77 :  -0.4286 0.2857 0.4444  plane waves:    9748
 k-point  78 :  -0.2857 0.2857 0.4444  plane waves:    9750
 k-point  79 :   0.4286 0.4286 0.4444  plane waves:    9761
 k-point  80 :  -0.4286 0.4286 0.4444  plane waves:    9766

 maximum and minimum number of plane-waves per node :      9783     9722

 maximum number of plane-waves:      9783
 maximum index in each direction: 
   IXMAX=   14   IYMAX=   14   IZMAX=   11
   IXMIN=  -14   IYMIN=  -14   IZMIN=  -11


 serial   3D FFT for wavefunctions
 parallel 3D FFT for charge:
    minimum data exchange during FFTs selected (reduces bandwidth)


 total amount of memory used by VASP MPI-rank0   195049. kBytes
=======================================================================

   base      :      30000. kBytes
   nonlr-proj:      13140. kBytes
   fftplans  :       3084. kBytes
   grid      :      19560. kBytes
   one-center:        497. kBytes
   wavefun   :     128768. kBytes
 
     INWAV:  cpu time      0.0000: real time      0.0002
 Broyden mixing: mesh for mixing (old mesh)
   NGX = 29   NGY = 29   NGZ = 23
  (NGX  =120   NGY  =120   NGZ  = 96)
  gives a total of  19343 points

 initial charge density was supplied:
 charge density of overlapping atoms calculated
 number of electron     160.0000000 magnetization      -0.0000000
 keeping initial charge density in first step


--------------------------------------------------------------------------------------------------------


 Maximum index for non-local projection operator         6453
 Maximum index for augmentation-charges         1108 (set IRDMAX)


--------------------------------------------------------------------------------------------------------


 First call to EWALD:  gamma=   0.256
 Maximum number of real-space cells 3x 3x 3
 Maximum number of reciprocal cells 3x 3x 2

    FEWALD:  cpu time      0.0015: real time      0.0016


--------------------------------------- Ionic step        1  -------------------------------------------




--------------------------------------- Iteration      1(   1)  ---------------------------------------


    POTLOK:  cpu time      0.0678: real time      0.0834
    SETDIJ:  cpu time      0.2737: real time      0.2749
     EDDAV:  cpu time     30.6719: real time     30.8441
 BZINTS: Fermi energy:   19.727268;  160.000000 electrons
         Band energy:-0.240542E+03;  BLOECHL correction:   -0.065585
       DOS:  cpu time      0.1663: real time      0.1669
    --------------------------------------------
      LOOP:  cpu time     31.1797: real time     31.3693

 eigenvalue-minimisations  : 35920
 total energy-change (2. order) : 0.1988789E+04  (-0.8896731E+04)
 number of electron     160.0000000 magnetization      -0.0000000
 augmentation part      160.0000000 magnetization      -0.0000000

 Free energy of the ion-electron system (eV)
  ---------------------------------------------------
  alpha Z        PSCENC =       762.61737321
  Ewald energy   TEWEN  =    -10733.91537522
  -Hartree energ DENC   =     -9478.53693233
  -exchange      EXHF   =         0.00000000
  -V(xc)+E(xc)   XCENC  =       564.08670404
  PAW double counting   =     15527.91084052   -16123.67266107
  entropy T*S    EENTRO =         0.00000000
  eigenvalues    EBANDS =      -240.54195831
  atomic energy  EATOM  =     21710.84102437
  Solvation  Ediel_sol  =         0.00000000
  ---------------------------------------------------
  free energy    TOTEN  =      1988.78901521 eV

  energy without entropy =     1988.78901521  energy(sigma->0) =     1988.78901521


--------------------------------------------------------------------------------------------------------




--------------------------------------- Iteration      1(   2)  ---------------------------------------


     EDDAV:  cpu time     27.1846: real time     27.3688
 BZINTS: Fermi energy:    6.383668;  160.000000 electrons
         Band energy:-0.210749E+04;  BLOECHL correction:   -0.030044
       DOS:  cpu time      0.1696: real time      0.1703
    --------------------------------------------
      LOOP:  cpu time     27.3542: real time     27.5390

 eigenvalue-minimisations  : 32000
 total energy-change (2. order) :-0.1866944E+04  (-0.1813102E+04)
 number of electron     160.0000000 magnetization      -0.0000000
 augmentation part      160.0000000 magnetization      -0.0000000

 Free energy of the ion-electron system (eV)
  ---------------------------------------------------
  alpha Z        PSCENC =       762.61737321
  Ewald energy   TEWEN  =    -10733.91537522
  -Hartree energ DENC   =     -9478.53693233
  -exchange      EXHF   =         0.00000000
  -V(xc)+E(xc)   XCENC  =       564.08670404
  PAW double counting   =     15527.91084052   -16123.67266107
  entropy T*S    EENTRO =         0.00000000
  eigenvalues    EBANDS =     -2107.48630429
  atomic energy  EATOM  =     21710.84102437
  Solvation  Ediel_sol  =         0.00000000
  ---------------------------------------------------
  free energy    TOTEN  =       121.84466922 eV

  energy without entropy =      121.84466922  energy(sigma->0) =      121.84466922


--------------------------------------------------------------------------------------------------------




--------------------------------------- Iteration      1(   3)  ---------------------------------------


     EDDAV:  cpu time     38.0264: real time     38.2459
 BZINTS: Fermi energy:    4.606397;  160.000000 electrons
         Band energy:-0.231481E+04;  BLOECHL correction:   -0.018551
       DOS:  cpu time      0.1735: real time      0.1742
    --------------------------------------------
      LOOP:  cpu time     38.1999: real time     38.4201

 eigenvalue-minimisations  : 46120
 total energy-change (2. order) :-0.2073264E+03  (-0.1842884E+03)
 number of electron     160.0000000 magnetization      -0.0000000
 augmentation part      160.0000000 magnetization      -0.0000000

 Free energy of the ion-electron system (eV)
  ---------------------------------------------------
  alpha Z        PSCENC =       762.61737321
  Ewald energy   TEWEN  =    -10733.91537522
  -Hartree energ DENC   =     -9478.53693233
  -exchange      EXHF   =         0.00000000
  -V(xc)+E(xc)   XCENC  =       564.08670404
  PAW double counting   =     15527.91084052   -16123.67266107
  entropy T*S    EENTRO =         0.00000000
  eigenvalues    EBANDS =     -2314.81273575
  atomic energy  EATOM  =     21710.84102437
  Solvation  Ediel_sol  =         0.00000000
  ---------------------------------------------------
  free energy    TOTEN  =       -85.48176223 eV

  energy without entropy =      -85.48176223  energy(sigma->0) =      -85.48176223


--------------------------------------------------------------------------------------------------------




--------------------------------------- Iteration      1(   4)  ---------------------------------------


     EDDAV:  cpu time     37.5987: real time     37.8458
 BZINTS: Fermi energy:    4.485145;  160.000000 electrons
         Band energy:-0.232967E+04;  BLOECHL correction:   -0.021850
       DOS:  cpu time      0.1604: real time      0.1610
    --------------------------------------------
      LOOP:  cpu time     37.7591: real time     38.0068

 eigenvalue-minimisations  : 47160
 total energy-change (2. order) :-0.1485830E+02  (-0.1450910E+02)
 number of electron     160.0000000 magnetization      -0.0000000
 augmentation part      160.0000000 magnetization      -0.0000000

 Free energy of the ion-electron system (eV)
  ---------------------------------------------------
  alpha Z        PSCENC =       762.61737321
  Ewald energy   TEWEN  =    -10733.91537522
  -Hartree energ DENC   =     -9478.53693233
  -exchange      EXHF   =         0.00000000
  -V(xc)+E(xc)   XCENC  =       564.08670404
  PAW double counting   =     15527.91084052   -16123.67266107
  entropy T*S    EENTRO =         0.00000000
  eigenvalues    EBANDS =     -2329.67104034
  atomic energy  EATOM  =     21710.84102437
  Solvation  Ediel_sol  =         0.00000000
  ---------------------------------------------------
  free energy    TOTEN  =      -100.34006682 eV

  energy without entropy =     -100.34006682  energy(sigma->0) =     -100.34006682


--------------------------------------------------------------------------------------------------------




--------------------------------------- Iteration      1(   5)  ---------------------------------------


     EDDAV:  cpu time     36.9607: real time     37.1693
 BZINTS: Fermi energy:    4.481369;  160.000000 electrons
         Band energy:-0.233002E+04;  BLOECHL correction:   -0.021799
       DOS:  cpu time      0.1584: real time      0.1591
    CHARGE:  cpu time      1.0187: real time      1.0253
    MIXING:  cpu time      0.0018: real time      0.0018
    --------------------------------------------
      LOOP:  cpu time     38.1395: real time     38.3554

 eigenvalue-minimisations  : 44560
 total energy-change (2. order) :-0.3534643E+00  (-0.3526156E+00)
 number of electron     160.0000073 magnetization      -0.0000000
 augmentation part       52.9867743 magnetization      -0.0000000

 Broyden mixing:
  rms(total) = 0.28148E+01    rms(broyden)= 0.28145E+01
  rms(prec ) = 0.44078E+01
  weight for this iteration     100.00

 Free energy of the ion-electron system (eV)
  ---------------------------------------------------
  alpha Z        PSCENC =       762.61737321
  Ewald energy   TEWEN  =    -10733.91537522
  -Hartree energ DENC   =     -9478.53693233
  -exchange      EXHF   =         0.00000000
  -V(xc)+E(xc)   XCENC  =       564.08670404
  PAW double counting   =     15527.91084052   -16123.67266107
  entropy T*S    EENTRO =         0.00000000
  eigenvalues    EBANDS =     -2330.02450461
  atomic energy  EATOM  =     21710.84102437
  Solvation  Ediel_sol  =         0.00000000
  ---------------------------------------------------
  free energy    TOTEN  =      -100.69353109 eV

  energy without entropy =     -100.69353109  energy(sigma->0) =     -100.69353109


--------------------------------------------------------------------------------------------------------




--------------------------------------- Iteration      1(   6)  ---------------------------------------


    POTLOK:  cpu time      0.0623: real time      0.1043
    SETDIJ:  cpu time      0.2800: real time      0.2813
    EDDIAG:  cpu time      4.5212: real time      4.5482
  RMM-DIIS:  cpu time     17.8571: real time     17.9448
    ORTHCH:  cpu time      0.6053: real time      0.6080
 BZINTS: Fermi energy:    1.415612;  160.000000 electrons
         Band energy:-0.283865E+04;  BLOECHL correction:   -0.030284
       DOS:  cpu time      0.1550: real time      0.1556
    CHARGE:  cpu time      1.0681: real time      1.0743
    MIXING:  cpu time      0.0016: real time      0.0016
    --------------------------------------------
      LOOP:  cpu time     24.5506: real time     24.7181

 eigenvalue-minimisations  : 34734
 total energy-change (2. order) :-0.1333451E+02  (-0.1818043E+02)
 number of electron     160.0000094 magnetization      -0.0000000
 augmentation part       70.6657976 magnetization      -0.0000000

 Broyden mixing:
  rms(total) = 0.55685E+01    rms(broyden)= 0.55684E+01
  rms(prec ) = 0.87363E+01
  weight for this iteration     100.00

 eigenvalues of (default mixing * dielectric matrix)
  average eigenvalue GAMMA=   0.2883
  0.2883

 Free energy of the ion-electron system (eV)
  ---------------------------------------------------
  alpha Z        PSCENC =       762.61737321
  Ewald energy   TEWEN  =    -10733.91537522
  -Hartree energ DENC   =     -9003.72151467
  -exchange      EXHF   =         0.00000000
  -V(xc)+E(xc)   XCENC  =       552.08111339
  PAW double counting   =     14945.20493655   -15508.48174158
  entropy T*S    EENTRO =         0.00000000
  eigenvalues    EBANDS =     -2838.65385882
  atomic energy  EATOM  =     21710.84102437
  Solvation  Ediel_sol  =         0.00000000
  ---------------------------------------------------
  free energy    TOTEN  =      -114.02804278 eV

  energy without entropy =     -114.02804278  energy(sigma->0) =     -114.02804278


--------------------------------------------------------------------------------------------------------




--------------------------------------- Iteration      1(   7)  ---------------------------------------


    POTLOK:  cpu time      0.0577: real time      0.0871
    SETDIJ:  cpu time      0.2742: real time      0.2756
    EDDIAG:  cpu time      4.5903: real time      4.6155
  RMM-DIIS:  cpu time     17.4289: real time     17.5162
    ORTHCH:  cpu time      0.6145: real time      0.6173
 BZINTS: Fermi energy:    3.347021;  160.000000 electrons
         Band energy:-0.249241E+04;  BLOECHL correction:   -0.018133
       DOS:  cpu time      0.1684: real time      0.1691
    CHARGE:  cpu time      1.0910: real time      1.0979
    MIXING:  cpu time      0.0017: real time      0.0017
    --------------------------------------------
      LOOP:  cpu time     24.2265: real time     24.3804

 eigenvalue-minimisations  : 32073
 total energy-change (2. order) : 0.2309027E+02  (-0.4733541E+01)
 number of electron     160.0000075 magnetization       0.0000000
 augmentation part       57.6932498 magnetization       0.0000000

 Broyden mixing:
  rms(total) = 0.12306E+01    rms(broyden)= 0.12298E+01
  rms(prec ) = 0.14775E+01
  weight for this iteration     100.00

 eigenvalues of (default mixing * dielectric matrix)
  average eigenvalue GAMMA=   0.4369
  0.6139  0.2598

 Free energy of the ion-electron system (eV)
  ---------------------------------------------------
  alpha Z        PSCENC =       762.61737321
  Ewald energy   TEWEN  =    -10733.91537522
  -Hartree energ DENC   =     -9297.81944618
  -exchange      EXHF   =         0.00000000
  -V(xc)+E(xc)   XCENC  =       557.18209712
  PAW double counting   =     15452.09096563   -16049.52098347
  entropy T*S    EENTRO =         0.00000000
  eigenvalues    EBANDS =     -2492.41343052
  atomic energy  EATOM  =     21710.84102437
  Solvation  Ediel_sol  =         0.00000000
  ---------------------------------------------------
  free energy    TOTEN  =       -90.93777506 eV

  energy without entropy =      -90.93777506  energy(sigma->0) =      -90.93777506


--------------------------------------------------------------------------------------------------------




--------------------------------------- Iteration      1(   8)  ---------------------------------------


    POTLOK:  cpu time      0.0581: real time      0.0585
    SETDIJ:  cpu time      0.2775: real time      0.2785
    EDDIAG:  cpu time      4.7394: real time      4.7638
  RMM-DIIS:  cpu time     24.9401: real time     25.0665
    ORTHCH:  cpu time      0.6055: real time      0.6082
 BZINTS: Fermi energy:    3.336567;  160.000000 electrons
         Band energy:-0.249900E+04;  BLOECHL correction:   -0.017127
       DOS:  cpu time      0.1651: real time      0.1658
    CHARGE:  cpu time      1.0739: real time      1.0804
    MIXING:  cpu time      0.0025: real time      0.0025
    --------------------------------------------
      LOOP:  cpu time     31.8620: real time     32.0243

 eigenvalue-minimisations  : 46190
 total energy-change (2. order) :-0.6718851E+00  (-0.3701827E+00)
 number of electron     160.0000072 magnetization      -0.0000000
 augmentation part       58.2454509 magnetization      -0.0000000

 Broyden mixing:
  rms(total) = 0.60525E+00    rms(broyden)= 0.60491E+00
  rms(prec ) = 0.79396E+00
  weight for this iteration     100.00

 eigenvalues of (default mixing * dielectric matrix)
  average eigenvalue GAMMA=   0.6100
  0.3015  0.7643  0.7643

 Free energy of the ion-electron system (eV)
  ---------------------------------------------------
  alpha Z        PSCENC =       762.61737321
  Ewald energy   TEWEN  =    -10733.91537522
  -Hartree energ DENC   =     -9285.60500616
  -exchange      EXHF   =         0.00000000
  -V(xc)+E(xc)   XCENC  =       557.66474833
  PAW double counting   =     15494.56482861   -16098.77405115
  entropy T*S    EENTRO =         0.00000000
  eigenvalues    EBANDS =     -2499.00320211
  atomic energy  EATOM  =     21710.84102437
  Solvation  Ediel_sol  =         0.00000000
  ---------------------------------------------------
  free energy    TOTEN  =       -91.60966011 eV

  energy without entropy =      -91.60966011  energy(sigma->0) =      -91.60966011


--------------------------------------------------------------------------------------------------------




--------------------------------------- Iteration      1(   9)  ---------------------------------------


    POTLOK:  cpu time      0.0626: real time      0.1026
    SETDIJ:  cpu time      0.2793: real time      0.2803
    EDDIAG:  cpu time      4.5912: real time      4.6163
  RMM-DIIS:  cpu time     26.7363: real time     26.8739
    ORTHCH:  cpu time      0.6151: real time      0.6178
 BZINTS: Fermi energy:    3.255437;  160.000000 electrons
         Band energy:-0.251005E+04;  BLOECHL correction:   -0.014274
       DOS:  cpu time      0.1495: real time      0.1501
    CHARGE:  cpu time      1.0723: real time      1.0791
    MIXING:  cpu time      0.0018: real time      0.0018
    --------------------------------------------
      LOOP:  cpu time     33.5081: real time     33.7219

 eigenvalue-minimisations  : 50314
 total energy-change (2. order) :-0.1111011E+00  (-0.1021789E+00)
 number of electron     160.0000070 magnetization       0.0000000
 augmentation part       58.7299463 magnetization       0.0000000

 Broyden mixing:
  rms(total) = 0.32437E+00    rms(broyden)= 0.32376E+00
  rms(prec ) = 0.39516E+00
  weight for this iteration     100.00

 eigenvalues of (default mixing * dielectric matrix)
  average eigenvalue GAMMA=   0.7613
  1.0370  1.0370  0.2950  0.6763

 Free energy of the ion-electron system (eV)
  ---------------------------------------------------
  alpha Z        PSCENC =       762.61737321
  Ewald energy   TEWEN  =    -10733.91537522
  -Hartree energ DENC   =     -9268.62438183
  -exchange      EXHF   =         0.00000000
  -V(xc)+E(xc)   XCENC  =       557.96177336
  PAW double counting   =     15566.53264251   -16177.08411326
  entropy T*S    EENTRO =         0.00000000
  eigenvalues    EBANDS =     -2510.04970433
  atomic energy  EATOM  =     21710.84102437
  Solvation  Ediel_sol  =         0.00000000
  ---------------------------------------------------
  free energy    TOTEN  =       -91.72076119 eV

  energy without entropy =      -91.72076119  energy(sigma->0) =      -91.72076119


--------------------------------------------------------------------------------------------------------




--------------------------------------- Iteration      1(  10)  ---------------------------------------


    POTLOK:  cpu time      0.0589: real time      0.0600
    SETDIJ:  cpu time      0.2737: real time      0.2747
    EDDIAG:  cpu time      4.6852: real time      4.7093
  RMM-DIIS:  cpu time     28.1391: real time     28.2808
    ORTHCH:  cpu time      0.6147: real time      0.6174
 BZINTS: Fermi energy:    3.215982;  160.000000 electrons
         Band energy:-0.251294E+04;  BLOECHL correction:   -0.012447
       DOS:  cpu time      0.1714: real time      0.1722
    CHARGE:  cpu time      1.0802: real time      1.0859
    MIXING:  cpu time      0.0023: real time      0.0023
    --------------------------------------------
      LOOP:  cpu time     35.0256: real time     35.2027

 eigenvalue-minimisations  : 52559
 total energy-change (2. order) :-0.4162486E-01  (-0.3056087E-01)
 number of electron     160.0000070 magnetization       0.0000000
 augmentation part       58.9163476 magnetization       0.0000000

 Broyden mixing:
  rms(total) = 0.22048E+00    rms(broyden)= 0.22026E+00
  rms(prec ) = 0.25619E+00
  weight for this iteration     100.00

 eigenvalues of (default mixing * dielectric matrix)
  average eigenvalue GAMMA=   1.0079
  1.6122  1.6122  0.2958  0.7597  0.7597

 Free energy of the ion-electron system (eV)
  ---------------------------------------------------
  alpha Z        PSCENC =       762.61737321
  Ewald energy   TEWEN  =    -10733.91537522
  -Hartree energ DENC   =     -9262.86207739
  -exchange      EXHF   =         0.00000000
  -V(xc)+E(xc)   XCENC  =       557.96763136
  PAW double counting   =     15606.44640980   -16219.91950323
  entropy T*S    EENTRO =         0.00000000
  eigenvalues    EBANDS =     -2512.93786896
  atomic energy  EATOM  =     21710.84102437
  Solvation  Ediel_sol  =         0.00000000
  ---------------------------------------------------
  free energy    TOTEN  =       -91.76238605 eV

  energy without entropy =      -91.76238605  energy(sigma->0) =      -91.76238605


--------------------------------------------------------------------------------------------------------




--------------------------------------- Iteration      1(  11)  ---------------------------------------


    POTLOK:  cpu time      0.0691: real time      0.1072
    SETDIJ:  cpu time      0.2765: real time      0.2776
    EDDIAG:  cpu time      4.6713: real time      4.6958
  RMM-DIIS:  cpu time     24.3900: real time     24.5143
    ORTHCH:  cpu time      0.6105: real time      0.6131
 BZINTS: Fermi energy:    3.222553;  160.000000 electrons
         Band energy:-0.251171E+04;  BLOECHL correction:   -0.011340
       DOS:  cpu time      0.1714: real time      0.1720
    CHARGE:  cpu time      1.0067: real time      1.0125
    MIXING:  cpu time      0.0016: real time      0.0016
    --------------------------------------------
      LOOP:  cpu time     31.1971: real time     31.3942

 eigenvalue-minimisations  : 45046
 total energy-change (2. order) : 0.8259530E-02  (-0.8359371E-02)
 number of electron     160.0000071 magnetization       0.0000000
 augmentation part       58.8756731 magnetization       0.0000000

 Broyden mixing:
  rms(total) = 0.10321E+00    rms(broyden)= 0.10312E+00
  rms(prec ) = 0.12511E+00
  weight for this iteration     100.00

 eigenvalues of (default mixing * dielectric matrix)
  average eigenvalue GAMMA=   1.0867
  1.8599  1.8599  0.2957  0.9071  0.9071  0.6906

 Free energy of the ion-electron system (eV)
  ---------------------------------------------------
  alpha Z        PSCENC =       762.61737321
  Ewald energy   TEWEN  =    -10733.91537522
  -Hartree energ DENC   =     -9260.75372236
  -exchange      EXHF   =         0.00000000
  -V(xc)+E(xc)   XCENC  =       558.12949912
  PAW double counting   =     15668.83172873   -16285.79116020
  entropy T*S    EENTRO =         0.00000000
  eigenvalues    EBANDS =     -2511.71349418
  atomic energy  EATOM  =     21710.84102437
  Solvation  Ediel_sol  =         0.00000000
  ---------------------------------------------------
  free energy    TOTEN  =       -91.75412652 eV

  energy without entropy =      -91.75412652  energy(sigma->0) =      -91.75412652


--------------------------------------------------------------------------------------------------------




--------------------------------------- Iteration      1(  12)  ---------------------------------------


    POTLOK:  cpu time      0.0542: real time      0.0637
    SETDIJ:  cpu time      0.2739: real time      0.2749
    EDDIAG:  cpu time      4.7219: real time      4.7461
  RMM-DIIS:  cpu time     26.5794: real time     26.7114
    ORTHCH:  cpu time      0.6126: real time      0.6152
 BZINTS: Fermi energy:    3.220408;  160.000000 electrons
         Band energy:-0.251327E+04;  BLOECHL correction:   -0.012227
       DOS:  cpu time      0.1409: real time      0.1415
    CHARGE:  cpu time      1.0914: real time      1.0968
    MIXING:  cpu time      0.0020: real time      0.0020
    --------------------------------------------
      LOOP:  cpu time     33.4762: real time     33.6517

 eigenvalue-minimisations  : 48488
 total energy-change (2. order) :-0.1352672E-01  (-0.3720942E-02)
 number of electron     160.0000071 magnetization       0.0000000
 augmentation part       58.9429799 magnetization       0.0000000

 Broyden mixing:
  rms(total) = 0.52952E-01    rms(broyden)= 0.52949E-01
  rms(prec ) = 0.64498E-01
  weight for this iteration     100.00

 eigenvalues of (default mixing * dielectric matrix)
  average eigenvalue GAMMA=   1.0890
  2.2637  1.3862  1.3862  0.2958  0.8113  0.8113  0.6684

 Free energy of the ion-electron system (eV)
  ---------------------------------------------------
  alpha Z        PSCENC =       762.61737321
  Ewald energy   TEWEN  =    -10733.91537522
  -Hartree energ DENC   =     -9258.33426034
  -exchange      EXHF   =         0.00000000
  -V(xc)+E(xc)   XCENC  =       558.15547371
  PAW double counting   =     15682.37265086   -16300.23655362
  entropy T*S    EENTRO =         0.00000000
  eigenvalues    EBANDS =     -2513.26798621
  atomic energy  EATOM  =     21710.84102437
  Solvation  Ediel_sol  =         0.00000000
  ---------------------------------------------------
  free energy    TOTEN  =       -91.76765324 eV

  energy without entropy =      -91.76765324  energy(sigma->0) =      -91.76765324


--------------------------------------------------------------------------------------------------------




--------------------------------------- Iteration      1(  13)  ---------------------------------------


    POTLOK:  cpu time      0.0569: real time      0.0968
    SETDIJ:  cpu time      0.2744: real time      0.2753
    EDDIAG:  cpu time      4.6212: real time      4.6448
  RMM-DIIS:  cpu time     26.2092: real time     26.3436
    ORTHCH:  cpu time      0.6054: real time      0.6082
 BZINTS: Fermi energy:    3.215993;  160.000000 electrons
         Band energy:-0.251411E+04;  BLOECHL correction:   -0.011912
       DOS:  cpu time      0.1608: real time      0.1614
    CHARGE:  cpu time      1.0443: real time      1.0501
    MIXING:  cpu time      0.0019: real time      0.0019
    --------------------------------------------
      LOOP:  cpu time     32.9741: real time     33.1820

 eigenvalue-minimisations  : 47549
 total energy-change (2. order) : 0.5004238E-03  (-0.1152322E-02)
 number of electron     160.0000071 magnetization       0.0000000
 augmentation part       58.9805986 magnetization       0.0000000

 Broyden mixing:
  rms(total) = 0.19633E-01    rms(broyden)= 0.19621E-01
  rms(prec ) = 0.23593E-01
  weight for this iteration     100.00

 eigenvalues of (default mixing * dielectric matrix)
  average eigenvalue GAMMA=   1.1215
  2.5844  1.4358  1.4358  0.2958  0.9261  0.9261  0.7253  0.6427

 Free energy of the ion-electron system (eV)
  ---------------------------------------------------
  alpha Z        PSCENC =       762.61737321
  Ewald energy   TEWEN  =    -10733.91537522
  -Hartree energ DENC   =     -9257.14625146
  -exchange      EXHF   =         0.00000000
  -V(xc)+E(xc)   XCENC  =       558.19456847
  PAW double counting   =     15686.42618360   -16304.67847819
  entropy T*S    EENTRO =         0.00000000
  eigenvalues    EBANDS =     -2514.10619759
  atomic energy  EATOM  =     21710.84102437
  Solvation  Ediel_sol  =         0.00000000
  ---------------------------------------------------
  free energy    TOTEN  =       -91.76715281 eV

  energy without entropy =      -91.76715281  energy(sigma->0) =      -91.76715281


--------------------------------------------------------------------------------------------------------




--------------------------------------- Iteration      1(  14)  ---------------------------------------


    POTLOK:  cpu time      0.0573: real time      0.0690
    SETDIJ:  cpu time      0.2768: real time      0.2780
    EDDIAG:  cpu time      4.7195: real time      4.7437
  RMM-DIIS:  cpu time     22.4767: real time     22.5908
    ORTHCH:  cpu time      0.6247: real time      0.6274
 BZINTS: Fermi energy:    3.213675;  160.000000 electrons
         Band energy:-0.251442E+04;  BLOECHL correction:   -0.011840
       DOS:  cpu time      0.1633: real time      0.1639
    CHARGE:  cpu time      1.0664: real time      1.0717
    MIXING:  cpu time      0.0019: real time      0.0019
    --------------------------------------------
      LOOP:  cpu time     29.3865: real time     29.5465

 eigenvalue-minimisations  : 40696
 total energy-change (2. order) : 0.1777077E-03  (-0.3313255E-03)
 number of electron     160.0000071 magnetization       0.0000000
 augmentation part       59.0016668 magnetization       0.0000000

 Broyden mixing:
  rms(total) = 0.10930E-01    rms(broyden)= 0.10925E-01
  rms(prec ) = 0.13695E-01
  weight for this iteration     100.00

 eigenvalues of (default mixing * dielectric matrix)
  average eigenvalue GAMMA=   1.1387
  2.6271  1.4033  1.4033  1.3761  0.2958  0.8695  0.8695  0.7777  0.6257

 Free energy of the ion-electron system (eV)
  ---------------------------------------------------
  alpha Z        PSCENC =       762.61737321
  Ewald energy   TEWEN  =    -10733.91537522
  -Hartree energ DENC   =     -9256.80277285
  -exchange      EXHF   =         0.00000000
  -V(xc)+E(xc)   XCENC  =       558.19887104
  PAW double counting   =     15685.66549827   -16303.95313391
  entropy T*S    EENTRO =         0.00000000
  eigenvalues    EBANDS =     -2514.41846001
  atomic energy  EATOM  =     21710.84102437
  Solvation  Ediel_sol  =         0.00000000
  ---------------------------------------------------
  free energy    TOTEN  =       -91.76697510 eV

  energy without entropy =      -91.76697510  energy(sigma->0) =      -91.76697510


--------------------------------------------------------------------------------------------------------




--------------------------------------- Iteration      1(  15)  ---------------------------------------


    POTLOK:  cpu time      0.0636: real time      0.1075
    SETDIJ:  cpu time      0.2794: real time      0.2803
    EDDIAG:  cpu time      4.6610: real time      4.6853
  RMM-DIIS:  cpu time     15.3055: real time     15.3817
    ORTHCH:  cpu time      0.5967: real time      0.5995
 BZINTS: Fermi energy:    3.215521;  160.000000 electrons
         Band energy:-0.251409E+04;  BLOECHL correction:   -0.011873
       DOS:  cpu time      0.1514: real time      0.1521
    --------------------------------------------
      LOOP:  cpu time     21.0576: real time     21.2064

 eigenvalue-minimisations  : 26595
 total energy-change (2. order) :-0.4706958E-04  (-0.5660052E-04)
 number of electron     160.0000071 magnetization       0.0000000
 augmentation part       59.0016668 magnetization       0.0000000

 Free energy of the ion-electron system (eV)
  ---------------------------------------------------
  alpha Z        PSCENC =       762.61737321
  Ewald energy   TEWEN  =    -10733.91537522
  -Hartree energ DENC   =     -9257.19983777
  -exchange      EXHF   =         0.00000000
  -V(xc)+E(xc)   XCENC  =       558.19699415
  PAW double counting   =     15685.99901690   -16304.21408753
  entropy T*S    EENTRO =         0.00000000
  eigenvalues    EBANDS =     -2514.09213028
  atomic energy  EATOM  =     21710.84102437
  Solvation  Ediel_sol  =         0.00000000
  ---------------------------------------------------
[...]
 -0.000  -0.000   0.000   0.000   0.000  -0.000  -0.023  -0.000
 -0.000   0.000  -0.000   0.000  -0.000   0.000  -0.000  -0.105
  0.000   0.000  -0.000  -0.000  -0.000   0.000   0.031   0.000
 -0.000  -0.000   0.000   0.000   0.000  -0.000   0.000  -0.022
  0.000  -0.000  -0.000  -0.000   0.000   0.000  -0.000   0.000
  0.000   0.000  -0.000  -0.000  -0.000   0.000   0.005   0.000
  0.000  -0.000   0.000  -0.000   0.000  -0.000   0.000   0.025
 -0.000  -0.000   0.000   0.000   0.000  -0.000   0.000  -0.016
  0.000   0.000  -0.000  -0.000  -0.000   0.000  -0.000   0.003
 pseudopotential strength for first ion, spin component:           2
-53.453   0.107  -0.000  27.033  -0.077   0.000  -0.000   0.000
  0.107 -53.467  -0.000  -0.077  27.041   0.000  -0.000   0.000
 -0.000  -0.000 -53.445   0.000   0.000  27.020   0.000  -0.000
 27.033  -0.077   0.000  -9.174   0.057  -0.000   0.000  -0.000
 -0.077  27.041   0.000   0.057  -9.181  -0.000   0.000  -0.000
  0.000   0.000  27.020  -0.000  -0.000  -9.168  -0.000   0.000
 -0.000  -0.000   0.000   0.000   0.000  -0.000  -7.119  -0.000
  0.000   0.000  -0.000  -0.000  -0.000   0.000  -0.000  -7.510
 -0.000   0.000   0.000   0.000  -0.000  -0.000   0.000   0.077
 -0.000  -0.000   0.000   0.000   0.000  -0.000   0.120  -0.000
 -0.000   0.000  -0.000   0.000  -0.000   0.000  -0.000   0.006
  0.000   0.000  -0.000  -0.000  -0.000   0.000  -0.482   0.000
 -0.000  -0.000   0.000   0.000   0.000  -0.000   0.000  -0.392
  0.000  -0.000  -0.000  -0.000   0.000   0.000  -0.000  -0.017
  0.000   0.000  -0.000  -0.000  -0.000   0.000  -0.026   0.000
  0.000  -0.000   0.000  -0.000   0.000  -0.000   0.000  -0.003
 -0.000  -0.000   0.000   0.000   0.000  -0.000   0.000  -0.012
  0.000   0.000  -0.000  -0.000  -0.000   0.000  -0.000   0.003
 total augmentation occupancy for first ion, spin component:           1
  2.009  -0.020  -0.000   0.055  -0.048  -0.000   0.000   0.000   0.000  -0.000   0.000  -0.000  -0.000   0.000  -0.000   0.000
 -0.020   2.012   0.000  -0.048   0.062  -0.000   0.000  -0.000   0.000   0.000  -0.000   0.000  -0.000   0.000   0.000  -0.000
 -0.000  -0.000   2.007  -0.000  -0.000   0.048   0.000  -0.000   0.000   0.000  -0.000  -0.000   0.000   0.000   0.000  -0.000
  0.055  -0.048   0.000   0.193  -0.116   0.000   0.000  -0.000   0.000  -0.000  -0.000   0.000  -0.000   0.000   0.000   0.000
 -0.048   0.062   0.000  -0.116   0.212   0.000  -0.000  -0.000   0.000   0.000  -0.000   0.000   0.000   0.000  -0.000  -0.000
 -0.000   0.000   0.048   0.000  -0.000   0.171   0.000   0.000  -0.000  -0.000   0.000  -0.000   0.000   0.000   0.000   0.000
  0.000   0.000  -0.000   0.000  -0.000  -0.000   1.226   0.000   0.000  -0.094   0.000  -0.091  -0.000  -0.000  -0.055  -0.000
 -0.000  -0.000  -0.000   0.000   0.000  -0.000   0.000   1.484   0.011  -0.000  -0.096   0.000   0.078  -0.133  -0.000   0.105
  0.000  -0.000   0.000   0.000   0.000  -0.000  -0.000   0.011   1.303   0.000  -0.180   0.000  -0.135   0.025  -0.000  -0.088
 -0.000   0.000   0.000  -0.000   0.000   0.000  -0.094  -0.000   0.000   1.188  -0.000  -0.056   0.000   0.000  -0.072   0.000
  0.000   0.000  -0.000   0.000   0.000   0.000   0.000  -0.096  -0.180  -0.000   1.505  -0.000   0.108  -0.085   0.000   0.121
 -0.000   0.000   0.000   0.000   0.000   0.000  -0.091   0.000   0.000  -0.056  -0.000   0.157  -0.000   0.000  -0.029   0.000
  0.000   0.000   0.000   0.000   0.000   0.000   0.000   0.078  -0.135  -0.000   0.108  -0.000   0.246  -0.067   0.000   0.089
 -0.000   0.000  -0.000  -0.000   0.000   0.000   0.000  -0.133   0.025  -0.000  -0.085   0.000  -0.067   0.162  -0.000  -0.005
 -0.000   0.000   0.000   0.000  -0.000  -0.000  -0.055   0.000  -0.000  -0.072   0.000  -0.029  -0.000   0.000   0.156  -0.000
  0.000  -0.000  -0.000   0.000   0.000   0.000  -0.000   0.105  -0.088   0.000   0.121  -0.000   0.089  -0.005   0.000   0.136
 -0.000   0.000  -0.000   0.000  -0.000   0.000   0.000  -0.015  -0.025   0.000   0.087   0.000  -0.338   0.031   0.000  -0.015
 -0.000  -0.000   0.000   0.000  -0.000   0.000   0.000  -0.003   0.017  -0.000  -0.017   0.000   0.021  -0.004  -0.000   0.004
 total augmentation occupancy for first ion, spin component:           2
 -0.006   0.000   0.000  -0.002  -0.000   0.000   0.000   0.000  -0.000   0.000   0.000  -0.000   0.000  -0.000   0.000   0.000
  0.000  -0.008   0.000  -0.000  -0.008   0.000   0.000   0.000   0.000  -0.000   0.000   0.000   0.000  -0.000   0.000   0.000
  0.000  -0.000  -0.008  -0.000  -0.000  -0.006   0.000  -0.000   0.000  -0.000  -0.000  -0.000   0.000   0.000   0.000  -0.000
 -0.002  -0.000   0.000   0.015  -0.002   0.000   0.000   0.000   0.000  -0.000   0.000  -0.000  -0.000  -0.000   0.000  -0.000
 -0.000  -0.008  -0.000  -0.002   0.001  -0.000   0.000   0.000   0.000   0.000  -0.000  -0.000  -0.000   0.000   0.000   0.000
  0.000  -0.000  -0.006  -0.000  -0.000   0.008  -0.000  -0.000   0.000   0.000  -0.000  -0.000  -0.000   0.000  -0.000   0.000
  0.000   0.000  -0.000  -0.000   0.000   0.000   0.730   0.000  -0.000   0.109  -0.000  -0.274   0.000  -0.000   0.010   0.000
  0.000   0.000  -0.000   0.000   0.000  -0.000   0.000   0.370   0.071  -0.000   0.042  -0.000  -0.208   0.001   0.000  -0.035
  0.000   0.000   0.000   0.000   0.000   0.000   0.000   0.071   0.561  -0.000   0.233   0.000  -0.001  -0.228   0.000  -0.035
  0.000  -0.000  -0.000  -0.000   0.000   0.000   0.109   0.000  -0.000   0.743  -0.000   0.012   0.000  -0.000  -0.273  -0.000
  0.000   0.000  -0.000   0.000  -0.000   0.000  -0.000   0.042   0.233   0.000   0.263   0.000  -0.019  -0.030   0.000  -0.160
 -0.000   0.000   0.000  -0.000  -0.000   0.000  -0.274  -0.000   0.000   0.012  -0.000   0.057  -0.000  -0.000   0.005   0.000
 -0.000  -0.000   0.000   0.000  -0.000  -0.000   0.000  -0.208  -0.001  -0.000  -0.019   0.000   0.011   0.022   0.000  -0.002
 -0.000   0.000   0.000  -0.000   0.000   0.000   0.000   0.001  -0.228   0.000  -0.030  -0.000   0.022   0.021  -0.000   0.014
  0.000   0.000   0.000   0.000   0.000   0.000   0.010  -0.000  -0.000  -0.273   0.000   0.005   0.000  -0.000   0.044  -0.000
 -0.000  -0.000   0.000   0.000   0.000  -0.000   0.000  -0.035  -0.035   0.000  -0.160   0.000  -0.002   0.014   0.000  -0.007
  0.000   0.000   0.000  -0.000   0.000   0.000  -0.000   0.129   0.013  -0.000  -0.046   0.000  -0.039   0.004   0.000  -0.028
  0.000  -0.000  -0.000  -0.000   0.000   0.000  -0.000   0.010   0.017  -0.000  -0.021  -0.000  -0.003  -0.002   0.000   0.000


------------------------ aborting loop because EDIFF is reached ----------------------------------------





 total charge

# of ion       s       p       d       tot
------------------------------------------
    1        0.339   6.290   6.045  12.673
    2        0.339   6.290   6.045  12.673
    3        0.339   6.290   6.045  12.673
    4        0.339   6.290   6.045  12.673
    5        0.339   6.290   6.045  12.673
    6        0.339   6.290   6.045  12.673
    7        0.339   6.290   6.045  12.673
    8        0.339   6.290   6.045  12.673
    9        1.485   2.274   0.047   3.806
   10        1.485   2.274   0.047   3.806
   11        1.485   2.274   0.047   3.806
   12        1.485   2.274   0.047   3.806
   13        1.485   2.274   0.047   3.806
   14        1.485   2.274   0.047   3.806
   15        1.485   2.274   0.047   3.806
   16        1.485   2.274   0.047   3.806
--------------------------------------------------
tot         14.590  68.512  48.736 131.838



 magnetization (x)

# of ion       s       p       d       tot
------------------------------------------
    1        0.030   0.011   2.601   2.643
    2       -0.030  -0.011  -2.601  -2.643
    3       -0.030  -0.011  -2.601  -2.643
    4        0.030   0.011   2.601   2.643
    5        0.030   0.011   2.601   2.643
    6       -0.030  -0.011  -2.601  -2.643
    7       -0.030  -0.011  -2.601  -2.643
    8        0.030   0.011   2.601   2.643
    9        0.000   0.000   0.000   0.000
   10        0.000   0.000   0.000   0.000
   11        0.000   0.000   0.000   0.000
   12        0.000   0.000   0.000   0.000
   13        0.000   0.000   0.000   0.000
   14        0.000   0.000   0.000   0.000
   15        0.000   0.000   0.000   0.000
   16        0.000   0.000   0.000   0.000
--------------------------------------------------
tot         -0.000   0.000   0.000   0.000
 
    CHARGE:  cpu time      1.0384: real time      1.0440
    FORLOC:  cpu time      0.0033: real time      0.0033
    FORNL :  cpu time      6.9454: real time      6.9797
    STRESS:  cpu time     20.8283: real time     20.9336
    FORCOR:  cpu time      0.0537: real time      0.0540
    FORHAR:  cpu time      0.0086: real time      0.0086
    MIXING:  cpu time      0.0019: real time      0.0019
    OFIELD:  cpu time      0.0000: real time      0.0000
    FORVDW:  cpu time      0.7119: real time      0.7145

  FORCE on cell =-STRESS in cart. coord.  units (eV):
  Direction    XX          YY          ZZ          XY          YZ          ZX
  --------------------------------------------------------------------------------------
  Alpha Z   762.61737   762.61737   762.61737
  Ewald    -646.15436 -1424.19061 -8663.59665     0.00000     0.00000     0.00000
  Hartree  5763.07656  5002.32837 -1507.24885    -0.00000    -0.00000    -0.00000
  E(xc)    -896.27104  -898.03102  -897.45664     0.00000     0.00000    -0.00000
  Local   -6936.67507 -5397.91662  8368.33521     0.00000    -0.00000     0.00000
  n-local  -272.84652  -246.03193  -237.94720    -1.10190    -0.28419    -0.68733
  augment   530.89421   517.13339   515.46930     0.00000    -0.00000     0.00000
  Kinetic  1698.07681  1686.25606  1661.72044     3.63228    -0.02079     0.16404
  Fock        0.00000     0.00000     0.00000     0.00000     0.00000     0.00000
  vdW        -5.99218    -6.08576    -6.20062     0.00000     0.00000    -0.00000
  -------------------------------------------------------------------------------------
  Total      -3.27421    -3.92075    -4.30763     0.00000     0.00000     0.00000
  in kB     -15.75333   -18.86408   -20.72548     0.00000     0.00000     0.00000
  external pressure =      -18.45 kB  Pullay stress =        0.00 kB


 VOLUME and BASIS-vectors are now :
 -----------------------------------------------------------------------------
  energy-cutoff  :      550.00
  volume of cell :      333.00
      direct lattice vectors                 reciprocal lattice vectors
     4.878097749 -5.832709928  0.000000000     0.102498971 -0.085723447  0.000000000
     4.878097749  5.832709928  0.000000000     0.102498971  0.085723447  0.000000000
     0.000000000  0.000000000  5.851852361     0.000000000  0.000000000  0.170886061

  length of vectors
     7.603705857  7.603705857  5.851852361     0.133620913  0.133620913  0.170886061


 FORCES acting on ions
    electron-ion (+dipol)            ewald-force                    non-local-force                 convergence-correction
 -----------------------------------------------------------------------------------------------
   -.114E-13 -.798E-13 -.411E-15   0.163E-12 -.639E-13 0.000E+00   0.913E-21 -.313E-21 0.426E-21   0.254E-12 -.262E-12 -.309E-12
   0.687E-12 0.784E-12 0.218E-13   0.160E-12 -.711E-13 -.142E-13   0.917E-22 0.521E-23 0.174E-21   -.309E-13 0.119E-13 -.371E-12
   0.637E-12 -.157E-11 -.120E-10   0.164E-12 -.568E-13 0.000E+00   -.394E-22 -.189E-22 -.507E-22   0.279E-12 0.440E-12 -.237E-12
   -.491E-11 -.963E-11 -.892E-11   0.163E-12 -.711E-13 -.107E-13   -.470E-21 0.347E-21 -.378E-21   -.609E-13 -.385E-12 -.294E-12
   -.261E-11 -.396E-11 -.374E-11   -.175E-12 0.462E-13 -.124E-13   0.285E-21 -.372E-21 -.301E-21   0.109E-12 0.285E-12 -.144E-12
   0.435E-11 0.577E-11 -.440E-11   -.171E-12 0.604E-13 -.142E-13   0.390E-22 0.659E-22 -.383E-22   -.404E-12 0.455E-12 -.131E-12
   -.144E-10 -.295E-10 0.377E-10   -.171E-12 0.178E-13 0.000E+00   -.127E-21 -.239E-21 0.864E-22   0.464E-12 0.492E-12 -.483E-12
   0.998E-12 -.657E-11 0.357E-10   -.163E-12 0.284E-13 0.000E+00   -.468E-21 0.575E-21 0.250E-21   -.548E-13 -.460E-12 -.478E-12
   0.569E-07 0.264E-12 0.350E+03   0.658E-14 -.711E-14 -.351E+03   0.466E-18 -.619E-18 0.111E+01   0.126E-12 0.726E-13 -.120E-01
   0.569E-07 0.893E-12 0.350E+03   0.711E-14 0.345E-14 -.351E+03   0.141E-17 0.181E-17 0.111E+01   -.671E-13 -.186E-12 -.120E-01
   0.569E-07 0.727E-12 0.350E+03   0.711E-14 0.321E-14 -.351E+03   -.251E-17 -.199E-17 0.111E+01   0.481E-13 0.865E-13 -.120E-01
   0.569E-07 -.525E-12 0.350E+03   0.720E-14 0.213E-13 -.351E+03   0.269E-17 -.300E-17 0.111E+01   -.138E-12 0.298E-14 -.120E-01
   -.569E-07 0.290E-12 -.350E+03   -.143E-14 0.436E-13 0.351E+03   -.396E-18 0.494E-17 -.111E+01   0.129E-13 -.357E-14 0.120E-01
   -.569E-07 0.186E-12 -.350E+03   -.907E-15 0.429E-13 0.351E+03   -.128E-17 0.838E-18 -.111E+01   -.373E-13 0.405E-13 0.120E-01
   -.569E-07 0.455E-13 -.350E+03   0.673E-15 0.144E-13 0.351E+03   -.860E-18 -.199E-17 -.111E+01   0.262E-13 0.543E-13 0.120E-01
   -.569E-07 0.130E-11 -.350E+03   0.869E-14 0.263E-14 0.351E+03   0.866E-18 -.392E-18 -.111E+01   0.106E-14 -.718E-13 0.120E-01
 -----------------------------------------------------------------------------------------------
   -.173E-10 -.416E-10 0.398E-10   0.756E-14 0.142E-13 0.114E-12   0.383E-18 -.402E-18 0.000E+00   0.526E-12 0.573E-12 -.224E-11
 
 
 POSITION                                       TOTAL-FORCE (eV/Angst)
 -----------------------------------------------------------------------------------
      0.00000      0.00000      0.00000        -0.000000     -0.000000      0.000000
      2.43905      2.91635      0.00000        -0.000000     -0.000000      0.000000
      2.43905     -2.91635      0.00000        -0.000000     -0.000000      0.000000
      4.87810      0.00000      0.00000        -0.000000     -0.000000      0.000000
      2.43905      0.00000      0.00000        -0.000000     -0.000000      0.000000
      4.87810      2.91635      0.00000        -0.000000     -0.000000      0.000000
      4.87810     -2.91635      0.00000        -0.000000     -0.000000      0.000000
      7.31715      0.00000      0.00000        -0.000000     -0.000000      0.000000
      2.43905     -1.45818      4.07958        -0.000000      0.000000      0.018016
      4.87810      1.45818      4.07958         0.000000     -0.000000      0.018016
      4.87810     -4.37453      4.07958        -0.000000      0.000000      0.018016
      7.31715     -1.45818      4.07958         0.000000     -0.000000      0.018016
      2.43905      1.45818      1.77227        -0.000000      0.000000     -0.018016
      4.87810      4.37453      1.77227         0.000000      0.000000     -0.018016
      4.87810     -1.45818      1.77227         0.000000     -0.000000     -0.018016
      7.31715      1.45818      1.77227        -0.000000     -0.000000     -0.018016
 -----------------------------------------------------------------------------------
    total drift:                               -0.000000     -0.000000      0.000000


--------------------------------------------------------------------------------------------------------



  FREE ENERGIE OF THE ION-ELECTRON SYSTEM (eV)
  ---------------------------------------------------
  free  energy   TOTEN  =       -98.12392176 eV

  energy  without entropy=      -98.12392176  energy(sigma->0) =      -98.12392176
 


--------------------------------------------------------------------------------------------------------


    POTLOK:  cpu time      0.3293: real time      0.3494


--------------------------------------------------------------------------------------------------------


     LOOP+:  cpu time    501.7236: real time    504.8570
 -----------------------------------------------------------------------------
|                                                                             |
|           W    W    AA    RRRRR   N    N  II  N    N   GGGG   !!!           |
|           W    W   A  A   R    R  NN   N  II  NN   N  G    G  !!!           |
|           W    W  A    A  R    R  N N  N  II  N N  N  G       !!!           |
|           W WW W  AAAAAA  RRRRR   N  N N  II  N  N N  G  GGG   !            |
|           WW  WW  A    A  R   R   N   NN  II  N   NN  G    G                |
|           W    W  A    A  R    R  N    N  II  N    N   GGGG   !!!           |
|                                                                             |
|     Tetrahedron method does not include variations of the Fermi             |
|     occupations, so forces and stress will be inaccurate. We suggest        |
|     using a different smearing scheme ISMEAR = 1 or 2 for metals in         |
|     relaxations.                                                            |
|                                                                             |
 -----------------------------------------------------------------------------

    4ORBIT:  cpu time      0.0000: real time      0.0000



 total charge

# of ion       s       p       d       tot
------------------------------------------
    1        0.339   6.290   6.045  12.673
    2        0.339   6.290   6.045  12.673
    3        0.339   6.290   6.045  12.673
    4        0.339   6.290   6.045  12.673
    5        0.339   6.290   6.045  12.673
    6        0.339   6.290   6.045  12.673
    7        0.339   6.290   6.045  12.673
    8        0.339   6.290   6.045  12.673
    9        1.485   2.274   0.047   3.806
   10        1.485   2.274   0.047   3.806
   11        1.485   2.274   0.047   3.806
   12        1.485   2.274   0.047   3.806
   13        1.485   2.274   0.047   3.806
   14        1.485   2.274   0.047   3.806
   15        1.485   2.274   0.047   3.806
   16        1.485   2.274   0.047   3.806
--------------------------------------------------
tot         14.590  68.512  48.736 131.838



 magnetization (x)

# of ion       s       p       d       tot
------------------------------------------
    1        0.030   0.011   2.601   2.643
    2       -0.030  -0.011  -2.601  -2.643
    3       -0.030  -0.011  -2.601  -2.643
    4        0.030   0.011   2.601   2.643
    5        0.030   0.011   2.601   2.643
    6       -0.030  -0.011  -2.601  -2.643
    7       -0.030  -0.011  -2.601  -2.643
    8        0.030   0.011   2.601   2.643
    9        0.000   0.000   0.000   0.000
   10        0.000   0.000   0.000   0.000
   11        0.000   0.000   0.000   0.000
   12        0.000   0.000   0.000   0.000
   13        0.000   0.000   0.000   0.000
   14        0.000   0.000   0.000   0.000
   15        0.000   0.000   0.000   0.000
   16        0.000   0.000   0.000   0.000
--------------------------------------------------
tot         -0.000   0.000   0.000   0.000
 
 BZINTS: Fermi energy:    3.215521;  160.000000 electrons
         Band energy:-0.251409E+04;  BLOECHL correction:   -0.011873

 total amount of memory used by VASP MPI-rank0   195049. kBytes
=======================================================================

   base      :      30000. kBytes
   nonlr-proj:      13140. kBytes
   fftplans  :       3084. kBytes
   grid      :      19560. kBytes
   one-center:        497. kBytes
   wavefun   :     128768. kBytes
 
  
  
 General timing and accounting informations for this job:
 ========================================================
  
                  Total CPU time used (sec):      529.466
                            User time (sec):      527.127
                          System time (sec):        2.339
                         Elapsed time (sec):      533.668
  
                   Maximum memory used (kb):      487780.
                   Average memory used (kb):          N/A
  
                          Minor page faults:       202270
                          Major page faults:            0
                 Voluntary context switches:        36458
