 running   20 mpi-ranks, on    5 nodes
 distrk:  each k-point on   20 cores,    1 groups
 distr:  one band on    1 cores,   20 groups
 vasp.6.4.1 05Apr23 (build Jun 01 2023 13:46:15) complex                        
  
 POSCAR found type information on POSCAR FeSe
 POSCAR found :  2 types and      16 ions
 Reading from existing POTCAR
 scaLAPACK will be used
 -----------------------------------------------------------------------------
|                                                                             |
|           W    W    AA    RRRRR   N    N  II  N    N   GGGG   !!!           |
|           W    W   A  A   R    R  NN   N  II  NN   N  G    G  !!!           |
|           W    W  A    A  R    R  N N  N  II  N N  N  G       !!!           |
|           W WW W  AAAAAA  RRRRR   N  N N  II  N  N N  G  GGG   !            |
|           WW  WW  A    A  R   R   N   NN  II  N   NN  G    G                |
|           W    W  A    A  R    R  N    N  II  N    N   GGGG   !!!           |
|                                                                             |
|     For optimal performance we recommend to set                             |
|       NCORE = 2 up to number-of-cores-per-socket                            |
|     NCORE specifies how many cores store one orbital (NPAR=cpu/NCORE).      |
|     This setting can greatly improve the performance of VASP for DFT.       |
|     The default, NCORE=1 might be grossly inefficient on modern             |
|     multi-core architectures or massively parallel machines. Do your        |
|     own testing! More info at https://www.vasp.at/wiki/index.php/NCORE      |
|     Unfortunately you need to use the default for GW and RPA                |
|     calculations (for HF NCORE is supported but not extensively tested      |
|     yet).                                                                   |
|                                                                             |
 -----------------------------------------------------------------------------

 Reading from existing POTCAR
 LDA part: xc-table for Pade appr. of Perdew
 POSCAR, INCAR and KPOINTS ok, starting setup
 FFT: planning ... GRIDC
 FFT: planning ... GRID_SOFT
 FFT: planning ... GRID
 WAVECAR not read
 WARNING: random wavefunctions but no delay for mixing, default for NELMDL
 entering main loop
       N       E                     dE             d eps       ncg     rms          rms(c)
DAV:   1     0.198878901521E+04    0.19888E+04   -0.88967E+04 35920   0.192E+03
DAV:   2     0.121844669223E+03   -0.18669E+04   -0.18131E+04 32000   0.559E+02
DAV:   3    -0.854817622334E+02   -0.20733E+03   -0.18429E+03 46120   0.183E+02
DAV:   4    -0.100340066821E+03   -0.14858E+02   -0.14509E+02 47160   0.513E+01
DAV:   5    -0.100693531091E+03   -0.35346E+00   -0.35262E+00 44560   0.830E+00    0.281E+01
RMM:   6    -0.114028042777E+03   -0.13335E+02   -0.18180E+02 34734   0.868E+01    0.557E+01
RMM:   7    -0.909377750619E+02    0.23090E+02   -0.47335E+01 32073   0.524E+01    0.123E+01
RMM:   8    -0.916096601123E+02   -0.67189E+00   -0.37018E+00 46190   0.528E+00    0.605E+00
RMM:   9    -0.917207611927E+02   -0.11110E+00   -0.10218E+00 50314   0.302E+00    0.324E+00
RMM:  10    -0.917623860494E+02   -0.41625E-01   -0.30561E-01 52559   0.162E+00    0.220E+00
RMM:  11    -0.917541265191E+02    0.82595E-02   -0.83594E-02 45046   0.133E+00    0.103E+00
RMM:  12    -0.917676532354E+02   -0.13527E-01   -0.37209E-02 48488   0.731E-01    0.530E-01
RMM:  13    -0.917671528117E+02    0.50042E-03   -0.11523E-02 47549   0.352E-01    0.196E-01
RMM:  14    -0.917669751040E+02    0.17771E-03   -0.33133E-03 40696   0.190E-01    0.109E-01
RMM:  15    -0.917670221736E+02   -0.47070E-04   -0.56601E-04 26595   0.108E-01
   1 F= -.98123922E+02 E0= -.98123922E+02  d E =0.000000E+00  mag=     0.0000
 -----------------------------------------------------------------------------
|                                                                             |
|           W    W    AA    RRRRR   N    N  II  N    N   GGGG   !!!           |
|           W    W   A  A   R    R  NN   N  II  NN   N  G    G  !!!           |
|           W    W  A    A  R    R  N N  N  II  N N  N  G       !!!           |
|           W WW W  AAAAAA  RRRRR   N  N N  II  N  N N  G  GGG   !            |
|           WW  WW  A    A  R   R   N   NN  II  N   NN  G    G                |
|           W    W  A    A  R    R  N    N  II  N    N   GGGG   !!!           |
|                                                                             |
|     Tetrahedron method does not include variations of the Fermi             |
|     occupations, so forces and stress will be inaccurate. We suggest        |
|     using a different smearing scheme ISMEAR = 1 or 2 for metals in         |
|     relaxations.                                                            |
|                                                                             |
 -----------------------------------------------------------------------------

