 running   20 mpi-ranks, on    5 nodes
 distrk:  each k-point on   20 cores,    1 groups
 distr:  one band on    1 cores,   20 groups
 vasp.6.4.1 05Apr23 (build Jun 01 2023 13:46:15) complex                        
  
 POSCAR found type information on POSCAR FeSe
 POSCAR found :  2 types and      16 ions
 Reading from existing POTCAR
 scaLAPACK will be used
 -----------------------------------------------------------------------------
|                                                                             |
|           W    W    AA    RRRRR   N    N  II  N    N   GGGG   !!!           |
|           W    W   A  A   R    R  NN   N  II  NN   N  G    G  !!!           |
|           W    W  A    A  R    R  N N  N  II  N N  N  G       !!!           |
|           W WW W  AAAAAA  RRRRR   N  N N  II  N  N N  G  GGG   !            |
|           WW  WW  A    A  R   R   N   NN  II  N   NN  G    G                |
|           W    W  A    A  R    R  N    N  II  N    N   GGGG   !!!           |
|                                                                             |
|     For optimal performance we recommend to set                             |
|       NCORE = 2 up to number-of-cores-per-socket                            |
|     NCORE specifies how many cores store one orbital (NPAR=cpu/NCORE).      |
|     This setting can greatly improve the performance of VASP for DFT.       |
|     The default, NCORE=1 might be grossly inefficient on modern             |
|     multi-core architectures or massively parallel machines. Do your        |
|     own testing! More info at https://www.vasp.at/wiki/index.php/NCORE      |
|     Unfortunately you need to use the default for GW and RPA                |
|     calculations (for HF NCORE is supported but not extensively tested      |
|     yet).                                                                   |
|                                                                             |
 -----------------------------------------------------------------------------

 Reading from existing POTCAR
 LDA part: xc-table for Pade appr. of Perdew
 POSCAR, INCAR and KPOINTS ok, starting setup
 FFT: planning ... GRIDC
 FFT: planning ... GRID_SOFT
 FFT: planning ... GRID
 WAVECAR not read
 WARNING: random wavefunctions but no delay for mixing, default for NELMDL
 entering main loop
       N       E                     dE             d eps       ncg     rms          rms(c)
DAV:   1     0.199224100622E+04    0.19922E+04   -0.88865E+04 35780   0.192E+03
DAV:   2     0.121198318787E+03   -0.18710E+04   -0.18183E+04 32000   0.560E+02
DAV:   3    -0.857328564538E+02   -0.20693E+03   -0.18458E+03 46140   0.184E+02
DAV:   4    -0.100359263671E+03   -0.14626E+02   -0.14309E+02 47460   0.510E+01
DAV:   5    -0.100693444765E+03   -0.33418E+00   -0.33341E+00 44420   0.813E+00    0.281E+01
RMM:   6    -0.113946608887E+03   -0.13253E+02   -0.18156E+02 32087   0.868E+01    0.554E+01
RMM:   7    -0.910201287604E+02    0.22926E+02   -0.46677E+01 32024   0.525E+01    0.122E+01
RMM:   8    -0.916315742411E+02   -0.61145E+00   -0.31269E+00 41277   0.507E+00    0.590E+00
RMM:   9    -0.917343551384E+02   -0.10278E+00   -0.96641E-01 44155   0.300E+00    0.313E+00
RMM:  10    -0.917657099663E+02   -0.31355E-01   -0.32092E-01 46061   0.166E+00    0.192E+00
RMM:  11    -0.917626225783E+02    0.30874E-02   -0.83800E-02 40545   0.127E+00    0.797E-01
RMM:  12    -0.917751489360E+02   -0.12526E-01   -0.30306E-02 42848   0.638E-01    0.464E-01
RMM:  13    -0.917748618596E+02    0.28708E-03   -0.78942E-03 40123   0.290E-01    0.172E-01
RMM:  14    -0.917748025590E+02    0.59301E-04   -0.23564E-03 32154   0.163E-01    0.985E-02
RMM:  15    -0.917748492976E+02   -0.46739E-04   -0.44675E-04 20854   0.988E-02
   1 F= -.98131667E+02 E0= -.98122902E+02  d E =-.981317E+02  mag=    -0.0000
 curvature:   0.00 expect dE= 0.000E+00 dE for cont linesearch  0.000E+00
 trial: gam= 0.00000 g(F)=  0.319E-03 g(S)=  0.969E-04 ort = 0.000E+00 (trialstep = 0.100E+01)
 search vector abs. value=  0.416E-03
 bond charge predicted
       N       E                     dE             d eps       ncg     rms          rms(c)
DAV:   1    -0.917755380467E+02   -0.73549E-03   -0.28183E-02 36480   0.584E-01    0.185E-01
RMM:   2    -0.917751677724E+02    0.37027E-03   -0.15798E-03 27593   0.240E-01    0.905E-02
RMM:   3    -0.917751339095E+02    0.33863E-04   -0.78259E-04 25455   0.153E-01
   2 F= -.98131984E+02 E0= -.98123138E+02  d E =-.316922E-03  mag=     0.0000
 trial-energy change:   -0.000317  1 .order   -0.000333   -0.000416   -0.000250
 step:   2.5060(harm=  2.5060)  dis= 0.00348  next Energy=   -98.132188 (dE=-0.521E-03)
 bond charge predicted
       N       E                     dE             d eps       ncg     rms          rms(c)
DAV:   1    -0.917758669199E+02   -0.69915E-03   -0.63665E-02 37320   0.896E-01    0.263E-01
RMM:   2    -0.917751388823E+02    0.72804E-03   -0.35351E-03 31687   0.351E-01    0.129E-01
RMM:   3    -0.917749635379E+02    0.17534E-03   -0.13759E-03 27825   0.172E-01
   3 F= -.98131863E+02 E0= -.98122893E+02  d E =-.196277E-03  mag=     0.0000
 curvature:  -1.25 expect dE=-0.832E-03 dE for cont linesearch -0.108E-03
 trial: gam= 0.00000 g(F)=  0.137E-03 g(S)=  0.527E-03 ort =-0.189E-03 (trialstep = 0.815E+00)
 search vector abs. value=  0.664E-03
 reached required accuracy - stopping structural energy minimisation
