 running   20 mpi-ranks, on    5 nodes
 distrk:  each k-point on   20 cores,    1 groups
 distr:  one band on    1 cores,   20 groups
 vasp.6.4.1 05Apr23 (build Jun 01 2023 13:46:15) complex                        
  
 POSCAR found type information on POSCAR FeSe
 POSCAR found :  2 types and      16 ions
 Reading from existing POTCAR
 scaLAPACK will be used
 -----------------------------------------------------------------------------
|                                                                             |
|           W    W    AA    RRRRR   N    N  II  N    N   GGGG   !!!           |
|           W    W   A  A   R    R  NN   N  II  NN   N  G    G  !!!           |
|           W    W  A    A  R    R  N N  N  II  N N  N  G       !!!           |
|           W WW W  AAAAAA  RRRRR   N  N N  II  N  N N  G  GGG   !            |
|           WW  WW  A    A  R   R   N   NN  II  N   NN  G    G                |
|           W    W  A    A  R    R  N    N  II  N    N   GGGG   !!!           |
|                                                                             |
|     For optimal performance we recommend to set                             |
|       NCORE = 2 up to number-of-cores-per-socket                            |
|     NCORE specifies how many cores store one orbital (NPAR=cpu/NCORE).      |
|     This setting can greatly improve the performance of VASP for DFT.       |
|     The default, NCORE=1 might be grossly inefficient on modern             |
|     multi-core architectures or massively parallel machines. Do your        |
|     own testing! More info at https://www.vasp.at/wiki/index.php/NCORE      |
|     Unfortunately you need to use the default for GW and RPA                |
|     calculations (for HF NCORE is supported but not extensively tested      |
|     yet).                                                                   |
|                                                                             |
 -----------------------------------------------------------------------------

 Reading from existing POTCAR
 LDA part: xc-table for Pade appr. of Perdew
 POSCAR, INCAR and KPOINTS ok, starting setup
 FFT: planning ... GRIDC
 FFT: planning ... GRID_SOFT
 FFT: planning ... GRID
 WAVECAR not read
 WARNING: random wavefunctions but no delay for mixing, default for NELMDL
 entering main loop
       N       E                     dE             d eps       ncg     rms          rms(c)
DAV:   1     0.199559198303E+04    0.19956E+04   -0.89003E+04 35700   0.192E+03
DAV:   2     0.122285147227E+03   -0.18733E+04   -0.18204E+04 32000   0.561E+02
DAV:   3    -0.854418298574E+02   -0.20773E+03   -0.18536E+03 46180   0.184E+02
DAV:   4    -0.100213761643E+03   -0.14772E+02   -0.14452E+02 47380   0.510E+01
DAV:   5    -0.100548337038E+03   -0.33458E+00   -0.33384E+00 44240   0.819E+00    0.278E+01
RMM:   6    -0.112555733287E+03   -0.12007E+02   -0.17602E+02 32096   0.856E+01    0.532E+01
RMM:   7    -0.910234661073E+02    0.21532E+02   -0.44822E+01 32030   0.516E+01    0.117E+01
RMM:   8    -0.916083197244E+02   -0.58485E+00   -0.32088E+00 41122   0.508E+00    0.548E+00
RMM:   9    -0.917203466599E+02   -0.11203E+00   -0.95375E-01 44283   0.295E+00    0.303E+00
RMM:  10    -0.917440912085E+02   -0.23745E-01   -0.29772E-01 46196   0.165E+00    0.182E+00
RMM:  11    -0.917424990270E+02    0.15922E-02   -0.75091E-02 40410   0.122E+00    0.751E-01
RMM:  12    -0.917537861980E+02   -0.11287E-01   -0.26603E-02 42415   0.601E-01    0.424E-01
RMM:  13    -0.917533776218E+02    0.40858E-03   -0.71687E-03 39635   0.273E-01    0.151E-01
RMM:  14    -0.917534102306E+02   -0.32609E-04   -0.19878E-03 30157   0.153E-01
   1 F= -.98108464E+02 E0= -.98100653E+02  d E =-.981085E+02  mag=    -0.0000
 curvature:   0.00 expect dE= 0.000E+00 dE for cont linesearch  0.000E+00
 trial: gam= 0.00000 g(F)=  0.242E-01 g(S)=  0.788E-02 ort = 0.000E+00 (trialstep = 0.100E+01)
 search vector abs. value=  0.321E-01
 bond charge predicted
       N       E                     dE             d eps       ncg     rms          rms(c)
DAV:   1    -0.918068140935E+02   -0.53436E-01   -0.20719E+00 37980   0.529E+00    0.160E+00
RMM:   2    -0.917850437591E+02    0.21770E-01   -0.15297E-01 36994   0.217E+00    0.131E+00
RMM:   3    -0.917736379629E+02    0.11406E-01   -0.71483E-02 33140   0.169E+00    0.777E-01
RMM:   4    -0.917678161853E+02    0.58218E-02   -0.22687E-02 34601   0.772E-01    0.257E-01
RMM:   5    -0.917685507158E+02   -0.73453E-03   -0.75088E-03 36367   0.308E-01    0.171E-01
RMM:   6    -0.917683516377E+02    0.19908E-03   -0.12079E-03 26891   0.175E-01
   2 F= -.98123321E+02 E0= -.98114655E+02  d E =-.148577E-01  mag=     0.0000
 trial-energy change:   -0.014858  1 .order   -0.015548   -0.032125    0.001029
 step:   0.9690(harm=  0.9690)  dis= 0.01172  next Energy=   -98.124027 (dE=-0.156E-01)
 bond charge predicted
       N       E                     dE             d eps       ncg     rms          rms(c)
DAV:   1    -0.917683420673E+02    0.20865E-03   -0.33209E-03 39720   0.252E-01    0.510E-02
RMM:   2    -0.917683491163E+02   -0.70490E-05   -0.24806E-04 16703   0.885E-02
   3 F= -.98123325E+02 E0= -.98114684E+02  d E =-.148617E-01  mag=    -0.0000
 curvature:  -0.48 expect dE=-0.281E-02 dE for cont linesearch -0.277E-04
 trial: gam= 0.22305 g(F)=  0.905E-03 g(S)=  0.490E-02 ort =-0.136E-02 (trialstep = 0.994E+00)
 search vector abs. value=  0.680E-02
 bond charge predicted
       N       E                     dE             d eps       ncg     rms          rms(c)
DAV:   1    -0.917859963739E+02   -0.17654E-01   -0.52939E-01 34220   0.275E+00    0.878E-01
RMM:   2    -0.917763076587E+02    0.96887E-02   -0.33539E-02 34625   0.123E+00    0.662E-01
RMM:   3    -0.917736970574E+02    0.26106E-02   -0.21243E-02 32230   0.941E-01    0.445E-01
RMM:   4    -0.917717361399E+02    0.19609E-02   -0.68332E-03 32607   0.431E-01    0.129E-01
RMM:   5    -0.917718699664E+02   -0.13383E-03   -0.21308E-03 29585   0.176E-01    0.907E-02
RMM:   6    -0.917717853498E+02    0.84617E-04   -0.34520E-04 19396   0.122E-01
   4 F= -.98127279E+02 E0= -.98118562E+02  d E =-.395368E-02  mag=    -0.0000
 trial-energy change:   -0.003954  1 .order   -0.004592   -0.005473   -0.003711
 step:   3.0861(harm=  3.0861)  dis= 0.01553  next Energy=   -98.131824 (dE=-0.850E-02)
 bond charge predicted
       N       E                     dE             d eps       ncg     rms          rms(c)
DAV:   1    -0.918351879579E+02   -0.63318E-01   -0.23419E+00 32000   0.575E+00    0.182E+00
RMM:   2    -0.917924768020E+02    0.42711E-01   -0.13950E-01 34779   0.246E+00    0.132E+00
RMM:   3    -0.917833996504E+02    0.90772E-02   -0.92367E-02 32323   0.194E+00    0.963E-01
RMM:   4    -0.917745220560E+02    0.88776E-02   -0.29708E-02 33688   0.932E-01    0.275E-01
RMM:   5    -0.917751173421E+02   -0.59529E-03   -0.96557E-03 35890   0.351E-01    0.195E-01
RMM:   6    -0.917747597605E+02    0.35758E-03   -0.15805E-03 27959   0.237E-01    0.818E-02
RMM:   7    -0.917747891453E+02   -0.29385E-04   -0.87658E-04 24431   0.111E-01
   5 F= -.98131444E+02 E0= -.98122602E+02  d E =-.811834E-02  mag=    -0.0000
 curvature:  -1.91 expect dE=-0.134E-02 dE for cont linesearch -0.345E-03
 trial: gam=-0.15110 g(F)=  0.549E-06 g(S)=  0.702E-03 ort = 0.111E-02 (trialstep = 0.141E+01)
 search vector abs. value=  0.522E-03
 bond charge predicted
       N       E                     dE             d eps       ncg     rms          rms(c)
DAV:   1    -0.917792972187E+02   -0.45375E-02   -0.11441E-01 36680   0.142E+00    0.526E-01
RMM:   2    -0.917770239579E+02    0.22733E-02   -0.99743E-03 33605   0.661E-01    0.491E-01
RMM:   3    -0.917752473316E+02    0.17766E-02   -0.65409E-03 31989   0.557E-01    0.227E-01
RMM:   4    -0.917748562197E+02    0.39111E-03   -0.18940E-03 28310   0.190E-01    0.859E-02
RMM:   5    -0.917748695100E+02   -0.13290E-04   -0.35102E-04 19215   0.997E-02
   6 F= -.98131705E+02 E0= -.98122979E+02  d E =-.260888E-03  mag=     0.0000
 trial-energy change:   -0.000261  1 .order   -0.000336   -0.000755    0.000083
 step:   1.2725(harm=  1.2725)  dis= 0.00089  next Energy=   -98.131784 (dE=-0.340E-03)
 bond charge predicted
       N       E                     dE             d eps       ncg     rms          rms(c)
DAV:   1    -0.917749412927E+02   -0.85073E-04   -0.13428E-03 38140   0.173E-01    0.591E-02
RMM:   2    -0.917748962652E+02    0.45027E-04   -0.83028E-05 16369   0.532E-02
   7 F= -.98131714E+02 E0= -.98122951E+02  d E =-.270066E-03  mag=     0.0000
 curvature:  -0.62 expect dE=-0.250E-03 dE for cont linesearch -0.930E-04
 trial: gam= 0.00000 g(F)=  0.204E-03 g(S)=  0.198E-03 ort =-0.279E-03 (trialstep = 0.138E+01)
 search vector abs. value=  0.403E-03
 reached required accuracy - stopping structural energy minimisation
