  16  16   1   0
  0.1906250E+02  0.7144452E-09  0.6828121E-09  0.6725998E-09  0.5000000E-15
  1.000000000000000E-004
  CAR 
 unknown system                          
      9.72948287    -52.55881205  301      3.71445305      1.00000000
    -52.559  0.0000E+00  0.0000E+00  0.0000E+00  0.0000E+00
    -52.351  0.0000E+00  0.0000E+00  0.0000E+00  0.0000E+00
    -52.144  0.0000E+00  0.0000E+00  0.0000E+00  0.0000E+00
    -51.936  0.0000E+00  0.0000E+00  0.0000E+00  0.0000E+00
    -51.728  0.0000E+00  0.0000E+00  0.0000E+00  0.0000E+00
    -51.521  0.0000E+00  0.0000E+00  0.0000E+00  0.0000E+00
    -51.313  0.0000E+00  0.0000E+00  0.0000E+00  0.0000E+00
    -51.105  0.0000E+00  0.0000E+00  0.0000E+00  0.0000E+00
    -50.898  0.0000E+00  0.0000E+00  0.0000E+00  0.0000E+00
    -50.690  0.0000E+00  0.0000E+00  0.0000E+00  0.0000E+00
    -50.483  0.0000E+00  0.0000E+00  0.0000E+00  0.0000E+00
    -50.275  0.0000E+00  0.0000E+00  0.0000E+00  0.0000E+00
    -50.067  0.0000E+00  0.0000E+00  0.0000E+00  0.0000E+00
    -49.860  0.0000E+00  0.0000E+00  0.0000E+00  0.0000E+00
    -49.652  0.9633E+01  0.9633E+01  0.2000E+01  0.2000E+01
    -49.444  0.9633E+01  0.9633E+01  0.4000E+01  0.4000E+01
    -49.237  0.1618E+03  0.1618E+03  0.1032E+02  0.1032E+02
    -49.029  0.5396E+02  0.5396E+02  0.2200E+02  0.2200E+02
    -48.822  0.9633E+01  0.9633E+01  0.2400E+02  0.2400E+02
    -48.614  0.0000E+00  0.0000E+00  0.2400E+02  0.2400E+02
    -48.406  0.0000E+00  0.0000E+00  0.2400E+02  0.2400E+02
    -48.199  0.0000E+00  0.0000E+00  0.2400E+02  0.2400E+02
    -47.991  0.0000E+00  0.0000E+00  0.2400E+02  0.2400E+02
    -47.783  0.0000E+00  0.0000E+00  0.2400E+02  0.2400E+02
    -47.576  0.0000E+00  0.0000E+00  0.2400E+02  0.2400E+02
    -47.368  0.0000E+00  0.0000E+00  0.2400E+02  0.2400E+02
    -47.160  0.0000E+00  0.0000E+00  0.2400E+02  0.2400E+02
    -46.953  0.0000E+00  0.0000E+00  0.2400E+02  0.2400E+02
    -46.745  0.0000E+00  0.0000E+00  0.2400E+02  0.2400E+02
    -46.538  0.0000E+00  0.0000E+00  0.2400E+02  0.2400E+02
    -46.330  0.0000E+00  0.0000E+00  0.2400E+02  0.2400E+02
    -46.122  0.0000E+00  0.0000E+00  0.2400E+02  0.2400E+02
    -45.915  0.0000E+00  0.0000E+00  0.2400E+02  0.2400E+02
    -45.707  0.0000E+00  0.0000E+00  0.2400E+02  0.2400E+02
    -45.499  0.0000E+00  0.0000E+00  0.2400E+02  0.2400E+02
    -45.292  0.0000E+00  0.0000E+00  0.2400E+02  0.2400E+02
    -45.084  0.0000E+00  0.0000E+00  0.2400E+02  0.2400E+02
    -44.877  0.0000E+00  0.0000E+00  0.2400E+02  0.2400E+02
    -44.669  0.0000E+00  0.0000E+00  0.2400E+02  0.2400E+02
    -44.461  0.0000E+00  0.0000E+00  0.2400E+02  0.2400E+02
    -44.254  0.0000E+00  0.0000E+00  0.2400E+02  0.2400E+02
    -44.046  0.0000E+00  0.0000E+00  0.2400E+02  0.2400E+02
    -43.838  0.0000E+00  0.0000E+00  0.2400E+02  0.2400E+02
    -43.631  0.0000E+00  0.0000E+00  0.2400E+02  0.2400E+02
    -43.423  0.0000E+00  0.0000E+00  0.2400E+02  0.2400E+02
    -43.216  0.0000E+00  0.0000E+00  0.2400E+02  0.2400E+02
    -43.008  0.0000E+00  0.0000E+00  0.2400E+02  0.2400E+02
    -42.800  0.0000E+00  0.0000E+00  0.2400E+02  0.2400E+02
    -42.593  0.0000E+00  0.0000E+00  0.2400E+02  0.2400E+02
    -42.385  0.0000E+00  0.0000E+00  0.2400E+02  0.2400E+02
    -42.177  0.0000E+00  0.0000E+00  0.2400E+02  0.2400E+02
    -41.970  0.0000E+00  0.0000E+00  0.2400E+02  0.2400E+02
    -41.762  0.0000E+00  0.0000E+00  0.2400E+02  0.2400E+02
    -41.555  0.0000E+00  0.0000E+00  0.2400E+02  0.2400E+02
    -41.347  0.0000E+00  0.0000E+00  0.2400E+02  0.2400E+02
    -41.139  0.0000E+00  0.0000E+00  0.2400E+02  0.2400E+02
    -40.932  0.0000E+00  0.0000E+00  0.2400E+02  0.2400E+02
    -40.724  0.0000E+00  0.0000E+00  0.2400E+02  0.2400E+02
    -40.516  0.0000E+00  0.0000E+00  0.2400E+02  0.2400E+02
    -40.309  0.0000E+00  0.0000E+00  0.2400E+02  0.2400E+02
    -40.101  0.0000E+00  0.0000E+00  0.2400E+02  0.2400E+02
    -39.894  0.0000E+00  0.0000E+00  0.2400E+02  0.2400E+02
    -39.686  0.0000E+00  0.0000E+00  0.2400E+02  0.2400E+02
    -39.478  0.0000E+00  0.0000E+00  0.2400E+02  0.2400E+02
    -39.271  0.0000E+00  0.0000E+00  0.2400E+02  0.2400E+02
    -39.063  0.0000E+00  0.0000E+00  0.2400E+02  0.2400E+02
    -38.855  0.0000E+00  0.0000E+00  0.2400E+02  0.2400E+02
    -38.648  0.0000E+00  0.0000E+00  0.2400E+02  0.2400E+02
    -38.440  0.0000E+00  0.0000E+00  0.2400E+02  0.2400E+02
    -38.233  0.0000E+00  0.0000E+00  0.2400E+02  0.2400E+02
    -38.025  0.0000E+00  0.0000E+00  0.2400E+02  0.2400E+02
    -37.817  0.0000E+00  0.0000E+00  0.2400E+02  0.2400E+02
    -37.610  0.0000E+00  0.0000E+00  0.2400E+02  0.2400E+02
    -37.402  0.0000E+00  0.0000E+00  0.2400E+02  0.2400E+02
    -37.194  0.0000E+00  0.0000E+00  0.2400E+02  0.2400E+02
    -36.987  0.0000E+00  0.0000E+00  0.2400E+02  0.2400E+02
    -36.779  0.0000E+00  0.0000E+00  0.2400E+02  0.2400E+02
    -36.571  0.0000E+00  0.0000E+00  0.2400E+02  0.2400E+02
    -36.364  0.0000E+00  0.0000E+00  0.2400E+02  0.2400E+02
    -36.156  0.0000E+00  0.0000E+00  0.2400E+02  0.2400E+02
    -35.949  0.0000E+00  0.0000E+00  0.2400E+02  0.2400E+02
    -35.741  0.0000E+00  0.0000E+00  0.2400E+02  0.2400E+02
    -35.533  0.0000E+00  0.0000E+00  0.2400E+02  0.2400E+02
    -35.326  0.0000E+00  0.0000E+00  0.2400E+02  0.2400E+02
    -35.118  0.0000E+00  0.0000E+00  0.2400E+02  0.2400E+02
    -34.910  0.0000E+00  0.0000E+00  0.2400E+02  0.2400E+02
    -34.703  0.0000E+00  0.0000E+00  0.2400E+02  0.2400E+02
    -34.495  0.0000E+00  0.0000E+00  0.2400E+02  0.2400E+02
    -34.288  0.0000E+00  0.0000E+00  0.2400E+02  0.2400E+02
    -34.080  0.0000E+00  0.0000E+00  0.2400E+02  0.2400E+02
    -33.872  0.0000E+00  0.0000E+00  0.2400E+02  0.2400E+02
    -33.665  0.0000E+00  0.0000E+00  0.2400E+02  0.2400E+02
    -33.457  0.0000E+00  0.0000E+00  0.2400E+02  0.2400E+02
    -33.249  0.0000E+00  0.0000E+00  0.2400E+02  0.2400E+02
    -33.042  0.0000E+00  0.0000E+00  0.2400E+02  0.2400E+02
    -32.834  0.0000E+00  0.0000E+00  0.2400E+02  0.2400E+02
    -32.627  0.0000E+00  0.0000E+00  0.2400E+02  0.2400E+02
    -32.419  0.0000E+00  0.0000E+00  0.2400E+02  0.2400E+02
    -32.211  0.0000E+00  0.0000E+00  0.2400E+02  0.2400E+02
    -32.004  0.0000E+00  0.0000E+00  0.2400E+02  0.2400E+02
    -31.796  0.0000E+00  0.0000E+00  0.2400E+02  0.2400E+02
    -31.588  0.0000E+00  0.0000E+00  0.2400E+02  0.2400E+02
    -31.381  0.0000E+00  0.0000E+00  0.2400E+02  0.2400E+02
    -31.173  0.0000E+00  0.0000E+00  0.2400E+02  0.2400E+02
    -30.966  0.0000E+00  0.0000E+00  0.2400E+02  0.2400E+02
    -30.758  0.0000E+00  0.0000E+00  0.2400E+02  0.2400E+02
    -30.550  0.0000E+00  0.0000E+00  0.2400E+02  0.2400E+02
    -30.343  0.0000E+00  0.0000E+00  0.2400E+02  0.2400E+02
    -30.135  0.0000E+00  0.0000E+00  0.2400E+02  0.2400E+02
    -29.927  0.0000E+00  0.0000E+00  0.2400E+02  0.2400E+02
    -29.720  0.0000E+00  0.0000E+00  0.2400E+02  0.2400E+02
    -29.512  0.0000E+00  0.0000E+00  0.2400E+02  0.2400E+02
    -29.305  0.0000E+00  0.0000E+00  0.2400E+02  0.2400E+02
    -29.097  0.0000E+00  0.0000E+00  0.2400E+02  0.2400E+02
    -28.889  0.0000E+00  0.0000E+00  0.2400E+02  0.2400E+02
    -28.682  0.0000E+00  0.0000E+00  0.2400E+02  0.2400E+02
    -28.474  0.0000E+00  0.0000E+00  0.2400E+02  0.2400E+02
    -28.266  0.0000E+00  0.0000E+00  0.2400E+02  0.2400E+02
    -28.059  0.0000E+00  0.0000E+00  0.2400E+02  0.2400E+02
    -27.851  0.0000E+00  0.0000E+00  0.2400E+02  0.2400E+02
    -27.643  0.0000E+00  0.0000E+00  0.2400E+02  0.2400E+02
    -27.436  0.0000E+00  0.0000E+00  0.2400E+02  0.2400E+02
    -27.228  0.0000E+00  0.0000E+00  0.2400E+02  0.2400E+02
    -27.021  0.0000E+00  0.0000E+00  0.2400E+02  0.2400E+02
    -26.813  0.0000E+00  0.0000E+00  0.2400E+02  0.2400E+02
    -26.605  0.0000E+00  0.0000E+00  0.2400E+02  0.2400E+02
    -26.398  0.0000E+00  0.0000E+00  0.2400E+02  0.2400E+02
    -26.190  0.0000E+00  0.0000E+00  0.2400E+02  0.2400E+02
    -25.982  0.0000E+00  0.0000E+00  0.2400E+02  0.2400E+02
    -25.775  0.0000E+00  0.0000E+00  0.2400E+02  0.2400E+02
    -25.567  0.0000E+00  0.0000E+00  0.2400E+02  0.2400E+02
    -25.360  0.0000E+00  0.0000E+00  0.2400E+02  0.2400E+02
    -25.152  0.0000E+00  0.0000E+00  0.2400E+02  0.2400E+02
    -24.944  0.0000E+00  0.0000E+00  0.2400E+02  0.2400E+02
    -24.737  0.0000E+00  0.0000E+00  0.2400E+02  0.2400E+02
    -24.529  0.0000E+00  0.0000E+00  0.2400E+02  0.2400E+02
    -24.321  0.0000E+00  0.0000E+00  0.2400E+02  0.2400E+02
    -24.114  0.0000E+00  0.0000E+00  0.2400E+02  0.2400E+02
    -23.906  0.0000E+00  0.0000E+00  0.2400E+02  0.2400E+02
    -23.699  0.0000E+00  0.0000E+00  0.2400E+02  0.2400E+02
    -23.491  0.0000E+00  0.0000E+00  0.2400E+02  0.2400E+02
    -23.283  0.0000E+00  0.0000E+00  0.2400E+02  0.2400E+02
    -23.076  0.0000E+00  0.0000E+00  0.2400E+02  0.2400E+02
    -22.868  0.0000E+00  0.0000E+00  0.2400E+02  0.2400E+02
    -22.660  0.0000E+00  0.0000E+00  0.2400E+02  0.2400E+02
    -22.453  0.0000E+00  0.0000E+00  0.2400E+02  0.2400E+02
    -22.245  0.0000E+00  0.0000E+00  0.2400E+02  0.2400E+02
    -22.038  0.0000E+00  0.0000E+00  0.2400E+02  0.2400E+02
    -21.830  0.0000E+00  0.0000E+00  0.2400E+02  0.2400E+02
    -21.622  0.0000E+00  0.0000E+00  0.2400E+02  0.2400E+02
    -21.415  0.0000E+00  0.0000E+00  0.2400E+02  0.2400E+02
    -21.207  0.0000E+00  0.0000E+00  0.2400E+02  0.2400E+02
    -20.999  0.0000E+00  0.0000E+00  0.2400E+02  0.2400E+02
    -20.792  0.0000E+00  0.0000E+00  0.2400E+02  0.2400E+02
    -20.584  0.0000E+00  0.0000E+00  0.2400E+02  0.2400E+02
    -20.377  0.0000E+00  0.0000E+00  0.2400E+02  0.2400E+02
    -20.169  0.0000E+00  0.0000E+00  0.2400E+02  0.2400E+02
    -19.961  0.0000E+00  0.0000E+00  0.2400E+02  0.2400E+02
    -19.754  0.0000E+00  0.0000E+00  0.2400E+02  0.2400E+02
    -19.546  0.0000E+00  0.0000E+00  0.2400E+02  0.2400E+02
    -19.338  0.0000E+00  0.0000E+00  0.2400E+02  0.2400E+02
    -19.131  0.0000E+00  0.0000E+00  0.2400E+02  0.2400E+02
    -18.923  0.0000E+00  0.0000E+00  0.2400E+02  0.2400E+02
    -18.716  0.0000E+00  0.0000E+00  0.2400E+02  0.2400E+02
    -18.508  0.0000E+00  0.0000E+00  0.2400E+02  0.2400E+02
    -18.300  0.0000E+00  0.0000E+00  0.2400E+02  0.2400E+02
    -18.093  0.0000E+00  0.0000E+00  0.2400E+02  0.2400E+02
    -17.885  0.0000E+00  0.0000E+00  0.2400E+02  0.2400E+02
    -17.677  0.0000E+00  0.0000E+00  0.2400E+02  0.2400E+02
    -17.470  0.0000E+00  0.0000E+00  0.2400E+02  0.2400E+02
    -17.262  0.0000E+00  0.0000E+00  0.2400E+02  0.2400E+02
    -17.054  0.0000E+00  0.0000E+00  0.2400E+02  0.2400E+02
    -16.847  0.0000E+00  0.0000E+00  0.2400E+02  0.2400E+02
    -16.639  0.0000E+00  0.0000E+00  0.2400E+02  0.2400E+02
    -16.432  0.0000E+00  0.0000E+00  0.2400E+02  0.2400E+02
    -16.224  0.0000E+00  0.0000E+00  0.2400E+02  0.2400E+02
    -16.016  0.0000E+00  0.0000E+00  0.2400E+02  0.2400E+02
    -15.809  0.0000E+00  0.0000E+00  0.2400E+02  0.2400E+02
    -15.601  0.0000E+00  0.0000E+00  0.2400E+02  0.2400E+02
    -15.393  0.0000E+00  0.0000E+00  0.2400E+02  0.2400E+02
    -15.186  0.0000E+00  0.0000E+00  0.2400E+02  0.2400E+02
    -14.978  0.0000E+00  0.0000E+00  0.2400E+02  0.2400E+02
    -14.771  0.0000E+00  0.0000E+00  0.2400E+02  0.2400E+02
    -14.563  0.0000E+00  0.0000E+00  0.2400E+02  0.2400E+02
    -14.355  0.0000E+00  0.0000E+00  0.2400E+02  0.2400E+02
    -14.148  0.0000E+00  0.0000E+00  0.2400E+02  0.2400E+02
    -13.940  0.0000E+00  0.0000E+00  0.2400E+02  0.2400E+02
    -13.732  0.0000E+00  0.0000E+00  0.2400E+02  0.2400E+02
    -13.525  0.0000E+00  0.0000E+00  0.2400E+02  0.2400E+02
    -13.317  0.0000E+00  0.0000E+00  0.2400E+02  0.2400E+02
    -13.110  0.0000E+00  0.0000E+00  0.2400E+02  0.2400E+02
    -12.902  0.0000E+00  0.0000E+00  0.2400E+02  0.2400E+02
    -12.694  0.0000E+00  0.0000E+00  0.2400E+02  0.2400E+02
    -12.487  0.0000E+00  0.0000E+00  0.2400E+02  0.2400E+02
    -12.279  0.0000E+00  0.0000E+00  0.2400E+02  0.2400E+02
    -12.071  0.0000E+00  0.0000E+00  0.2400E+02  0.2400E+02
    -11.864  0.0000E+00  0.0000E+00  0.2400E+02  0.2400E+02
    -11.656  0.0000E+00  0.0000E+00  0.2400E+02  0.2400E+02
    -11.449  0.0000E+00  0.0000E+00  0.2400E+02  0.2400E+02
    -11.241  0.0000E+00  0.0000E+00  0.2400E+02  0.2400E+02
    -11.033  0.1310E+00  0.1310E+00  0.2400E+02  0.2400E+02
    -10.826  0.2547E+01  0.2547E+01  0.2422E+02  0.2422E+02
    -10.618  0.2728E+01  0.2728E+01  0.2470E+02  0.2470E+02
    -10.410  0.3639E+01  0.3639E+01  0.2519E+02  0.2519E+02
    -10.203  0.4635E+01  0.4635E+01  0.2593E+02  0.2593E+02
     -9.995  0.5655E+01  0.5655E+01  0.2686E+02  0.2686E+02
     -9.788  0.5911E+01  0.5911E+01  0.2747E+02  0.2747E+02
     -9.580  0.6593E+01  0.6593E+01  0.2837E+02  0.2837E+02
     -9.372  0.1360E+02  0.1360E+02  0.2986E+02  0.2986E+02
     -9.165  0.1721E+02  0.1721E+02  0.3188E+02  0.3188E+02
     -8.957  0.1966E+00  0.1966E+00  0.3200E+02  0.3200E+02
     -8.749  0.0000E+00  0.0000E+00  0.3200E+02  0.3200E+02
     -8.542  0.0000E+00  0.0000E+00  0.3200E+02  0.3200E+02
     -8.334  0.0000E+00  0.0000E+00  0.3200E+02  0.3200E+02
     -8.126  0.0000E+00  0.0000E+00  0.3200E+02  0.3200E+02
     -7.919  0.0000E+00  0.0000E+00  0.3200E+02  0.3200E+02
     -7.711  0.0000E+00  0.0000E+00  0.3200E+02  0.3200E+02
     -7.504  0.0000E+00  0.0000E+00  0.3200E+02  0.3200E+02
     -7.296  0.0000E+00  0.0000E+00  0.3200E+02  0.3200E+02
     -7.088  0.0000E+00  0.0000E+00  0.3200E+02  0.3200E+02
     -6.881  0.0000E+00  0.0000E+00  0.3200E+02  0.3200E+02
     -6.673  0.0000E+00  0.0000E+00  0.3200E+02  0.3200E+02
     -6.465  0.0000E+00  0.0000E+00  0.3200E+02  0.3200E+02
     -6.258  0.0000E+00  0.0000E+00  0.3200E+02  0.3200E+02
     -6.050  0.0000E+00  0.0000E+00  0.3200E+02  0.3200E+02
     -5.843  0.0000E+00  0.0000E+00  0.3200E+02  0.3200E+02
     -5.635  0.0000E+00  0.0000E+00  0.3200E+02  0.3200E+02
     -5.427  0.0000E+00  0.0000E+00  0.3200E+02  0.3200E+02
     -5.220  0.0000E+00  0.0000E+00  0.3200E+02  0.3200E+02
     -5.012  0.0000E+00  0.0000E+00  0.3200E+02  0.3200E+02
     -4.804  0.0000E+00  0.0000E+00  0.3200E+02  0.3200E+02
     -4.597  0.0000E+00  0.0000E+00  0.3200E+02  0.3200E+02
     -4.389  0.0000E+00  0.0000E+00  0.3200E+02  0.3200E+02
     -4.182  0.0000E+00  0.0000E+00  0.3200E+02  0.3200E+02
     -3.974  0.0000E+00  0.0000E+00  0.3200E+02  0.3200E+02
     -3.766  0.0000E+00  0.0000E+00  0.3200E+02  0.3200E+02
     -3.559  0.0000E+00  0.0000E+00  0.3200E+02  0.3200E+02
     -3.351  0.0000E+00  0.0000E+00  0.3200E+02  0.3200E+02
     -3.143  0.0000E+00  0.0000E+00  0.3200E+02  0.3200E+02
     -2.936  0.1894E+00  0.1894E+00  0.3200E+02  0.3200E+02
     -2.728  0.5684E+00  0.5684E+00  0.3208E+02  0.3208E+02
     -2.521  0.8132E+00  0.8132E+00  0.3222E+02  0.3222E+02
     -2.313  0.1835E+01  0.1835E+01  0.3244E+02  0.3244E+02
     -2.105  0.6675E+01  0.6675E+01  0.3331E+02  0.3331E+02
     -1.898  0.7332E+01  0.7332E+01  0.3451E+02  0.3451E+02
     -1.690  0.4877E+01  0.4877E+01  0.3559E+02  0.3559E+02
     -1.482  0.5685E+01  0.5685E+01  0.3646E+02  0.3646E+02
     -1.275  0.5329E+01  0.5329E+01  0.3745E+02  0.3745E+02
     -1.067  0.7175E+01  0.7175E+01  0.3851E+02  0.3851E+02
     -0.860  0.9949E+01  0.9949E+01  0.3978E+02  0.3978E+02
     -0.652  0.1145E+02  0.1145E+02  0.4145E+02  0.4145E+02
     -0.444  0.1267E+02  0.1267E+02  0.4319E+02  0.4319E+02
     -0.237  0.6195E+01  0.6195E+01  0.4450E+02  0.4450E+02
     -0.029  0.1691E+02  0.1691E+02  0.4628E+02  0.4628E+02
      0.179  0.1742E+02  0.1742E+02  0.4888E+02  0.4888E+02
      0.386  0.4435E+01  0.4435E+01  0.5010E+02  0.5010E+02
      0.594  0.1032E+02  0.1032E+02  0.5131E+02  0.5131E+02
      0.801  0.5748E+01  0.5748E+01  0.5230E+02  0.5230E+02
      1.009  0.1369E+02  0.1369E+02  0.5400E+02  0.5400E+02
      1.217  0.2627E+02  0.2627E+02  0.5710E+02  0.5710E+02
      1.424  0.8437E+01  0.8437E+01  0.5893E+02  0.5893E+02
      1.632  0.1090E+02  0.1090E+02  0.6050E+02  0.6050E+02
      1.840  0.8163E+01  0.8163E+01  0.6187E+02  0.6187E+02
      2.047  0.8513E+01  0.8513E+01  0.6322E+02  0.6322E+02
      2.255  0.1191E+02  0.1191E+02  0.6492E+02  0.6492E+02
      2.463  0.1265E+02  0.1265E+02  0.6700E+02  0.6700E+02
      2.670  0.1581E+02  0.1581E+02  0.6883E+02  0.6883E+02
      2.878  0.1943E+02  0.1943E+02  0.7121E+02  0.7121E+02
      3.085  0.1845E+02  0.1845E+02  0.7399E+02  0.7399E+02
      3.293  0.1524E+02  0.1524E+02  0.7665E+02  0.7665E+02
      3.501  0.1188E+02  0.1188E+02  0.7860E+02  0.7860E+02
      3.708  0.1080E+02  0.1080E+02  0.7995E+02  0.7995E+02
      3.916  0.2094E+02  0.2094E+02  0.8259E+02  0.8259E+02
      4.124  0.1176E+02  0.1176E+02  0.8453E+02  0.8453E+02
      4.331  0.7706E+01  0.7706E+01  0.8560E+02  0.8560E+02
      4.539  0.7535E+01  0.7535E+01  0.8671E+02  0.8671E+02
      4.746  0.1236E+02  0.1236E+02  0.8814E+02  0.8814E+02
      4.954  0.1465E+02  0.1465E+02  0.9061E+02  0.9061E+02
      5.162  0.4142E+01  0.4142E+01  0.9173E+02  0.9173E+02
      5.369  0.2597E+01  0.2598E+01  0.9224E+02  0.9224E+02
      5.577  0.6516E+01  0.6883E+01  0.9305E+02  0.9305E+02
      5.785  0.8422E+01  0.8513E+01  0.9459E+02  0.9459E+02
      5.992  0.3076E+01  0.3066E+01  0.9543E+02  0.9544E+02
      6.200  0.1419E+01  0.1617E+01  0.9583E+02  0.9585E+02
      6.407  0.3656E+00  0.2730E+00  0.9597E+02  0.9598E+02
      6.615  0.2709E-01  0.1578E-02  0.9600E+02  0.9600E+02
      6.823  0.1667E-02  0.0000E+00  0.9600E+02  0.9600E+02
      7.030  0.0000E+00  0.0000E+00  0.9600E+02  0.9600E+02
      7.238  0.0000E+00  0.0000E+00  0.9600E+02  0.9600E+02
      7.446  0.0000E+00  0.0000E+00  0.9600E+02  0.9600E+02
      7.653  0.0000E+00  0.0000E+00  0.9600E+02  0.9600E+02
      7.861  0.0000E+00  0.0000E+00  0.9600E+02  0.9600E+02
      8.068  0.0000E+00  0.0000E+00  0.9600E+02  0.9600E+02
      8.276  0.0000E+00  0.0000E+00  0.9600E+02  0.9600E+02
      8.484  0.0000E+00  0.0000E+00  0.9600E+02  0.9600E+02
      8.691  0.0000E+00  0.0000E+00  0.9600E+02  0.9600E+02
      8.899  0.0000E+00  0.0000E+00  0.9600E+02  0.9600E+02
      9.107  0.0000E+00  0.0000E+00  0.9600E+02  0.9600E+02
      9.314  0.0000E+00  0.0000E+00  0.9600E+02  0.9600E+02
      9.522  0.0000E+00  0.0000E+00  0.9600E+02  0.9600E+02
      9.729  0.0000E+00  0.0000E+00  0.9600E+02  0.9600E+02
      9.72948287    -52.55881205  301      3.71445305      1.00000000
    -52.559  0.0000E+00  0.0000E+00  0.0000E+00  0.0000E+00  0.0000E+00  0.0000E+00  0.0000E+00  0.0000E+00  0.0000E+00  0.0000E+00  0.0000E+00  0.0000E+00  0.0000E+00  0.0000E+00  0.0000E+00  0.0000E+00  0.0000E+00  0.0000E+00
    -52.351  0.0000E+00  0.0000E+00  0.0000E+00  0.0000E+00  0.0000E+00  0.0000E+00  0.0000E+00  0.0000E+00  0.0000E+00  0.0000E+00  0.0000E+00  0.0000E+00  0.0000E+00  0.0000E+00  0.0000E+00  0.0000E+00  0.0000E+00  0.0000E+00
    -52.144  0.0000E+00  0.0000E+00  0.0000E+00  0.0000E+00  0.0000E+00  0.0000E+00  0.0000E+00  0.0000E+00  0.0000E+00  0.0000E+00  0.0000E+00  0.0000E+00  0.0000E+00  0.0000E+00  0.0000E+00  0.0000E+00  0.0000E+00  0.0000E+00
    -51.936  0.0000E+00  0.0000E+00  0.0000E+00  0.0000E+00  0.0000E+00  0.0000E+00  0.0000E+00  0.0000E+00  0.0000E+00  0.0000E+00  0.0000E+00  0.0000E+00  0.0000E+00  0.0000E+00  0.0000E+00  0.0000E+00  0.0000E+00  0.0000E+00
    -51.728  0.0000E+00  0.0000E+00  0.0000E+00  0.0000E+00  0.0000E+00  0.0000E+00  0.0000E+00  0.0000E+00  0.0000E+00  0.0000E+00  0.0000E+00  0.0000E+00  0.0000E+00  0.0000E+00  0.0000E+00  0.0000E+00  0.0000E+00  0.0000E+00
    -51.521  0.0000E+00  0.0000E+00  0.0000E+00  0.0000E+00  0.0000E+00  0.0000E+00  0.0000E+00  0.0000E+00  0.0000E+00  0.0000E+00  0.0000E+00  0.0000E+00  0.0000E+00  0.0000E+00  0.0000E+00  0.0000E+00  0.0000E+00  0.0000E+00
    -51.313  0.0000E+00  0.0000E+00  0.0000E+00  0.0000E+00  0.0000E+00  0.0000E+00  0.0000E+00  0.0000E+00  0.0000E+00  0.0000E+00  0.0000E+00  0.0000E+00  0.0000E+00  0.0000E+00  0.0000E+00  0.0000E+00  0.0000E+00  0.0000E+00
    -51.105  0.0000E+00  0.0000E+00  0.0000E+00  0.0000E+00  0.0000E+00  0.0000E+00  0.0000E+00  0.0000E+00  0.0000E+00  0.0000E+00  0.0000E+00  0.0000E+00  0.0000E+00  0.0000E+00  0.0000E+00  0.0000E+00  0.0000E+00  0.0000E+00
    -50.898  0.0000E+00  0.0000E+00  0.0000E+00  0.0000E+00  0.0000E+00  0.0000E+00  0.0000E+00  0.0000E+00  0.0000E+00  0.0000E+00  0.0000E+00  0.0000E+00  0.0000E+00  0.0000E+00  0.0000E+00  0.0000E+00  0.0000E+00  0.0000E+00
    -50.690  0.0000E+00  0.0000E+00  0.0000E+00  0.0000E+00  0.0000E+00  0.0000E+00  0.0000E+00  0.0000E+00  0.0000E+00  0.0000E+00  0.0000E+00  0.0000E+00  0.0000E+00  0.0000E+00  0.0000E+00  0.0000E+00  0.0000E+00  0.0000E+00
    -50.483  0.0000E+00  0.0000E+00  0.0000E+00  0.0000E+00  0.0000E+00  0.0000E+00  0.0000E+00  0.0000E+00  0.0000E+00  0.0000E+00  0.0000E+00  0.0000E+00  0.0000E+00  0.0000E+00  0.0000E+00  0.0000E+00  0.0000E+00  0.0000E+00
    -50.275  0.0000E+00  0.0000E+00  0.0000E+00  0.0000E+00  0.0000E+00  0.0000E+00  0.0000E+00  0.0000E+00  0.0000E+00  0.0000E+00  0.0000E+00  0.0000E+00  0.0000E+00  0.0000E+00  0.0000E+00  0.0000E+00  0.0000E+00  0.0000E+00
    -50.067  0.0000E+00  0.0000E+00  0.0000E+00  0.0000E+00  0.0000E+00  0.0000E+00  0.0000E+00  0.0000E+00  0.0000E+00  0.0000E+00  0.0000E+00  0.0000E+00  0.0000E+00  0.0000E+00  0.0000E+00  0.0000E+00  0.0000E+00  0.0000E+00
    -49.860  0.0000E+00  0.0000E+00  0.0000E+00  0.0000E+00  0.0000E+00  0.0000E+00  0.0000E+00  0.0000E+00  0.0000E+00  0.0000E+00  0.0000E+00  0.0000E+00  0.0000E+00  0.0000E+00  0.0000E+00  0.0000E+00  0.0000E+00  0.0000E+00
    -49.652  0.2495E-03  0.2520E-03  0.6325E-01  0.4357E+00  0.2119E-01  0.3501E-02  0.4429E+00  0.5531E-01  0.4646E-05  0.3566E-05  0.1690E-06  0.6521E-07  0.1111E-03  0.1371E-03  0.5375E-04  0.1821E-05  0.2169E-03  0.2581E-03
    -49.444  0.1294E-03  0.1366E-03  0.6091E+00  0.2063E-01  0.1634E-02  0.2641E-01  0.2488E-01  0.5500E+00  0.1921E-05  0.3304E-05  0.5268E-07  0.2091E-06  0.7958E-04  0.5855E-04  0.3414E-05  0.5271E-04  0.4146E-03  0.3848E-03
    -49.237  0.3002E-03  0.3055E-03  0.2965E+01  0.3391E+01  0.2403E+02  0.1769E+02  0.4376E+01  0.3853E+01  0.1239E-04  0.1616E-04  0.2783E-04  0.4346E-04  0.7473E-04  0.7622E-04  0.3199E-04  0.4660E-04  0.8217E-04  0.7840E-04
    -49.029  0.9098E-04  0.8763E-04  0.1652E+01  0.1930E+01  0.2060E+01  0.3075E+01  0.1985E+01  0.1652E+01  0.3475E-04  0.3497E-04  0.1969E-04  0.2117E-04  0.3287E-04  0.3144E-04  0.2555E-04  0.1885E-04  0.5621E-04  0.4962E-04
    -48.822  0.2021E-04  0.1989E-04  0.5864E+00  0.6012E+00  0.1978E-01  0.2493E-01  0.4512E+00  0.6541E+00  0.8282E-05  0.6983E-05  0.1734E-06  0.3317E-06  0.9115E-05  0.6990E-05  0.1229E-05  0.4849E-05  0.5196E-04  0.4913E-04
    -48.614  0.0000E+00  0.0000E+00  0.0000E+00  0.0000E+00  0.0000E+00  0.0000E+00  0.0000E+00  0.0000E+00  0.0000E+00  0.0000E+00  0.0000E+00  0.0000E+00  0.0000E+00  0.0000E+00  0.0000E+00  0.0000E+00  0.0000E+00  0.0000E+00
    -48.406  0.0000E+00  0.0000E+00  0.0000E+00  0.0000E+00  0.0000E+00  0.0000E+00  0.0000E+00  0.0000E+00  0.0000E+00  0.0000E+00  0.0000E+00  0.0000E+00  0.0000E+00  0.0000E+00  0.0000E+00  0.0000E+00  0.0000E+00  0.0000E+00
    -48.199  0.0000E+00  0.0000E+00  0.0000E+00  0.0000E+00  0.0000E+00  0.0000E+00  0.0000E+00  0.0000E+00  0.0000E+00  0.0000E+00  0.0000E+00  0.0000E+00  0.0000E+00  0.0000E+00  0.0000E+00  0.0000E+00  0.0000E+00  0.0000E+00
    -47.991  0.0000E+00  0.0000E+00  0.0000E+00  0.0000E+00  0.0000E+00  0.0000E+00  0.0000E+00  0.0000E+00  0.0000E+00  0.0000E+00  0.0000E+00  0.0000E+00  0.0000E+00  0.0000E+00  0.0000E+00  0.0000E+00  0.0000E+00  0.0000E+00
    -47.783  0.0000E+00  0.0000E+00  0.0000E+00  0.0000E+00  0.0000E+00  0.0000E+00  0.0000E+00  0.0000E+00  0.0000E+00  0.0000E+00  0.0000E+00  0.0000E+00  0.0000E+00  0.0000E+00  0.0000E+00  0.0000E+00  0.0000E+00  0.0000E+00
    -47.576  0.0000E+00  0.0000E+00  0.0000E+00  0.0000E+00  0.0000E+00  0.0000E+00  0.0000E+00  0.0000E+00  0.0000E+00  0.0000E+00  0.0000E+00  0.0000E+00  0.0000E+00  0.0000E+00  0.0000E+00  0.0000E+00  0.0000E+00  0.0000E+00
    -47.368  0.0000E+00  0.0000E+00  0.0000E+00  0.0000E+00  0.0000E+00  0.0000E+00  0.0000E+00  0.0000E+00  0.0000E+00  0.0000E+00  0.0000E+00  0.0000E+00  0.0000E+00  0.0000E+00  0.0000E+00  0.0000E+00  0.0000E+00  0.0000E+00
    -47.160  0.0000E+00  0.0000E+00  0.0000E+00  0.0000E+00  0.0000E+00  0.0000E+00  0.0000E+00  0.0000E+00  0.0000E+00  0.0000E+00  0.0000E+00  0.0000E+00  0.0000E+00  0.0000E+00  0.0000E+00  0.0000E+00  0.0000E+00  0.0000E+00
    -46.953  0.0000E+00  0.0000E+00  0.0000E+00  0.0000E+00  0.0000E+00  0.0000E+00  0.0000E+00  0.0000E+00  0.0000E+00  0.0000E+00  0.0000E+00  0.0000E+00  0.0000E+00  0.0000E+00  0.0000E+00  0.0000E+00  0.0000E+00  0.0000E+00
    -46.745  0.0000E+00  0.0000E+00  0.0000E+00  0.0000E+00  0.0000E+00  0.0000E+00  0.0000E+00  0.0000E+00  0.0000E+00  0.0000E+00  0.0000E+00  0.0000E+00  0.0000E+00  0.0000E+00  0.0000E+00  0.0000E+00  0.0000E+00  0.0000E+00
    -46.538  0.0000E+00  0.0000E+00  0.0000E+00  0.0000E+00  0.0000E+00  0.0000E+00  0.0000E+00  0.0000E+00  0.0000E+00  0.0000E+00  0.0000E+00  0.0000E+00  0.0000E+00  0.0000E+00  0.0000E+00  0.0000E+00  0.0000E+00  0.0000E+00
    -46.330  0.0000E+00  0.0000E+00  0.0000E+00  0.0000E+00  0.0000E+00  0.0000E+00  0.0000E+00  0.0000E+00  0.0000E+00  0.0000E+00  0.0000E+00  0.0000E+00  0.0000E+00  0.0000E+00  0.0000E+00  0.0000E+00  0.0000E+00  0.0000E+00
    -46.122  0.0000E+00  0.0000E+00  0.0000E+00  0.0000E+00  0.0000E+00  0.0000E+00  0.0000E+00  0.0000E+00  0.0000E+00  0.0000E+00  0.0000E+00  0.0000E+00  0.0000E+00  0.0000E+00  0.0000E+00  0.0000E+00  0.0000E+00  0.0000E+00
    -45.915  0.0000E+00  0.0000E+00  0.0000E+00  0.0000E+00  0.0000E+00  0.0000E+00  0.0000E+00  0.0000E+00  0.0000E+00  0.0000E+00  0.0000E+00  0.0000E+00  0.0000E+00  0.0000E+00  0.0000E+00  0.0000E+00  0.0000E+00  0.0000E+00
    -45.707  0.0000E+00  0.0000E+00  0.0000E+00  0.0000E+00  0.0000E+00  0.0000E+00  0.0000E+00  0.0000E+00  0.0000E+00  0.0000E+00  0.0000E+00  0.0000E+00  0.0000E+00  0.0000E+00  0.0000E+00  0.0000E+00  0.0000E+00  0.0000E+00
    -45.499  0.0000E+00  0.0000E+00  0.0000E+00  0.0000E+00  0.0000E+00  0.0000E+00  0.0000E+00  0.0000E+00  0.0000E+00  0.0000E+00  0.0000E+00  0.0000E+00  0.0000E+00  0.0000E+00  0.0000E+00  0.0000E+00  0.0000E+00  0.0000E+00
    -45.292  0.0000E+00  0.0000E+00  0.0000E+00  0.0000E+00  0.0000E+00  0.0000E+00  0.0000E+00  0.0000E+00  0.0000E+00  0.0000E+00  0.0000E+00  0.0000E+00  0.0000E+00  0.0000E+00  0.0000E+00  0.0000E+00  0.0000E+00  0.0000E+00
    -45.084  0.0000E+00  0.0000E+00  0.0000E+00  0.0000E+00  0.0000E+00  0.0000E+00  0.0000E+00  0.0000E+00  0.0000E+00  0.0000E+00  0.0000E+00  0.0000E+00  0.0000E+00  0.0000E+00  0.0000E+00  0.0000E+00  0.0000E+00  0.0000E+00
    -44.877  0.0000E+00  0.0000E+00  0.0000E+00  0.0000E+00  0.0000E+00  0.0000E+00  0.0000E+00  0.0000E+00  0.0000E+00  0.0000E+00  0.0000E+00  0.0000E+00  0.0000E+00  0.0000E+00  0.0000E+00  0.0000E+00  0.0000E+00  0.0000E+00
    -44.669  0.0000E+00  0.0000E+00  0.0000E+00  0.0000E+00  0.0000E+00  0.0000E+00  0.0000E+00  0.0000E+00  0.0000E+00  0.0000E+00  0.0000E+00  0.0000E+00  0.0000E+00  0.0000E+00  0.0000E+00  0.0000E+00  0.0000E+00  0.0000E+00
    -44.461  0.0000E+00  0.0000E+00  0.0000E+00  0.0000E+00  0.0000E+00  0.0000E+00  0.0000E+00  0.0000E+00  0.0000E+00  0.0000E+00  0.0000E+00  0.0000E+00  0.0000E+00  0.0000E+00  0.0000E+00  0.0000E+00  0.0000E+00  0.0000E+00
    -44.254  0.0000E+00  0.0000E+00  0.0000E+00  0.0000E+00  0.0000E+00  0.0000E+00  0.0000E+00  0.0000E+00  0.0000E+00  0.0000E+00  0.0000E+00  0.0000E+00  0.0000E+00  0.0000E+00  0.0000E+00  0.0000E+00  0.0000E+00  0.0000E+00
    -44.046  0.0000E+00  0.0000E+00  0.0000E+00  0.0000E+00  0.0000E+00  0.0000E+00  0.0000E+00  0.0000E+00  0.0000E+00  0.0000E+00  0.0000E+00  0.0000E+00  0.0000E+00  0.0000E+00  0.0000E+00  0.0000E+00  0.0000E+00  0.0000E+00
    -43.838  0.0000E+00  0.0000E+00  0.0000E+00  0.0000E+00  0.0000E+00  0.0000E+00  0.0000E+00  0.0000E+00  0.0000E+00  0.0000E+00  0.0000E+00  0.0000E+00  0.0000E+00  0.0000E+00  0.0000E+00  0.0000E+00  0.0000E+00  0.0000E+00
    -43.631  0.0000E+00  0.0000E+00  0.0000E+00  0.0000E+00  0.0000E+00  0.0000E+00  0.0000E+00  0.0000E+00  0.0000E+00  0.0000E+00  0.0000E+00  0.0000E+00  0.0000E+00  0.0000E+00  0.0000E+00  0.0000E+00  0.0000E+00  0.0000E+00
    -43.423  0.0000E+00  0.0000E+00  0.0000E+00  0.0000E+00  0.0000E+00  0.0000E+00  0.0000E+00  0.0000E+00  0.0000E+00  0.0000E+00  0.0000E+00  0.0000E+00  0.0000E+00  0.0000E+00  0.0000E+00  0.0000E+00  0.0000E+00  0.0000E+00
    -43.216  0.0000E+00  0.0000E+00  0.0000E+00  0.0000E+00  0.0000E+00  0.0000E+00  0.0000E+00  0.0000E+00  0.0000E+00  0.0000E+00  0.0000E+00  0.0000E+00  0.0000E+00  0.0000E+00  0.0000E+00  0.0000E+00  0.0000E+00  0.0000E+00
    -43.008  0.0000E+00  0.0000E+00  0.0000E+00  0.0000E+00  0.0000E+00  0.0000E+00  0.0000E+00  0.0000E+00  0.0000E+00  0.0000E+00  0.0000E+00  0.0000E+00  0.0000E+00  0.0000E+00  0.0000E+00  0.0000E+00  0.0000E+00  0.0000E+00
    -42.800  0.0000E+00  0.0000E+00  0.0000E+00  0.0000E+00  0.0000E+00  0.0000E+00  0.0000E+00  0.0000E+00  0.0000E+00  0.0000E+00  0.0000E+00  0.0000E+00  0.0000E+00  0.0000E+00  0.0000E+00  0.0000E+00  0.0000E+00  0.0000E+00
    -42.593  0.0000E+00  0.0000E+00  0.0000E+00  0.0000E+00  0.0000E+00  0.0000E+00  0.0000E+00  0.0000E+00  0.0000E+00  0.0000E+00  0.0000E+00  0.0000E+00  0.0000E+00  0.0000E+00  0.0000E+00  0.0000E+00  0.0000E+00  0.0000E+00
    -42.385  0.0000E+00  0.0000E+00  0.0000E+00  0.0000E+00  0.0000E+00  0.0000E+00  0.0000E+00  0.0000E+00  0.0000E+00  0.0000E+00  0.0000E+00  0.0000E+00  0.0000E+00  0.0000E+00  0.0000E+00  0.0000E+00  0.0000E+00  0.0000E+00
    -42.177  0.0000E+00  0.0000E+00  0.0000E+00  0.0000E+00  0.0000E+00  0.0000E+00  0.0000E+00  0.0000E+00  0.0000E+00  0.0000E+00  0.0000E+00  0.0000E+00  0.0000E+00  0.0000E+00  0.0000E+00  0.0000E+00  0.0000E+00  0.0000E+00