  16  16   1   0
  0.1906250E+02  0.7129142E-09  0.6834554E-09  0.6739009E-09  0.5000000E-15
  1.000000000000000E-004
  CAR 
 unknown system                          
      9.25670810    -52.52096207  301      3.71346951      1.00000000
    -52.521  0.0000E+00  0.0000E+00  0.0000E+00  0.0000E+00
    -52.315  0.0000E+00  0.0000E+00  0.0000E+00  0.0000E+00
    -52.109  0.0000E+00  0.0000E+00  0.0000E+00  0.0000E+00
    -51.903  0.0000E+00  0.0000E+00  0.0000E+00  0.0000E+00
    -51.697  0.0000E+00  0.0000E+00  0.0000E+00  0.0000E+00
    -51.491  0.0000E+00  0.0000E+00  0.0000E+00  0.0000E+00
    -51.285  0.0000E+00  0.0000E+00  0.0000E+00  0.0000E+00
    -51.079  0.0000E+00  0.0000E+00  0.0000E+00  0.0000E+00
    -50.874  0.0000E+00  0.0000E+00  0.0000E+00  0.0000E+00
    -50.668  0.0000E+00  0.0000E+00  0.0000E+00  0.0000E+00
    -50.462  0.0000E+00  0.0000E+00  0.0000E+00  0.0000E+00
    -50.256  0.0000E+00  0.0000E+00  0.0000E+00  0.0000E+00
    -50.050  0.0000E+00  0.0000E+00  0.0000E+00  0.0000E+00
    -49.844  0.2106E-05  0.2106E-05  0.4336E-06  0.4336E-06
    -49.638  0.1607E+00  0.1607E+00  0.3309E-01  0.3309E-01
    -49.432  0.3806E-01  0.3806E-01  0.4093E-01  0.4093E-01
    -49.226  0.3424E+00  0.3424E+00  0.1114E+00  0.1114E+00
    -49.020  0.5646E+00  0.5646E+00  0.2277E+00  0.2277E+00
    -48.814  0.7145E-01  0.7145E-01  0.2424E+00  0.2424E+00
    -48.608  0.4563E-07  0.4563E-07  0.2424E+00  0.2424E+00
    -48.402  0.0000E+00  0.0000E+00  0.2424E+00  0.2424E+00
    -48.197  0.0000E+00  0.0000E+00  0.2424E+00  0.2424E+00
    -47.991  0.0000E+00  0.0000E+00  0.2424E+00  0.2424E+00
    -47.785  0.0000E+00  0.0000E+00  0.2424E+00  0.2424E+00
    -47.579  0.0000E+00  0.0000E+00  0.2424E+00  0.2424E+00
    -47.373  0.0000E+00  0.0000E+00  0.2424E+00  0.2424E+00
    -47.167  0.0000E+00  0.0000E+00  0.2424E+00  0.2424E+00
    -46.961  0.0000E+00  0.0000E+00  0.2424E+00  0.2424E+00
    -46.755  0.0000E+00  0.0000E+00  0.2424E+00  0.2424E+00
    -46.549  0.0000E+00  0.0000E+00  0.2424E+00  0.2424E+00
    -46.343  0.0000E+00  0.0000E+00  0.2424E+00  0.2424E+00
    -46.137  0.0000E+00  0.0000E+00  0.2424E+00  0.2424E+00
    -45.931  0.0000E+00  0.0000E+00  0.2424E+00  0.2424E+00
    -45.725  0.0000E+00  0.0000E+00  0.2424E+00  0.2424E+00
    -45.519  0.0000E+00  0.0000E+00  0.2424E+00  0.2424E+00
    -45.314  0.0000E+00  0.0000E+00  0.2424E+00  0.2424E+00
    -45.108  0.0000E+00  0.0000E+00  0.2424E+00  0.2424E+00
    -44.902  0.0000E+00  0.0000E+00  0.2424E+00  0.2424E+00
    -44.696  0.0000E+00  0.0000E+00  0.2424E+00  0.2424E+00
    -44.490  0.0000E+00  0.0000E+00  0.2424E+00  0.2424E+00
    -44.284  0.0000E+00  0.0000E+00  0.2424E+00  0.2424E+00
    -44.078  0.0000E+00  0.0000E+00  0.2424E+00  0.2424E+00
    -43.872  0.0000E+00  0.0000E+00  0.2424E+00  0.2424E+00
    -43.666  0.0000E+00  0.0000E+00  0.2424E+00  0.2424E+00
    -43.460  0.0000E+00  0.0000E+00  0.2424E+00  0.2424E+00
    -43.254  0.0000E+00  0.0000E+00  0.2424E+00  0.2424E+00
    -43.048  0.0000E+00  0.0000E+00  0.2424E+00  0.2424E+00
    -42.842  0.0000E+00  0.0000E+00  0.2424E+00  0.2424E+00
    -42.637  0.0000E+00  0.0000E+00  0.2424E+00  0.2424E+00
    -42.431  0.0000E+00  0.0000E+00  0.2424E+00  0.2424E+00
    -42.225  0.0000E+00  0.0000E+00  0.2424E+00  0.2424E+00
    -42.019  0.0000E+00  0.0000E+00  0.2424E+00  0.2424E+00
    -41.813  0.0000E+00  0.0000E+00  0.2424E+00  0.2424E+00
    -41.607  0.0000E+00  0.0000E+00  0.2424E+00  0.2424E+00
    -41.401  0.0000E+00  0.0000E+00  0.2424E+00  0.2424E+00
    -41.195  0.0000E+00  0.0000E+00  0.2424E+00  0.2424E+00
    -40.989  0.0000E+00  0.0000E+00  0.2424E+00  0.2424E+00
    -40.783  0.0000E+00  0.0000E+00  0.2424E+00  0.2424E+00
    -40.577  0.0000E+00  0.0000E+00  0.2424E+00  0.2424E+00
    -40.371  0.0000E+00  0.0000E+00  0.2424E+00  0.2424E+00
    -40.165  0.0000E+00  0.0000E+00  0.2424E+00  0.2424E+00
    -39.960  0.0000E+00  0.0000E+00  0.2424E+00  0.2424E+00
    -39.754  0.0000E+00  0.0000E+00  0.2424E+00  0.2424E+00
    -39.548  0.0000E+00  0.0000E+00  0.2424E+00  0.2424E+00
    -39.342  0.0000E+00  0.0000E+00  0.2424E+00  0.2424E+00
    -39.136  0.0000E+00  0.0000E+00  0.2424E+00  0.2424E+00
    -38.930  0.0000E+00  0.0000E+00  0.2424E+00  0.2424E+00
    -38.724  0.0000E+00  0.0000E+00  0.2424E+00  0.2424E+00
    -38.518  0.0000E+00  0.0000E+00  0.2424E+00  0.2424E+00
    -38.312  0.0000E+00  0.0000E+00  0.2424E+00  0.2424E+00
    -38.106  0.0000E+00  0.0000E+00  0.2424E+00  0.2424E+00
    -37.900  0.0000E+00  0.0000E+00  0.2424E+00  0.2424E+00
    -37.694  0.0000E+00  0.0000E+00  0.2424E+00  0.2424E+00
    -37.488  0.0000E+00  0.0000E+00  0.2424E+00  0.2424E+00
    -37.282  0.0000E+00  0.0000E+00  0.2424E+00  0.2424E+00
    -37.077  0.0000E+00  0.0000E+00  0.2424E+00  0.2424E+00
    -36.871  0.0000E+00  0.0000E+00  0.2424E+00  0.2424E+00
    -36.665  0.0000E+00  0.0000E+00  0.2424E+00  0.2424E+00
    -36.459  0.0000E+00  0.0000E+00  0.2424E+00  0.2424E+00
    -36.253  0.0000E+00  0.0000E+00  0.2424E+00  0.2424E+00
    -36.047  0.0000E+00  0.0000E+00  0.2424E+00  0.2424E+00
    -35.841  0.0000E+00  0.0000E+00  0.2424E+00  0.2424E+00
    -35.635  0.0000E+00  0.0000E+00  0.2424E+00  0.2424E+00
    -35.429  0.0000E+00  0.0000E+00  0.2424E+00  0.2424E+00
    -35.223  0.0000E+00  0.0000E+00  0.2424E+00  0.2424E+00
    -35.017  0.0000E+00  0.0000E+00  0.2424E+00  0.2424E+00
    -34.811  0.0000E+00  0.0000E+00  0.2424E+00  0.2424E+00
    -34.605  0.0000E+00  0.0000E+00  0.2424E+00  0.2424E+00
    -34.400  0.0000E+00  0.0000E+00  0.2424E+00  0.2424E+00
    -34.194  0.0000E+00  0.0000E+00  0.2424E+00  0.2424E+00
    -33.988  0.0000E+00  0.0000E+00  0.2424E+00  0.2424E+00
    -33.782  0.0000E+00  0.0000E+00  0.2424E+00  0.2424E+00
    -33.576  0.0000E+00  0.0000E+00  0.2424E+00  0.2424E+00
    -33.370  0.0000E+00  0.0000E+00  0.2424E+00  0.2424E+00
    -33.164  0.0000E+00  0.0000E+00  0.2424E+00  0.2424E+00
    -32.958  0.0000E+00  0.0000E+00  0.2424E+00  0.2424E+00
    -32.752  0.0000E+00  0.0000E+00  0.2424E+00  0.2424E+00
    -32.546  0.0000E+00  0.0000E+00  0.2424E+00  0.2424E+00
    -32.340  0.0000E+00  0.0000E+00  0.2424E+00  0.2424E+00
    -32.134  0.0000E+00  0.0000E+00  0.2424E+00  0.2424E+00
    -31.928  0.0000E+00  0.0000E+00  0.2424E+00  0.2424E+00
    -31.722  0.0000E+00  0.0000E+00  0.2424E+00  0.2424E+00
    -31.517  0.0000E+00  0.0000E+00  0.2424E+00  0.2424E+00
    -31.311  0.0000E+00  0.0000E+00  0.2424E+00  0.2424E+00
    -31.105  0.0000E+00  0.0000E+00  0.2424E+00  0.2424E+00
    -30.899  0.0000E+00  0.0000E+00  0.2424E+00  0.2424E+00
    -30.693  0.0000E+00  0.0000E+00  0.2424E+00  0.2424E+00
    -30.487  0.0000E+00  0.0000E+00  0.2424E+00  0.2424E+00
    -30.281  0.0000E+00  0.0000E+00  0.2424E+00  0.2424E+00
    -30.075  0.0000E+00  0.0000E+00  0.2424E+00  0.2424E+00
    -29.869  0.0000E+00  0.0000E+00  0.2424E+00  0.2424E+00
    -29.663  0.0000E+00  0.0000E+00  0.2424E+00  0.2424E+00
    -29.457  0.0000E+00  0.0000E+00  0.2424E+00  0.2424E+00
    -29.251  0.0000E+00  0.0000E+00  0.2424E+00  0.2424E+00
    -29.045  0.0000E+00  0.0000E+00  0.2424E+00  0.2424E+00
    -28.840  0.0000E+00  0.0000E+00  0.2424E+00  0.2424E+00
    -28.634  0.0000E+00  0.0000E+00  0.2424E+00  0.2424E+00
    -28.428  0.0000E+00  0.0000E+00  0.2424E+00  0.2424E+00
    -28.222  0.0000E+00  0.0000E+00  0.2424E+00  0.2424E+00
    -28.016  0.0000E+00  0.0000E+00  0.2424E+00  0.2424E+00
    -27.810  0.0000E+00  0.0000E+00  0.2424E+00  0.2424E+00
    -27.604  0.0000E+00  0.0000E+00  0.2424E+00  0.2424E+00
    -27.398  0.0000E+00  0.0000E+00  0.2424E+00  0.2424E+00
    -27.192  0.0000E+00  0.0000E+00  0.2424E+00  0.2424E+00
    -26.986  0.0000E+00  0.0000E+00  0.2424E+00  0.2424E+00
    -26.780  0.0000E+00  0.0000E+00  0.2424E+00  0.2424E+00
    -26.574  0.0000E+00  0.0000E+00  0.2424E+00  0.2424E+00
    -26.368  0.0000E+00  0.0000E+00  0.2424E+00  0.2424E+00
    -26.162  0.0000E+00  0.0000E+00  0.2424E+00  0.2424E+00
    -25.957  0.0000E+00  0.0000E+00  0.2424E+00  0.2424E+00
    -25.751  0.0000E+00  0.0000E+00  0.2424E+00  0.2424E+00
    -25.545  0.0000E+00  0.0000E+00  0.2424E+00  0.2424E+00
    -25.339  0.0000E+00  0.0000E+00  0.2424E+00  0.2424E+00
    -25.133  0.0000E+00  0.0000E+00  0.2424E+00  0.2424E+00
    -24.927  0.0000E+00  0.0000E+00  0.2424E+00  0.2424E+00
    -24.721  0.0000E+00  0.0000E+00  0.2424E+00  0.2424E+00
    -24.515  0.0000E+00  0.0000E+00  0.2424E+00  0.2424E+00
    -24.309  0.0000E+00  0.0000E+00  0.2424E+00  0.2424E+00
    -24.103  0.0000E+00  0.0000E+00  0.2424E+00  0.2424E+00
    -23.897  0.0000E+00  0.0000E+00  0.2424E+00  0.2424E+00
    -23.691  0.0000E+00  0.0000E+00  0.2424E+00  0.2424E+00
    -23.485  0.0000E+00  0.0000E+00  0.2424E+00  0.2424E+00
    -23.280  0.0000E+00  0.0000E+00  0.2424E+00  0.2424E+00
    -23.074  0.0000E+00  0.0000E+00  0.2424E+00  0.2424E+00
    -22.868  0.0000E+00  0.0000E+00  0.2424E+00  0.2424E+00
    -22.662  0.0000E+00  0.0000E+00  0.2424E+00  0.2424E+00
    -22.456  0.0000E+00  0.0000E+00  0.2424E+00  0.2424E+00
    -22.250  0.0000E+00  0.0000E+00  0.2424E+00  0.2424E+00
    -22.044  0.0000E+00  0.0000E+00  0.2424E+00  0.2424E+00
    -21.838  0.0000E+00  0.0000E+00  0.2424E+00  0.2424E+00
    -21.632  0.0000E+00  0.0000E+00  0.2424E+00  0.2424E+00
    -21.426  0.0000E+00  0.0000E+00  0.2424E+00  0.2424E+00
    -21.220  0.0000E+00  0.0000E+00  0.2424E+00  0.2424E+00
    -21.014  0.0000E+00  0.0000E+00  0.2424E+00  0.2424E+00
    -20.808  0.0000E+00  0.0000E+00  0.2424E+00  0.2424E+00
    -20.602  0.0000E+00  0.0000E+00  0.2424E+00  0.2424E+00
    -20.397  0.0000E+00  0.0000E+00  0.2424E+00  0.2424E+00
    -20.191  0.0000E+00  0.0000E+00  0.2424E+00  0.2424E+00
    -19.985  0.0000E+00  0.0000E+00  0.2424E+00  0.2424E+00
    -19.779  0.0000E+00  0.0000E+00  0.2424E+00  0.2424E+00
    -19.573  0.0000E+00  0.0000E+00  0.2424E+00  0.2424E+00
    -19.367  0.0000E+00  0.0000E+00  0.2424E+00  0.2424E+00
    -19.161  0.0000E+00  0.0000E+00  0.2424E+00  0.2424E+00
    -18.955  0.0000E+00  0.0000E+00  0.2424E+00  0.2424E+00
    -18.749  0.0000E+00  0.0000E+00  0.2424E+00  0.2424E+00
    -18.543  0.0000E+00  0.0000E+00  0.2424E+00  0.2424E+00
    -18.337  0.0000E+00  0.0000E+00  0.2424E+00  0.2424E+00
    -18.131  0.0000E+00  0.0000E+00  0.2424E+00  0.2424E+00
    -17.925  0.0000E+00  0.0000E+00  0.2424E+00  0.2424E+00
    -17.720  0.0000E+00  0.0000E+00  0.2424E+00  0.2424E+00
    -17.514  0.0000E+00  0.0000E+00  0.2424E+00  0.2424E+00
    -17.308  0.0000E+00  0.0000E+00  0.2424E+00  0.2424E+00
    -17.102  0.0000E+00  0.0000E+00  0.2424E+00  0.2424E+00
    -16.896  0.0000E+00  0.0000E+00  0.2424E+00  0.2424E+00
    -16.690  0.0000E+00  0.0000E+00  0.2424E+00  0.2424E+00
    -16.484  0.0000E+00  0.0000E+00  0.2424E+00  0.2424E+00
    -16.278  0.0000E+00  0.0000E+00  0.2424E+00  0.2424E+00
    -16.072  0.0000E+00  0.0000E+00  0.2424E+00  0.2424E+00
    -15.866  0.0000E+00  0.0000E+00  0.2424E+00  0.2424E+00
    -15.660  0.0000E+00  0.0000E+00  0.2424E+00  0.2424E+00
    -15.454  0.0000E+00  0.0000E+00  0.2424E+00  0.2424E+00
    -15.248  0.0000E+00  0.0000E+00  0.2424E+00  0.2424E+00
    -15.043  0.0000E+00  0.0000E+00  0.2424E+00  0.2424E+00
    -14.837  0.0000E+00  0.0000E+00  0.2424E+00  0.2424E+00
    -14.631  0.0000E+00  0.0000E+00  0.2424E+00  0.2424E+00
    -14.425  0.0000E+00  0.0000E+00  0.2424E+00  0.2424E+00
    -14.219  0.0000E+00  0.0000E+00  0.2424E+00  0.2424E+00
    -14.013  0.0000E+00  0.0000E+00  0.2424E+00  0.2424E+00
    -13.807  0.0000E+00  0.0000E+00  0.2424E+00  0.2424E+00
    -13.601  0.0000E+00  0.0000E+00  0.2424E+00  0.2424E+00
    -13.395  0.0000E+00  0.0000E+00  0.2424E+00  0.2424E+00
    -13.189  0.0000E+00  0.0000E+00  0.2424E+00  0.2424E+00
    -12.983  0.0000E+00  0.0000E+00  0.2424E+00  0.2424E+00
    -12.777  0.0000E+00  0.0000E+00  0.2424E+00  0.2424E+00
    -12.571  0.0000E+00  0.0000E+00  0.2424E+00  0.2424E+00
    -12.365  0.0000E+00  0.0000E+00  0.2424E+00  0.2424E+00
    -12.160  0.0000E+00  0.0000E+00  0.2424E+00  0.2424E+00
    -11.954  0.0000E+00  0.0000E+00  0.2424E+00  0.2424E+00
    -11.748  0.0000E+00  0.0000E+00  0.2424E+00  0.2424E+00
    -11.542  0.0000E+00  0.0000E+00  0.2424E+00  0.2424E+00
    -11.336  0.3705E-19  0.3705E-19  0.2424E+00  0.2424E+00
    -11.130  0.2269E-05  0.2269E-05  0.2424E+00  0.2424E+00
    -10.924  0.4630E-02  0.4630E-02  0.2434E+00  0.2434E+00
    -10.718  0.1837E-01  0.1837E-01  0.2472E+00  0.2472E+00
    -10.512  0.2311E-01  0.2311E-01  0.2519E+00  0.2519E+00
    -10.306  0.2842E-01  0.2842E-01  0.2578E+00  0.2578E+00
    -10.100  0.4409E-01  0.4409E-01  0.2669E+00  0.2669E+00
     -9.894  0.3594E-01  0.3594E-01  0.2743E+00  0.2743E+00
     -9.688  0.3452E-01  0.3452E-01  0.2814E+00  0.2814E+00
     -9.483  0.5624E-01  0.5624E-01  0.2929E+00  0.2929E+00
     -9.277  0.9509E-01  0.9509E-01  0.3125E+00  0.3125E+00
     -9.071  0.5192E-01  0.5192E-01  0.3232E+00  0.3232E+00
     -8.865  0.8852E-04  0.8852E-04  0.3232E+00  0.3232E+00
     -8.659  0.0000E+00  0.0000E+00  0.3232E+00  0.3232E+00
     -8.453  0.0000E+00  0.0000E+00  0.3232E+00  0.3232E+00
     -8.247  0.0000E+00  0.0000E+00  0.3232E+00  0.3232E+00
     -8.041  0.0000E+00  0.0000E+00  0.3232E+00  0.3232E+00
     -7.835  0.0000E+00  0.0000E+00  0.3232E+00  0.3232E+00
     -7.629  0.0000E+00  0.0000E+00  0.3232E+00  0.3232E+00
     -7.423  0.0000E+00  0.0000E+00  0.3232E+00  0.3232E+00
     -7.217  0.0000E+00  0.0000E+00  0.3232E+00  0.3232E+00
     -7.011  0.0000E+00  0.0000E+00  0.3232E+00  0.3232E+00
     -6.805  0.0000E+00  0.0000E+00  0.3232E+00  0.3232E+00
     -6.600  0.0000E+00  0.0000E+00  0.3232E+00  0.3232E+00
     -6.394  0.0000E+00  0.0000E+00  0.3232E+00  0.3232E+00
     -6.188  0.0000E+00  0.0000E+00  0.3232E+00  0.3232E+00
     -5.982  0.0000E+00  0.0000E+00  0.3232E+00  0.3232E+00
     -5.776  0.0000E+00  0.0000E+00  0.3232E+00  0.3232E+00
     -5.570  0.0000E+00  0.0000E+00  0.3232E+00  0.3232E+00
     -5.364  0.0000E+00  0.0000E+00  0.3232E+00  0.3232E+00
     -5.158  0.0000E+00  0.0000E+00  0.3232E+00  0.3232E+00
     -4.952  0.0000E+00  0.0000E+00  0.3232E+00  0.3232E+00
     -4.746  0.0000E+00  0.0000E+00  0.3232E+00  0.3232E+00
     -4.540  0.0000E+00  0.0000E+00  0.3232E+00  0.3232E+00
     -4.334  0.0000E+00  0.0000E+00  0.3232E+00  0.3232E+00
     -4.128  0.0000E+00  0.0000E+00  0.3232E+00  0.3232E+00
     -3.923  0.0000E+00  0.0000E+00  0.3232E+00  0.3232E+00
     -3.717  0.0000E+00  0.0000E+00  0.3232E+00  0.3232E+00
     -3.511  0.0000E+00  0.0000E+00  0.3232E+00  0.3232E+00
     -3.305  0.0000E+00  0.0000E+00  0.3232E+00  0.3232E+00
     -3.099  0.2403E-06  0.2403E-06  0.3232E+00  0.3232E+00
     -2.893  0.1231E-02  0.1231E-02  0.3235E+00  0.3235E+00
     -2.687  0.4725E-02  0.4725E-02  0.3245E+00  0.3245E+00
     -2.481  0.7390E-02  0.7390E-02  0.3260E+00  0.3260E+00
     -2.275  0.1589E-01  0.1589E-01  0.3293E+00  0.3293E+00
     -2.069  0.4659E-01  0.4659E-01  0.3388E+00  0.3388E+00
     -1.863  0.5690E-01  0.5690E-01  0.3506E+00  0.3506E+00
     -1.657  0.4948E-01  0.4948E-01  0.3608E+00  0.3608E+00
     -1.451  0.4866E-01  0.4866E-01  0.3708E+00  0.3708E+00
     -1.245  0.4107E-01  0.4107E-01  0.3792E+00  0.3792E+00
     -1.040  0.5280E-01  0.5280E-01  0.3901E+00  0.3901E+00
     -0.834  0.6579E-01  0.6579E-01  0.4037E+00  0.4037E+00
     -0.628  0.8255E-01  0.8255E-01  0.4206E+00  0.4206E+00
     -0.422  0.8693E-01  0.8693E-01  0.4386E+00  0.4386E+00
     -0.216  0.5503E-01  0.5503E-01  0.4499E+00  0.4499E+00
     -0.010  0.9945E-01  0.9945E-01  0.4704E+00  0.4704E+00
      0.196  0.1224E+00  0.1224E+00  0.4956E+00  0.4956E+00
      0.402  0.5384E-01  0.5384E-01  0.5067E+00  0.5067E+00
      0.608  0.5965E-01  0.5965E-01  0.5189E+00  0.5189E+00
      0.814  0.5151E-01  0.5151E-01  0.5296E+00  0.5296E+00
      1.020  0.8209E-01  0.8209E-01  0.5465E+00  0.5465E+00
      1.226  0.1545E+00  0.1545E+00  0.5783E+00  0.5783E+00
      1.432  0.8138E-01  0.8138E-01  0.5950E+00  0.5950E+00
      1.637  0.7927E-01  0.7927E-01  0.6114E+00  0.6114E+00
      1.843  0.6837E-01  0.6837E-01  0.6254E+00  0.6254E+00
      2.049  0.6369E-01  0.6369E-01  0.6386E+00  0.6386E+00
      2.255  0.8410E-01  0.8410E-01  0.6559E+00  0.6559E+00
      2.461  0.1010E+00  0.1010E+00  0.6767E+00  0.6767E+00
      2.667  0.9102E-01  0.9102E-01  0.6954E+00  0.6954E+00
      2.873  0.1122E+00  0.1122E+00  0.7185E+00  0.7185E+00
      3.079  0.1322E+00  0.1322E+00  0.7457E+00  0.7457E+00
      3.285  0.1351E+00  0.1351E+00  0.7736E+00  0.7736E+00
      3.491  0.9341E-01  0.9341E-01  0.7928E+00  0.7928E+00
      3.697  0.6537E-01  0.6537E-01  0.8063E+00  0.8063E+00
      3.903  0.1337E+00  0.1337E+00  0.8338E+00  0.8338E+00
      4.109  0.9238E-01  0.9238E-01  0.8528E+00  0.8528E+00
      4.314  0.5658E-01  0.5658E-01  0.8645E+00  0.8645E+00
      4.520  0.5205E-01  0.5205E-01  0.8752E+00  0.8752E+00
      4.726  0.6667E-01  0.6667E-01  0.8889E+00  0.8889E+00
      4.932  0.1171E+00  0.1171E+00  0.9130E+00  0.9130E+00
      5.138  0.6350E-01  0.6350E-01  0.9261E+00  0.9261E+00
      5.344  0.2461E-01  0.2461E-01  0.9312E+00  0.9312E+00
      5.550  0.3583E-01  0.3583E-01  0.9385E+00  0.9385E+00
      5.756  0.7304E-01  0.7304E-01  0.9536E+00  0.9536E+00
      5.962  0.4634E-01  0.4634E-01  0.9631E+00  0.9631E+00
      6.168  0.2321E-01  0.2321E-01  0.9679E+00  0.9679E+00
      6.374  0.8156E-02  0.8156E-02  0.9696E+00  0.9696E+00
      6.580  0.5073E-03  0.5062E-03  0.9697E+00  0.9697E+00
      6.786  0.2338E-07  0.2121E-07  0.9697E+00  0.9697E+00
      6.992  0.0000E+00  0.0000E+00  0.9697E+00  0.9697E+00
      7.197  0.0000E+00  0.0000E+00  0.9697E+00  0.9697E+00
      7.403  0.0000E+00  0.0000E+00  0.9697E+00  0.9697E+00
      7.609  0.0000E+00  0.0000E+00  0.9697E+00  0.9697E+00
      7.815  0.0000E+00  0.0000E+00  0.9697E+00  0.9697E+00
      8.021  0.0000E+00  0.0000E+00  0.9697E+00  0.9697E+00
      8.227  0.0000E+00  0.0000E+00  0.9697E+00  0.9697E+00
      8.433  0.0000E+00  0.0000E+00  0.9697E+00  0.9697E+00
      8.639  0.0000E+00  0.0000E+00  0.9697E+00  0.9697E+00
      8.845  0.0000E+00  0.0000E+00  0.9697E+00  0.9697E+00
      9.051  0.0000E+00  0.0000E+00  0.9697E+00  0.9697E+00
      9.257  0.0000E+00  0.0000E+00  0.9697E+00  0.9697E+00
      9.25670810    -52.52096207  301      3.71346951      1.00000000
    -52.521  0.0000E+00  0.0000E+00  0.0000E+00  0.0000E+00  0.0000E+00  0.0000E+00  0.0000E+00  0.0000E+00  0.0000E+00  0.0000E+00  0.0000E+00  0.0000E+00  0.0000E+00  0.0000E+00  0.0000E+00  0.0000E+00  0.0000E+00  0.0000E+00
    -52.315  0.0000E+00  0.0000E+00  0.0000E+00  0.0000E+00  0.0000E+00  0.0000E+00  0.0000E+00  0.0000E+00  0.0000E+00  0.0000E+00  0.0000E+00  0.0000E+00  0.0000E+00  0.0000E+00  0.0000E+00  0.0000E+00  0.0000E+00  0.0000E+00
    -52.109  0.0000E+00  0.0000E+00  0.0000E+00  0.0000E+00  0.0000E+00  0.0000E+00  0.0000E+00  0.0000E+00  0.0000E+00  0.0000E+00  0.0000E+00  0.0000E+00  0.0000E+00  0.0000E+00  0.0000E+00  0.0000E+00  0.0000E+00  0.0000E+00
    -51.903  0.0000E+00  0.0000E+00  0.0000E+00  0.0000E+00  0.0000E+00  0.0000E+00  0.0000E+00  0.0000E+00  0.0000E+00  0.0000E+00  0.0000E+00  0.0000E+00  0.0000E+00  0.0000E+00  0.0000E+00  0.0000E+00  0.0000E+00  0.0000E+00
    -51.697  0.0000E+00  0.0000E+00  0.0000E+00  0.0000E+00  0.0000E+00  0.0000E+00  0.0000E+00  0.0000E+00  0.0000E+00  0.0000E+00  0.0000E+00  0.0000E+00  0.0000E+00  0.0000E+00  0.0000E+00  0.0000E+00  0.0000E+00  0.0000E+00
    -51.491  0.0000E+00  0.0000E+00  0.0000E+00  0.0000E+00  0.0000E+00  0.0000E+00  0.0000E+00  0.0000E+00  0.0000E+00  0.0000E+00  0.0000E+00  0.0000E+00  0.0000E+00  0.0000E+00  0.0000E+00  0.0000E+00  0.0000E+00  0.0000E+00
    -51.285  0.0000E+00  0.0000E+00  0.0000E+00  0.0000E+00  0.0000E+00  0.0000E+00  0.0000E+00  0.0000E+00  0.0000E+00  0.0000E+00  0.0000E+00  0.0000E+00  0.0000E+00  0.0000E+00  0.0000E+00  0.0000E+00  0.0000E+00  0.0000E+00
    -51.079  0.0000E+00  0.0000E+00  0.0000E+00  0.0000E+00  0.0000E+00  0.0000E+00  0.0000E+00  0.0000E+00  0.0000E+00  0.0000E+00  0.0000E+00  0.0000E+00  0.0000E+00  0.0000E+00  0.0000E+00  0.0000E+00  0.0000E+00  0.0000E+00
    -50.874  0.0000E+00  0.0000E+00  0.0000E+00  0.0000E+00  0.0000E+00  0.0000E+00  0.0000E+00  0.0000E+00  0.0000E+00  0.0000E+00  0.0000E+00  0.0000E+00  0.0000E+00  0.0000E+00  0.0000E+00  0.0000E+00  0.0000E+00  0.0000E+00
    -50.668  0.0000E+00  0.0000E+00  0.0000E+00  0.0000E+00  0.0000E+00  0.0000E+00  0.0000E+00  0.0000E+00  0.0000E+00  0.0000E+00  0.0000E+00  0.0000E+00  0.0000E+00  0.0000E+00  0.0000E+00  0.0000E+00  0.0000E+00  0.0000E+00
    -50.462  0.0000E+00  0.0000E+00  0.0000E+00  0.0000E+00  0.0000E+00  0.0000E+00  0.0000E+00  0.0000E+00  0.0000E+00  0.0000E+00  0.0000E+00  0.0000E+00  0.0000E+00  0.0000E+00  0.0000E+00  0.0000E+00  0.0000E+00  0.0000E+00
    -50.256  0.0000E+00  0.0000E+00  0.0000E+00  0.0000E+00  0.0000E+00  0.0000E+00  0.0000E+00  0.0000E+00  0.0000E+00  0.0000E+00  0.0000E+00  0.0000E+00  0.0000E+00  0.0000E+00  0.0000E+00  0.0000E+00  0.0000E+00  0.0000E+00
    -50.050  0.0000E+00  0.0000E+00  0.0000E+00  0.0000E+00  0.0000E+00  0.0000E+00  0.0000E+00  0.0000E+00  0.0000E+00  0.0000E+00  0.0000E+00  0.0000E+00  0.0000E+00  0.0000E+00  0.0000E+00  0.0000E+00  0.0000E+00  0.0000E+00
    -49.844  0.7406E-08  0.5043E-08  0.1216E-04  0.3678E-05  0.2698E-06  0.3959E-06  0.4786E-05  0.7793E-05  0.1445E-09  0.1323E-09  0.1381E-11  0.3346E-11  0.3983E-08  0.2464E-08  0.2576E-09  0.6901E-09  0.3045E-08  0.1569E-08
    -49.638  0.3387E-03  0.3341E-03  0.5128E+00  0.4604E+00  0.2297E-01  0.2382E-01  0.4605E+00  0.4802E+00  0.6096E-05  0.6128E-05  0.1983E-06  0.2069E-06  0.1747E-03  0.1670E-03  0.4087E-04  0.5000E-04  0.4894E-03  0.4659E-03
    -49.432  0.4110E-04  0.4660E-04  0.7637E-01  0.1808E+00  0.8318E-02  0.3739E-02  0.1711E+00  0.7410E-01  0.9217E-06  0.7489E-06  0.6298E-07  0.4082E-07  0.1905E-04  0.2618E-04  0.1413E-04  0.6494E-05  0.1504E-03  0.1737E-03
    -49.226  0.9721E-04  0.9417E-04  0.1914E+01  0.1861E+01  0.2603E+01  0.2215E+01  0.1938E+01  0.1926E+01  0.4429E-05  0.4333E-05  0.5826E-05  0.5297E-05  0.2170E-04  0.2119E-04  0.1077E-04  0.9424E-05  0.6080E-04  0.6057E-04
    -49.020  0.9093E-04  0.9123E-04  0.1860E+01  0.1752E+01  0.2183E+01  0.2571E+01  0.1794E+01  0.1838E+01  0.4041E-04  0.4050E-04  0.1854E-04  0.1912E-04  0.3353E-04  0.3355E-04  0.2251E-04  0.2269E-04  0.6949E-04  0.6602E-04
    -48.814  0.1368E-04  0.1589E-04  0.4733E+00  0.5817E+00  0.1958E-01  0.2267E-01  0.4720E+00  0.5174E+00  0.3392E-05  0.3494E-05  0.1457E-06  0.1138E-06  0.4893E-05  0.6131E-05  0.2605E-05  0.1966E-05  0.3396E-04  0.3793E-04
    -48.608  0.2119E-11  0.2865E-11  0.2546E-06  0.4073E-06  0.1075E-07  0.1534E-07  0.2601E-06  0.3540E-06  0.4809E-12  0.5052E-12  0.3050E-13  0.1111E-13  0.7691E-12  0.1209E-11  0.8569E-12  0.1028E-11  0.1476E-10  0.2452E-10
    -48.402  0.0000E+00  0.0000E+00  0.0000E+00  0.0000E+00  0.0000E+00  0.0000E+00  0.0000E+00  0.0000E+00  0.0000E+00  0.0000E+00  0.0000E+00  0.0000E+00  0.0000E+00  0.0000E+00  0.0000E+00  0.0000E+00  0.0000E+00  0.0000E+00
    -48.197  0.0000E+00  0.0000E+00  0.0000E+00  0.0000E+00  0.0000E+00  0.0000E+00  0.0000E+00  0.0000E+00  0.0000E+00  0.0000E+00  0.0000E+00  0.0000E+00  0.0000E+00  0.0000E+00  0.0000E+00  0.0000E+00  0.0000E+00  0.0000E+00
    -47.991  0.0000E+00  0.0000E+00  0.0000E+00  0.0000E+00  0.0000E+00  0.0000E+00  0.0000E+00  0.0000E+00  0.0000E+00  0.0000E+00  0.0000E+00  0.0000E+00  0.0000E+00  0.0000E+00  0.0000E+00  0.0000E+00  0.0000E+00  0.0000E+00
    -47.785  0.0000E+00  0.0000E+00  0.0000E+00  0.0000E+00  0.0000E+00  0.0000E+00  0.0000E+00  0.0000E+00  0.0000E+00  0.0000E+00  0.0000E+00  0.0000E+00  0.0000E+00  0.0000E+00  0.0000E+00  0.0000E+00  0.0000E+00  0.0000E+00
    -47.579  0.0000E+00  0.0000E+00  0.0000E+00  0.0000E+00  0.0000E+00  0.0000E+00  0.0000E+00  0.0000E+00  0.0000E+00  0.0000E+00  0.0000E+00  0.0000E+00  0.0000E+00  0.0000E+00  0.0000E+00  0.0000E+00  0.0000E+00  0.0000E+00
    -47.373  0.0000E+00  0.0000E+00  0.0000E+00  0.0000E+00  0.0000E+00  0.0000E+00  0.0000E+00  0.0000E+00  0.0000E+00  0.0000E+00  0.0000E+00  0.0000E+00  0.0000E+00  0.0000E+00  0.0000E+00  0.0000E+00  0.0000E+00  0.0000E+00
    -47.167  0.0000E+00  0.0000E+00  0.0000E+00  0.0000E+00  0.0000E+00  0.0000E+00  0.0000E+00  0.0000E+00  0.0000E+00  0.0000E+00  0.0000E+00  0.0000E+00  0.0000E+00  0.0000E+00  0.0000E+00  0.0000E+00  0.0000E+00  0.0000E+00
    -46.961  0.0000E+00  0.0000E+00  0.0000E+00  0.0000E+00  0.0000E+00  0.0000E+00  0.0000E+00  0.0000E+00  0.0000E+00  0.0000E+00  0.0000E+00  0.0000E+00  0.0000E+00  0.0000E+00  0.0000E+00  0.0000E+00  0.0000E+00  0.0000E+00
    -46.755  0.0000E+00  0.0000E+00  0.0000E+00  0.0000E+00  0.0000E+00  0.0000E+00  0.0000E+00  0.0000E+00  0.0000E+00  0.0000E+00  0.0000E+00  0.0000E+00  0.0000E+00  0.0000E+00  0.0000E+00  0.0000E+00  0.0000E+00  0.0000E+00
    -46.549  0.0000E+00  0.0000E+00  0.0000E+00  0.0000E+00  0.0000E+00  0.0000E+00  0.0000E+00  0.0000E+00  0.0000E+00  0.0000E+00  0.0000E+00  0.0000E+00  0.0000E+00  0.0000E+00  0.0000E+00  0.0000E+00  0.0000E+00  0.0000E+00
    -46.343  0.0000E+00  0.0000E+00  0.0000E+00  0.0000E+00  0.0000E+00  0.0000E+00  0.0000E+00  0.0000E+00  0.0000E+00  0.0000E+00  0.0000E+00  0.0000E+00  0.0000E+00  0.0000E+00  0.0000E+00  0.0000E+00  0.0000E+00  0.0000E+00
    -46.137  0.0000E+00  0.0000E+00  0.0000E+00  0.0000E+00  0.0000E+00  0.0000E+00  0.0000E+00  0.0000E+00  0.0000E+00  0.0000E+00  0.0000E+00  0.0000E+00  0.0000E+00  0.0000E+00  0.0000E+00  0.0000E+00  0.0000E+00  0.0000E+00
    -45.931  0.0000E+00  0.0000E+00  0.0000E+00  0.0000E+00  0.0000E+00  0.0000E+00  0.0000E+00  0.0000E+00  0.0000E+00  0.0000E+00  0.0000E+00  0.0000E+00  0.0000E+00  0.0000E+00  0.0000E+00  0.0000E+00  0.0000E+00  0.0000E+00
    -45.725  0.0000E+00  0.0000E+00  0.0000E+00  0.0000E+00  0.0000E+00  0.0000E+00  0.0000E+00  0.0000E+00  0.0000E+00  0.0000E+00  0.0000E+00  0.0000E+00  0.0000E+00  0.0000E+00  0.0000E+00  0.0000E+00  0.0000E+00  0.0000E+00
    -45.519  0.0000E+00  0.0000E+00  0.0000E+00  0.0000E+00  0.0000E+00  0.0000E+00  0.0000E+00  0.0000E+00  0.0000E+00  0.0000E+00  0.0000E+00  0.0000E+00  0.0000E+00  0.0000E+00  0.0000E+00  0.0000E+00  0.0000E+00  0.0000E+00
    -45.314  0.0000E+00  0.0000E+00  0.0000E+00  0.0000E+00  0.0000E+00  0.0000E+00  0.0000E+00  0.0000E+00  0.0000E+00  0.0000E+00  0.0000E+00  0.0000E+00  0.0000E+00  0.0000E+00  0.0000E+00  0.0000E+00  0.0000E+00  0.0000E+00
    -45.108  0.0000E+00  0.0000E+00  0.0000E+00  0.0000E+00  0.0000E+00  0.0000E+00  0.0000E+00  0.0000E+00  0.0000E+00  0.0000E+00  0.0000E+00  0.0000E+00  0.0000E+00  0.0000E+00  0.0000E+00  0.0000E+00  0.0000E+00  0.0000E+00
    -44.902  0.0000E+00  0.0000E+00  0.0000E+00  0.0000E+00  0.0000E+00  0.0000E+00  0.0000E+00  0.0000E+00  0.0000E+00  0.0000E+00  0.0000E+00  0.0000E+00  0.0000E+00  0.0000E+00  0.0000E+00  0.0000E+00  0.0000E+00  0.0000E+00
    -44.696  0.0000E+00  0.0000E+00  0.0000E+00  0.0000E+00  0.0000E+00  0.0000E+00  0.0000E+00  0.0000E+00  0.0000E+00  0.0000E+00  0.0000E+00  0.0000E+00  0.0000E+00  0.0000E+00  0.0000E+00  0.0000E+00  0.0000E+00  0.0000E+00
    -44.490  0.0000E+00  0.0000E+00  0.0000E+00  0.0000E+00  0.0000E+00  0.0000E+00  0.0000E+00  0.0000E+00  0.0000E+00  0.0000E+00  0.0000E+00  0.0000E+00  0.0000E+00  0.0000E+00  0.0000E+00  0.0000E+00  0.0000E+00  0.0000E+00
    -44.284  0.0000E+00  0.0000E+00  0.0000E+00  0.0000E+00  0.0000E+00  0.0000E+00  0.0000E+00  0.0000E+00  0.0000E+00  0.0000E+00  0.0000E+00  0.0000E+00  0.0000E+00  0.0000E+00  0.0000E+00  0.0000E+00  0.0000E+00  0.0000E+00
    -44.078  0.0000E+00  0.0000E+00  0.0000E+00  0.0000E+00  0.0000E+00  0.0000E+00  0.0000E+00  0.0000E+00  0.0000E+00  0.0000E+00  0.0000E+00  0.0000E+00  0.0000E+00  0.0000E+00  0.0000E+00  0.0000E+00  0.0000E+00  0.0000E+00
    -43.872  0.0000E+00  0.0000E+00  0.0000E+00  0.0000E+00  0.0000E+00  0.0000E+00  0.0000E+00  0.0000E+00  0.0000E+00  0.0000E+00  0.0000E+00  0.0000E+00  0.0000E+00  0.0000E+00  0.0000E+00  0.0000E+00  0.0000E+00  0.0000E+00
    -43.666  0.0000E+00  0.0000E+00  0.0000E+00  0.0000E+00  0.0000E+00  0.0000E+00  0.0000E+00  0.0000E+00  0.0000E+00  0.0000E+00  0.0000E+00  0.0000E+00  0.0000E+00  0.0000E+00  0.0000E+00  0.0000E+00  0.0000E+00  0.0000E+00
    -43.460  0.0000E+00  0.0000E+00  0.0000E+00  0.0000E+00  0.0000E+00  0.0000E+00  0.0000E+00  0.0000E+00  0.0000E+00  0.0000E+00  0.0000E+00  0.0000E+00  0.0000E+00  0.0000E+00  0.0000E+00  0.0000E+00  0.0000E+00  0.0000E+00
    -43.254  0.0000E+00  0.0000E+00  0.0000E+00  0.0000E+00  0.0000E+00  0.0000E+00  0.0000E+00  0.0000E+00  0.0000E+00  0.0000E+00  0.0000E+00  0.0000E+00  0.0000E+00  0.0000E+00  0.0000E+00  0.0000E+00  0.0000E+00  0.0000E+00
    -43.048  0.0000E+00  0.0000E+00  0.0000E+00  0.0000E+00  0.0000E+00  0.0000E+00  0.0000E+00  0.0000E+00  0.0000E+00  0.0000E+00  0.0000E+00  0.0000E+00  0.0000E+00  0.0000E+00  0.0000E+00  0.0000E+00  0.0000E+00  0.0000E+00
    -42.842  0.0000E+00  0.0000E+00  0.0000E+00  0.0000E+00  0.0000E+00  0.0000E+00  0.0000E+00  0.0000E+00  0.0000E+00  0.0000E+00  0.0000E+00  0.0000E+00  0.0000E+00  0.0000E+00  0.0000E+00  0.0000E+00  0.0000E+00  0.0000E+00
    -42.637  0.0000E+00  0.0000E+00  0.0000E+00  0.0000E+00  0.0000E+00  0.0000E+00  0.0000E+00  0.0000E+00  0.0000E+00  0.0000E+00  0.0000E+00  0.0000E+00  0.0000E+00  0.0000E+00  0.0000E+00  0.0000E+00  0.0000E+00  0.0000E+00
    -42.431  0.0000E+00  0.0000E+00  0.0000E+00  0.0000E+00  0.0000E+00  0.0000E+00  0.0000E+00  0.0000E+00  0.0000E+00  0.0000E+00  0.0000E+00  0.0000E+00  0.0000E+00  0.0000E+00  0.0000E+00  0.0000E+00  0.0000E+00  0.0000E+00
    -42.225  0.0000E+00  0.0000E+00  0.0000E+00  0.0000E+00  0.0000E+00  0.0000E+00  0.0000E+00  0.0000E+00  0.0000E+00  0.0000E+00  0.0000E+00  0.0000E+00  0.0000E+00  0.0000E+00  0.0000E+00  0.0000E+00  0.0000E+00  0.0000E+00