       N       E                     dE             d eps       ncg     rms          rms(c)
DAV:   1     0.194460592409E+04    0.19446E+04   -0.70942E+04 89440   0.192E+03
DAV:   2     0.159742283853E+03   -0.17849E+04   -0.16690E+04 80640   0.557E+02
DAV:   3    -0.823375486874E+02   -0.24208E+03   -0.19981E+03 82320   0.216E+02
DAV:   4    -0.948965480456E+02   -0.12559E+02   -0.12358E+02 89256   0.588E+01
DAV:   5    -0.951037826698E+02   -0.20723E+00   -0.20714E+00109920   0.725E+00    0.434E+01
DAV:   6    -0.957611968157E+02   -0.65741E+00   -0.37422E+01110192   0.844E+01    0.591E+01
DAV:   7    -0.845248226005E+02    0.11236E+02   -0.22848E+01 99312   0.631E+01    0.305E+01
DAV:   8    -0.910683625187E+02   -0.65435E+01   -0.18717E+01 98840   0.612E+01    0.419E+01
DAV:   9    -0.860749923647E+02    0.49934E+01   -0.10043E+01101576   0.442E+01    0.287E+01
DAV:  10    -0.864254654760E+02   -0.35047E+00   -0.41836E+00 96688   0.242E+01    0.243E+01
DAV:  11    -0.874613192647E+02   -0.10359E+01   -0.20333E+00 92416   0.209E+01    0.105E+01
DAV:  12    -0.875459786012E+02   -0.84659E-01   -0.12530E+00 92728   0.152E+01    0.785E+00
DAV:  13    -0.874777922172E+02    0.68186E-01   -0.59081E-01 95224   0.102E+01    0.385E+00
DAV:  14    -0.874230049277E+02    0.54787E-01   -0.17442E-01100992   0.527E+00    0.173E+00
DAV:  15    -0.874145633811E+02    0.84415E-02   -0.94031E-02 91208   0.334E+00    0.134E+00
DAV:  16    -0.874112879734E+02    0.32754E-02   -0.29932E-02 91256   0.229E+00    0.759E-01
DAV:  17    -0.874141939608E+02   -0.29060E-02   -0.12959E-02 98168   0.122E+00    0.527E-01
DAV:  18    -0.874125428850E+02    0.16511E-02   -0.60648E-03 90920   0.785E-01    0.200E-01
DAV:  19    -0.874134018979E+02   -0.85901E-03   -0.23525E-03 92176   0.626E-01    0.346E-01
DAV:  20    -0.874127179376E+02    0.68396E-03   -0.12671E-03114928   0.427E-01    0.512E-02
DAV:  21    -0.874127734969E+02   -0.55559E-04   -0.18542E-04 94176   0.124E-01    0.521E-02
DAV:  22    -0.874127424116E+02    0.31085E-04   -0.65265E-05 85344   0.740E-02    0.211E-02
DAV:  23    -0.874127625167E+02   -0.20105E-04   -0.10396E-05 51264   0.408E-02    0.246E-02
DAV:  24    -0.874127549714E+02    0.75453E-05   -0.26712E-06 44120   0.138E-02    0.190E-02
DAV:  25    -0.874127475779E+02    0.73935E-05   -0.92224E-07 43280   0.897E-03    0.114E-02
DAV:  26    -0.874127389444E+02    0.86335E-05   -0.65250E-07 43104   0.821E-03    0.383E-03
DAV:  27    -0.874127364804E+02    0.24640E-05   -0.57452E-07 42896   0.492E-03
   1 F= -.87412736E+02 E0= -.87412736E+02  d E =0.000000E+00  mag=    12.5184
