       N       E                     dE             d eps       ncg     rms          rms(c)
DAV:   1     0.173700485340E+04    0.17370E+04   -0.91465E+04 32256   0.244E+03
DAV:   2     0.782723596014E+01   -0.17292E+04   -0.16979E+04 32448   0.607E+02
DAV:   3    -0.102777468604E+03   -0.11060E+03   -0.10947E+03 39456   0.160E+02
DAV:   4    -0.105045071246E+03   -0.22676E+01   -0.22661E+01 32768   0.245E+01
DAV:   5    -0.105094959299E+03   -0.49888E-01   -0.49899E-01 41056   0.361E+00    0.416E+01
DAV:   6    -0.106175478139E+03   -0.10805E+01   -0.19984E+02 36736   0.818E+01    0.544E+01
DAV:   7    -0.117454337473E+03   -0.11279E+02   -0.45191E+02 43008   0.932E+01    0.656E+01
DAV:   8    -0.946180805791E+02    0.22836E+02   -0.70183E+01 43264   0.641E+01    0.196E+01
DAV:   9    -0.954221744503E+02   -0.80409E+00   -0.54585E+01 38400   0.249E+01    0.253E+01
DAV:  10    -0.929753558695E+02    0.24468E+01   -0.14323E+01 42240   0.230E+01    0.143E+01
DAV:  11    -0.929524959661E+02    0.22860E-01   -0.56784E+00 42240   0.974E+00    0.885E+00
DAV:  12    -0.929319266236E+02    0.20569E-01   -0.29205E+00 45088   0.736E+00    0.718E+00
DAV:  13    -0.929957241146E+02   -0.63797E-01   -0.16845E+00 41760   0.565E+00    0.594E+00
DAV:  14    -0.930927384665E+02   -0.97014E-01   -0.17604E+00 44000   0.578E+00    0.675E+00
DAV:  15    -0.930952629127E+02   -0.25244E-02   -0.15362E+00 42752   0.579E+00    0.415E+00
DAV:  16    -0.933157484480E+02   -0.22049E+00   -0.25690E+00 44416   0.955E+00    0.725E+00
DAV:  17    -0.931059503413E+02    0.20980E+00   -0.17447E+00 43680   0.772E+00    0.165E+00
DAV:  18    -0.931270373588E+02   -0.21087E-01   -0.66998E-02 37472   0.108E+00    0.131E+00
DAV:  19    -0.931302617977E+02   -0.32244E-02   -0.27804E-02 42944   0.968E-01    0.651E-01
DAV:  20    -0.931327379780E+02   -0.24762E-02   -0.12079E-02 41408   0.504E-01    0.317E-01
DAV:  21    -0.931331477108E+02   -0.40973E-03   -0.49630E-03 42976   0.322E-01    0.139E-01
DAV:  22    -0.931332044330E+02   -0.56722E-04   -0.44104E-04 36928   0.113E-01    0.993E-02
DAV:  23    -0.931332448686E+02   -0.40436E-04   -0.20359E-04 42368   0.733E-02    0.880E-02
DAV:  24    -0.931332671931E+02   -0.22324E-04   -0.20690E-04 42976   0.710E-02    0.454E-02
DAV:  25    -0.931332724150E+02   -0.52219E-05   -0.42587E-05 41152   0.384E-02    0.237E-02
DAV:  26    -0.931332724456E+02   -0.30610E-07   -0.15878E-05 41120   0.217E-02    0.119E-02
DAV:  27    -0.931332673928E+02    0.50529E-05   -0.40916E-06 30016   0.118E-02    0.754E-03
DAV:  28    -0.931332664148E+02    0.97795E-06   -0.99828E-07 17536   0.617E-03
   1 F= -.93133266E+02 E0= -.93133266E+02  d E =0.000000E+00  mag=     1.9799
