 vasp.6.4.3 19Mar24 (build Mar 26 2024 14:05:37) complex                        
  
 executed on             LinuxIFC date 2024.12.16  15:14:11
 running  128 mpi-ranks, on    1 nodes
 distrk:  each k-point on   32 cores,    4 groups
 distr:  one band on NCORE=   1 cores,   32 groups


--------------------------------------------------------------------------------------------------------


 INCAR:
   ALGO = Normal
   EDIFF = 1e-06
   EDIFFG = -0.01
   ENCUT = 520
   GGA = Pe
   IBRION = -1
   ISIF = 4
   ISMEAR = -5
   ISPIN = 2
   KPAR = 4
   LCHARG = True
   LORBIT = 11
   LREAL = False
   LWAVE = False
   MAGMOM = 1*-2.401 2*2.301 1*-2.406 1*-2.407 1*2.473 1*-2.401 2*2.301 2*-0.091 1*0.199
   NELM = 200
   NSW = 0
   PREC = Accurate
   SIGMA = 0.2

 POTCAR:    PAW_PBE Fe_pv 02Aug2007               
 POTCAR:    PAW_PBE Pt 04Feb2005                  
 -----------------------------------------------------------------------------
|                                                                             |
|           W    W    AA    RRRRR   N    N  II  N    N   GGGG   !!!           |
|           W    W   A  A   R    R  NN   N  II  NN   N  G    G  !!!           |
|           W    W  A    A  R    R  N N  N  II  N N  N  G       !!!           |
|           W WW W  AAAAAA  RRRRR   N  N N  II  N  N N  G  GGG   !            |
|           WW  WW  A    A  R   R   N   NN  II  N   NN  G    G                |
|           W    W  A    A  R    R  N    N  II  N    N   GGGG   !!!           |
|                                                                             |
|     For optimal performance we recommend to set                             |
|       NCORE = 2 up to number-of-cores-per-socket                            |
|     NCORE specifies how many cores store one orbital (NPAR=cpu/NCORE).      |
|     This setting can greatly improve the performance of VASP for DFT.       |
|     The default, NCORE=1 might be grossly inefficient on modern             |
|     multi-core architectures or massively parallel machines. Do your        |
|     own testing! More info at https://www.vasp.at/wiki/index.php/NCORE      |
|     Unfortunately you need to use the default for GW and RPA                |
|     calculations (for HF NCORE is supported but not extensively tested      |
|     yet).                                                                   |
|                                                                             |
 -----------------------------------------------------------------------------

 POTCAR:    PAW_PBE Fe_pv 02Aug2007               
   SHA256 =  5d22e414b1f82158bf2c7ecb8b97b28fd0923e48cadc1c3bf74d524558f5dd32 Fe_pv/POTCAR          
   COPYR  = (c) Copyright 02Aug2007 Georg Kresse                                                    
   COPYR  = This file is part of the software VASP. Any use, copying, and all other rights are regul
   COPYR  = If you do not have a valid VASP license, you may not use, copy or distribute this file. 
   VRHFIN =Fe:  3pd7s1                                                                              
   LEXCH  = PE                                                                                      
   EATOM  =  2457.4239 eV,  180.6156 Ry                                                             
                                                                                                    
   TITEL  = PAW_PBE Fe_pv 02Aug2007                                                                 
   LULTRA =        F    use ultrasoft PP ?                                                          
   IUNSCR =        1    unscreen: 0-lin 1-nonlin 2-no                                               
   RPACOR =    1.750    partial core radius                                                         
   POMASS =   55.847; ZVAL   =   14.000    mass and valenz                                          
   RCORE  =    2.200    outmost cutoff radius                                                       
   RWIGS  =    2.200; RWIGS  =    1.164    wigner-seitz radius (au A)                               
   ENMAX  =  293.238; ENMIN  =  219.928 eV                                                          
   ICORE  =        3    local potential                                                             
   LCOR   =        T    correct aug charges                                                         
   LPAW   =        T    paw PP                                                                      
   EAUG   =  578.342                                                                                
   DEXC   =    0.000                                                                                
   RMAX   =    2.249    core radius for proj-oper                                                   
   RAUG   =    1.300    factor for augmentation sphere                                              
   RDEP   =    2.296    radius for radial grids                                                     
   RDEPT  =    1.766    core radius for aug-charge                                                  
                                                                                                    
   Atomic configuration                                                                             
    8 entries                                                                                       
     n  l   j            E        occ.                                                              
     1  0  0.50     -6993.8440   2.0000                                                             
     2  0  0.50      -814.6047   2.0000                                                             
     2  1  1.50      -693.3689   6.0000                                                             
     3  0  0.50       -89.4732   2.0000                                                             
     3  1  1.50       -55.6373   6.0000                                                             
     3  2  2.50        -3.8151   7.0000                                                             
     4  0  0.50        -4.2551   1.0000                                                             
     4  3  2.50        -1.3606   0.0000                                                             
   Description                                                                                      
     l       E           TYP  RCUT    TYP  RCUT                                                     
     1    -55.6372668     23  2.000                                                                 
     1     -5.4423304     23  2.000                                                                 
     2     -3.8151096     23  2.200                                                                 
     2     -5.1756922     23  2.200                                                                 
     0     -4.2550951     23  2.200                                                                 
     0     27.2116520     23  2.200                                                                 
     3     -1.3605826     23  2.200                                                                 
  local pseudopotential read in
  partial core-charges read in
  partial kinetic energy density read in
  atomic valenz-charges read in
  non local Contribution for L=           1  read in
    real space projection operators read in
  non local Contribution for L=           1  read in
    real space projection operators read in
  non local Contribution for L=           2  read in
    real space projection operators read in
  non local Contribution for L=           2  read in
    real space projection operators read in
  non local Contribution for L=           0  read in
    real space projection operators read in
  non local Contribution for L=           0  read in
    real space projection operators read in
    PAW grid and wavefunctions read in
 
   number of l-projection  operators is LMAX  =           6
   number of lm-projection operators is LMMAX =          18
 
 POTCAR:    PAW_PBE Pt 04Feb2005                  
   SHA256 =  3ed90460adef76debcff1cfb73ee1349b515b1a3db03439735b44de3a8db7dc8 Pt/POTCAR             
   COPYR  = (c) Copyright 04Feb2005 Georg Kresse                                                    
   COPYR  = This file is part of the software VASP. Any use, copying, and all other rights are regul
   COPYR  = If you do not have a valid VASP license, you may not use, copy or distribute this file. 
   VRHFIN =Pt: s1d9                                                                                 
   LEXCH  = PE                                                                                      
   EATOM  =   729.1176 eV,   53.5886 Ry                                                             
                                                                                                    
   TITEL  = PAW_PBE Pt 04Feb2005                                                                    
   LULTRA =        F    use ultrasoft PP ?                                                          
   IUNSCR =        1    unscreen: 0-lin 1-nonlin 2-no                                               
   RPACOR =    2.330    partial core radius                                                         
   POMASS =  195.080; ZVAL   =   10.000    mass and valenz                                          
   RCORE  =    2.600    outmost cutoff radius                                                       
   RWIGS  =    2.750; RWIGS  =    1.455    wigner-seitz radius (au A)                               
   ENMAX  =  230.283; ENMIN  =  172.712 eV                                                          
   ICORE  =        3    local potential                                                             
   LCOR   =        T    correct aug charges                                                         
   LPAW   =        T    paw PP                                                                      
   EAUG   =  358.966                                                                                
   DEXC   =    0.000                                                                                
   RMAX   =    2.658    core radius for proj-oper                                                   
   RAUG   =    1.300    factor for augmentation sphere                                              
   RDEP   =    2.761    radius for radial grids                                                     
   RDEPT  =    2.203    core radius for aug-charge                                                  
                                                                                                    
   Atomic configuration                                                                             
   16 entries                                                                                       
     n  l   j            E        occ.                                                              
     1  0  0.50    -78401.1885   2.0000                                                             
     2  0  0.50    -13770.7750   2.0000                                                             
     2  1  1.50    -11931.0468   6.0000                                                             
     3  0  0.50     -3234.7234   2.0000                                                             
     3  1  1.50     -2699.2216   6.0000                                                             
     3  2  2.50     -2119.5714  10.0000                                                             
     4  0  0.50      -695.1528   2.0000                                                             
     4  1  1.50      -519.6034   6.0000                                                             
     4  2  2.50      -306.6786  10.0000                                                             
     4  3  3.50       -70.1041  14.0000                                                             
     5  0  0.50      -101.7747   2.0000                                                             
     5  1  1.50       -55.9873   6.0000                                                             
     5  2  2.50        -6.1423   9.0000                                                             
     6  0  0.50        -5.6573   1.0000                                                             
     6  1  1.50        -6.8029   0.0000                                                             
     5  3  2.50        -1.3606   0.0000                                                             
   Description                                                                                      
     l       E           TYP  RCUT    TYP  RCUT                                                     
     2     -6.1423404     23  2.500                                                                 
     2     -7.5029230     23  2.500                                                                 
     0     -5.6573207     23  2.500                                                                 
     0      0.7416693     23  2.500                                                                 
     1     -2.7211652     23  2.600                                                                 
     1     20.4087390     23  2.600                                                                 
     3     -1.3605826     23  2.500                                                                 
  local pseudopotential read in
  partial core-charges read in
  partial kinetic energy density read in
  atomic valenz-charges read in
  non local Contribution for L=           2  read in
    real space projection operators read in
  non local Contribution for L=           2  read in
    real space projection operators read in
  non local Contribution for L=           0  read in
    real space projection operators read in
  non local Contribution for L=           0  read in
    real space projection operators read in
  non local Contribution for L=           1  read in
    real space projection operators read in
  non local Contribution for L=           1  read in
    real space projection operators read in
    PAW grid and wavefunctions read in
 
   number of l-projection  operators is LMAX  =           6
   number of lm-projection operators is LMMAX =          18
 
  PAW_PBE Fe_pv 02Aug2007               :
 energy of atom  1       EATOM=-2457.4239
 kinetic energy error for atom=    0.0062 (will be added to EATOM!!)
  PAW_PBE Pt 04Feb2005                  :
 energy of atom  2       EATOM= -729.1176
 kinetic energy error for atom=    0.0032 (will be added to EATOM!!)
 
 
 POSCAR: Fe9 Pt3
  positions in direct lattice
  velocities in cartesian coordinates


 exchange-correlation table for PE
   RHO(1)=    0.500       N(1)  =     2000
   RHO(2)=  100.500       N(2)  =     4000
 


--------------------------------------------------------------------------------------------------------


 ion  position               nearest neighbor table
   1  0.000  0.500  0.167-   4 2.56   4 2.56   5 2.56   5 2.56   7 2.57   7 2.57   7 2.57   7 2.57
                            10 2.60  10 2.60  11 2.60  11 2.60
   2  0.000  0.500  0.500-  11 2.56  11 2.56   8 2.57   8 2.57   8 2.57   8 2.57   6 2.58   6 2.58
                            12 2.58  12 2.58   5 2.60   5 2.60
   3  0.000  0.500  0.834-  10 2.56  10 2.56   9 2.57   9 2.57   9 2.57   9 2.57  12 2.58  12 2.58
                             6 2.58   6 2.58   4 2.60   4 2.60
   4  0.500  0.500  0.003-   1 2.56   7 2.56   7 2.56   1 2.56  10 2.57  10 2.57  10 2.57  10 2.57
                             9 2.60   3 2.60   9 2.60   3 2.60
   5  0.500  0.500  0.330-   1 2.56   7 2.56   7 2.56   1 2.56  11 2.57  11 2.57  11 2.57  11 2.57
                             8 2.60   2 2.60   8 2.60   2 2.60
   6  0.500  0.500  0.667-  12 2.57  12 2.57  12 2.57  12 2.57   8 2.58   2 2.58   2 2.58   8 2.58
                             9 2.58   3 2.58   9 2.58   3 2.58
   7  0.500  0.000  0.167-   4 2.56   4 2.56   5 2.56   5 2.56   1 2.57   1 2.57   1 2.57   1 2.57
                            10 2.60  10 2.60  11 2.60  11 2.60
   8  0.500  0.000  0.500-  11 2.56  11 2.56   2 2.57   2 2.57   2 2.57   2 2.57   6 2.58   6 2.58
                            12 2.58  12 2.58   5 2.60   5 2.60
   9  0.500  0.000  0.834-  10 2.56  10 2.56   3 2.57   3 2.57   3 2.57   3 2.57  12 2.58  12 2.58
                             6 2.58   6 2.58   4 2.60   4 2.60
  10  0.000  0.000  0.998-   3 2.56   9 2.56   3 2.56   9 2.56   4 2.57   4 2.57   4 2.57   4 2.57
                             1 2.60   7 2.60   7 2.60   1 2.60
  11  0.000  0.000  0.335-   2 2.56   8 2.56   2 2.56   8 2.56   5 2.57   5 2.57   5 2.57   5 2.57
                             1 2.60   7 2.60   7 2.60   1 2.60
  12  0.000  0.000  0.667-   6 2.57   6 2.57   6 2.57   6 2.57   2 2.58   8 2.58   8 2.58   2 2.58
                             3 2.58   3 2.58   9 2.58   9 2.58
 
  LATTYP: Found a simple tetragonal cell.
 ALAT       =     3.6315190218
 C/A-ratio  =     3.0276316199
  
  Lattice vectors:
  
 A1 = (   3.6315190218,   0.0000000000,   0.0000000000)
 A2 = (   0.0000000000,   3.6315190218,   0.0000000000)
 A3 = (   0.0000000000,   0.0000000000,  10.9949018187)


Analysis of symmetry for initial positions (statically):
=====================================================================
 Subroutine PRICEL returns:
 Original cell was already a primitive cell.
 

 Routine SETGRP: Setting up the symmetry group for a 
 simple tetragonal supercell.


 Subroutine GETGRP returns: Found  8 space group operations
 (whereof  8 operations were pure point group operations)
 out of a pool of 16 trial point group operations.


The static configuration has the point symmetry C_4v.


Analysis of symmetry for dynamics (positions and initial velocities):
=====================================================================
 Subroutine PRICEL returns:
 Original cell was already a primitive cell.
 

 Routine SETGRP: Setting up the symmetry group for a 
 simple tetragonal supercell.


 Subroutine GETGRP returns: Found  8 space group operations
 (whereof  8 operations were pure point group operations)
 out of a pool of 16 trial point group operations.


The dynamic configuration has the point symmetry C_4v.


Analysis of structural, dynamic, and magnetic symmetry:
=====================================================================
 Subroutine PRICEL returns:
 Original cell was already a primitive cell.
 

 Routine SETGRP: Setting up the symmetry group for a 
 simple tetragonal supercell.


 Subroutine GETGRP returns: Found  8 space group operations
 (whereof  8 operations were pure point group operations)
 out of a pool of 16 trial point group operations.


The overall configuration has the point symmetry C_4v.


 Subroutine INISYM returns: Found  8 space group operations
 (whereof  8 operations are pure point group operations),
 and found     1 'primitive' translations


----------------------------------------------------------------------------------------

                                     Primitive cell                                     

  volume of cell :     145.0000

  direct lattice vectors                    reciprocal lattice vectors
     3.631519022  0.000000000  0.000000000     0.275366863  0.000000000  0.000000000
     0.000000000  3.631519022  0.000000000     0.000000000  0.275366863  0.000000000
     0.000000000  0.000000000 10.994901819     0.000000000  0.000000000  0.090951244

  length of vectors
     3.631519022  3.631519022 10.994901819     0.275366863  0.275366863  0.090951244

  position of ions in fractional coordinates (direct lattice)
     0.000000000  0.500000000  0.166662448
     0.000000000  0.500000000  0.499565955
     0.000000000  0.500000000  0.833772608
     0.500000000  0.500000000  0.003094996
     0.500000000  0.500000000  0.330252151
     0.500000000  0.500000000  0.666649172
     0.500000000  0.000000000  0.166662448
     0.500000000  0.000000000  0.499565955
     0.500000000  0.000000000  0.833772608
     0.000000000  0.000000000  0.997909772
     0.000000000  0.000000000  0.335423547
     0.000000000  0.000000000  0.666668340

  ion indices of the primitive-cell ions
   primitive index   ion index
                 1           1
                 2           2
                 3           3
                 4           4
                 5           5
                 6           6
                 7           7
                 8           8
                 9           9
                10          10
                11          11
                12          12

----------------------------------------------------------------------------------------

 
 
 KPOINTS: pymatgen with grid density = 8800 / numb

Automatic generation of k-mesh.
 Grid dimensions read from file:
 generate k-points for:   13   13    4

 Generating k-lattice:

  Cartesian coordinates                     Fractional coordinates (reciprocal lattice)
     0.021182066  0.000000000  0.000000000     0.076923077  0.000000000  0.000000000
     0.000000000  0.021182066  0.000000000     0.000000000  0.076923077  0.000000000
     0.000000000  0.000000000  0.022737811     0.000000000  0.000000000  0.250000000

  Length of vectors
     0.021182066  0.021182066  0.022737811

  Shift w.r.t. Gamma in fractional coordinates (k-lattice)
     0.000000000  0.000000000  0.000000000

 TETIRR: Found   1010 inequivalent tetrahedra from     4056
 
 Subroutine IBZKPT returns following result:
 ===========================================
 
 Found     84 irreducible k-points:
 
 Following reciprocal coordinates:
            Coordinates               Weight
  0.000000  0.000000  0.000000      1.000000
  0.076923  0.000000  0.000000      4.000000
  0.153846  0.000000  0.000000      4.000000
  0.230769  0.000000  0.000000      4.000000
  0.307692  0.000000  0.000000      4.000000
  0.384615  0.000000  0.000000      4.000000
  0.461538  0.000000  0.000000      4.000000
  0.076923  0.076923  0.000000      4.000000
  0.153846  0.076923  0.000000      8.000000
  0.230769  0.076923  0.000000      8.000000
  0.307692  0.076923  0.000000      8.000000
  0.384615  0.076923  0.000000      8.000000
  0.461538  0.076923  0.000000      8.000000
  0.153846  0.153846  0.000000      4.000000
  0.230769  0.153846  0.000000      8.000000
  0.307692  0.153846  0.000000      8.000000
  0.384615  0.153846  0.000000      8.000000
  0.461538  0.153846  0.000000      8.000000
  0.230769  0.230769  0.000000      4.000000
  0.307692  0.230769  0.000000      8.000000
  0.384615  0.230769  0.000000      8.000000
  0.461538  0.230769  0.000000      8.000000
  0.307692  0.307692  0.000000      4.000000
  0.384615  0.307692  0.000000      8.000000
  0.461538  0.307692  0.000000      8.000000
  0.384615  0.384615  0.000000      4.000000
  0.461538  0.384615  0.000000      8.000000
  0.461538  0.461538  0.000000      4.000000
  0.000000  0.000000  0.250000      2.000000
  0.076923  0.000000  0.250000      8.000000
  0.153846  0.000000  0.250000      8.000000
  0.230769  0.000000  0.250000      8.000000
  0.307692  0.000000  0.250000      8.000000
  0.384615  0.000000  0.250000      8.000000
  0.461538  0.000000  0.250000      8.000000
  0.076923  0.076923  0.250000      8.000000
  0.153846  0.076923  0.250000     16.000000
  0.230769  0.076923  0.250000     16.000000
  0.307692  0.076923  0.250000     16.000000
  0.384615  0.076923  0.250000     16.000000
  0.461538  0.076923  0.250000     16.000000
  0.153846  0.153846  0.250000      8.000000
  0.230769  0.153846  0.250000     16.000000
  0.307692  0.153846  0.250000     16.000000
  0.384615  0.153846  0.250000     16.000000
  0.461538  0.153846  0.250000     16.000000
  0.230769  0.230769  0.250000      8.000000
  0.307692  0.230769  0.250000     16.000000
  0.384615  0.230769  0.250000     16.000000
  0.461538  0.230769  0.250000     16.000000
  0.307692  0.307692  0.250000      8.000000
  0.384615  0.307692  0.250000     16.000000
  0.461538  0.307692  0.250000     16.000000
  0.384615  0.384615  0.250000      8.000000
  0.461538  0.384615  0.250000     16.000000
  0.461538  0.461538  0.250000      8.000000
  0.000000  0.000000  0.500000      1.000000
  0.076923  0.000000  0.500000      4.000000
  0.153846  0.000000  0.500000      4.000000
  0.230769  0.000000  0.500000      4.000000
  0.307692  0.000000  0.500000      4.000000
  0.384615  0.000000  0.500000      4.000000
  0.461538  0.000000  0.500000      4.000000
  0.076923  0.076923  0.500000      4.000000
  0.153846  0.076923  0.500000      8.000000
  0.230769  0.076923  0.500000      8.000000
  0.307692  0.076923  0.500000      8.000000
  0.384615  0.076923  0.500000      8.000000
  0.461538  0.076923  0.500000      8.000000
  0.153846  0.153846  0.500000      4.000000
  0.230769  0.153846  0.500000      8.000000
  0.307692  0.153846  0.500000      8.000000
  0.384615  0.153846  0.500000      8.000000
  0.461538  0.153846  0.500000      8.000000
  0.230769  0.230769  0.500000      4.000000
  0.307692  0.230769  0.500000      8.000000
  0.384615  0.230769  0.500000      8.000000
  0.461538  0.230769  0.500000      8.000000
  0.307692  0.307692  0.500000      4.000000
  0.384615  0.307692  0.500000      8.000000
  0.461538  0.307692  0.500000      8.000000
  0.384615  0.384615  0.500000      4.000000
  0.461538  0.384615  0.500000      8.000000
  0.461538  0.461538  0.500000      4.000000
 
 Following cartesian coordinates:
            Coordinates               Weight
  0.000000  0.000000  0.000000      1.000000
  0.021182  0.000000  0.000000      4.000000
  0.042364  0.000000  0.000000      4.000000
  0.063546  0.000000  0.000000      4.000000
  0.084728  0.000000  0.000000      4.000000
  0.105910  0.000000  0.000000      4.000000
  0.127092  0.000000  0.000000      4.000000
  0.021182  0.021182  0.000000      4.000000
  0.042364  0.021182  0.000000      8.000000
  0.063546  0.021182  0.000000      8.000000
  0.084728  0.021182  0.000000      8.000000
  0.105910  0.021182  0.000000      8.000000
  0.127092  0.021182  0.000000      8.000000
  0.042364  0.042364  0.000000      4.000000
  0.063546  0.042364  0.000000      8.000000
  0.084728  0.042364  0.000000      8.000000
  0.105910  0.042364  0.000000      8.000000
  0.127092  0.042364  0.000000      8.000000
  0.063546  0.063546  0.000000      4.000000
  0.084728  0.063546  0.000000      8.000000
  0.105910  0.063546  0.000000      8.000000
  0.127092  0.063546  0.000000      8.000000
  0.084728  0.084728  0.000000      4.000000
  0.105910  0.084728  0.000000      8.000000
  0.127092  0.084728  0.000000      8.000000
  0.105910  0.105910  0.000000      4.000000
  0.127092  0.105910  0.000000      8.000000
  0.127092  0.127092  0.000000      4.000000
  0.000000  0.000000  0.022738      2.000000
  0.021182  0.000000  0.022738      8.000000
  0.042364  0.000000  0.022738      8.000000
  0.063546  0.000000  0.022738      8.000000
  0.084728  0.000000  0.022738      8.000000
  0.105910  0.000000  0.022738      8.000000
  0.127092  0.000000  0.022738      8.000000
  0.021182  0.021182  0.022738      8.000000
  0.042364  0.021182  0.022738     16.000000
  0.063546  0.021182  0.022738     16.000000
  0.084728  0.021182  0.022738     16.000000
  0.105910  0.021182  0.022738     16.000000
  0.127092  0.021182  0.022738     16.000000
  0.042364  0.042364  0.022738      8.000000
  0.063546  0.042364  0.022738     16.000000
  0.084728  0.042364  0.022738     16.000000
  0.105910  0.042364  0.022738     16.000000
  0.127092  0.042364  0.022738     16.000000
  0.063546  0.063546  0.022738      8.000000
  0.084728  0.063546  0.022738     16.000000
  0.105910  0.063546  0.022738     16.000000
  0.127092  0.063546  0.022738     16.000000
  0.084728  0.084728  0.022738      8.000000
  0.105910  0.084728  0.022738     16.000000
  0.127092  0.084728  0.022738     16.000000
  0.105910  0.105910  0.022738      8.000000
  0.127092  0.105910  0.022738     16.000000
  0.127092  0.127092  0.022738      8.000000
  0.000000  0.000000  0.045476      1.000000
  0.021182  0.000000  0.045476      4.000000
  0.042364  0.000000  0.045476      4.000000
  0.063546  0.000000  0.045476      4.000000
  0.084728  0.000000  0.045476      4.000000
  0.105910  0.000000  0.045476      4.000000
  0.127092  0.000000  0.045476      4.000000
  0.021182  0.021182  0.045476      4.000000
  0.042364  0.021182  0.045476      8.000000
  0.063546  0.021182  0.045476      8.000000
  0.084728  0.021182  0.045476      8.000000
  0.105910  0.021182  0.045476      8.000000
  0.127092  0.021182  0.045476      8.000000
  0.042364  0.042364  0.045476      4.000000
  0.063546  0.042364  0.045476      8.000000
  0.084728  0.042364  0.045476      8.000000
  0.105910  0.042364  0.045476      8.000000
  0.127092  0.042364  0.045476      8.000000
  0.063546  0.063546  0.045476      4.000000
  0.084728  0.063546  0.045476      8.000000
  0.105910  0.063546  0.045476      8.000000
  0.127092  0.063546  0.045476      8.000000
  0.084728  0.084728  0.045476      4.000000
  0.105910  0.084728  0.045476      8.000000
  0.127092  0.084728  0.045476      8.000000
  0.105910  0.105910  0.045476      4.000000
  0.127092  0.105910  0.045476      8.000000
  0.127092  0.127092  0.045476      4.000000
 


--------------------------------------------------------------------------------------------------------




 Dimension of arrays:
   k-points           NKPTS =     84   k-points in BZ     NKDIM =     84   number of bands    NBANDS=     96
   number of dos      NEDOS =    301   number of ions     NIONS =     12
   non local maximal  LDIM  =      6   non local SUM 2l+1 LMDIM =     18
   total plane-waves  NPLWV =  65856
   max r-space proj   IRMAX =      1   max aug-charges    IRDMAX=  27705
   dimension x,y,z NGX =    28 NGY =   28 NGZ =   84
   dimension x,y,z NGXF=    56 NGYF=   56 NGZF=  168
   support grid    NGXF=    56 NGYF=   56 NGZF=  168
   ions per type =               9   3
   NGX,Y,Z   is equivalent  to a cutoff of  12.82, 12.82, 12.70 a.u.
   NGXF,Y,Z  is equivalent  to a cutoff of  25.64, 25.64, 25.40 a.u.

 SYSTEM =  unknown system                          
 POSCAR =  Fe9 Pt3                                 

 Startparameter for this run:
   NWRITE =      2    write-flag & timer
   PREC   = accura    normal or accurate (medium, high low for compatibility)
   ISTART =      0    job   : 0-new  1-cont  2-samecut
   ICHARG =      2    charge: 1-file 2-atom 10-const
   ISPIN  =      2    spin polarized calculation?
   LNONCOLLINEAR =      F non collinear calculations
   LSORBIT =      F    spin-orbit coupling
   INIWAV =      1    electr: 0-lowe 1-rand  2-diag
   LASPH  =      F    aspherical Exc in radial PAW
 Electronic Relaxation 1
   ENCUT  =  520.0 eV  38.22 Ry    6.18 a.u.   6.75  6.75 20.44*2*pi/ulx,y,z
   ENINI  =  520.0     initial cutoff
   ENAUG  =  578.3 eV  augmentation charge cutoff
   NELM   =    200;   NELMIN=  2; NELMDL=  0     # of ELM steps 
   EDIFF  = 0.1E-05   stopping-criterion for ELM
   LREAL  =      F    real-space projection
   NLSPLINE    = F    spline interpolate recip. space projectors
   LCOMPAT=      F    compatible to vasp.4.4
   GGA_COMPAT  = T    GGA compatible to vasp.4.4-vasp.4.6
   LMAXPAW     = -100 max onsite density
   LMAXMIX     =    2 max onsite mixed and CHGCAR
   VOSKOWN=      0    Vosko Wilk Nusair interpolation
   ROPT   =    0.00000   0.00000
 Ionic relaxation
   EDIFFG = -.1E-01   stopping-criterion for IOM
   NSW    =      0    number of steps for IOM
   NBLOCK =      1;   KBLOCK =      1    inner block; outer block 
   IBRION =     -1    ionic relax: 0-MD 1-quasi-New 2-CG
   NFREE  =      0    steps in history (QN), initial steepest desc. (CG)
   ISIF   =      4    stress and relaxation
   IWAVPR =     10    prediction:  0-non 1-charg 2-wave 3-comb
   ISYM   =      2    0-nonsym 1-usesym 2-fastsym
   LCORR  =      T    Harris-Foulkes like correction to forces

   POTIM  = 0.5000    time-step for ionic-motion
   TEIN   =    0.0    initial temperature
   TEBEG  =    0.0;   TEEND  =   0.0 temperature during run
   SMASS  =  -3.00    Nose mass-parameter (am)
   estimated Nose-frequenzy (Omega)   =  0.10E-29 period in steps = 0.13E+47 mass=  -0.301E-27a.u.
   SCALEE = 1.0000    scale energy and forces
   NPACO  =    256;   APACO  = 10.0  distance and # of slots for P.C.
   PSTRESS=    0.0 pullay stress

  Mass of Ions in am
   POMASS =  55.85195.08
  Ionic Valenz
   ZVAL   =  14.00 10.00
  Atomic Wigner-Seitz radii
   RWIGS  =  -1.00 -1.00
  virtual crystal weights 
   VCA    =   1.00  1.00
   NELECT =     156.0000    total number of electrons
   NUPDOWN=      -1.0000    fix difference up-down

 DOS related values:
   EMIN   =  10.00;   EMAX   =-10.00  energy-range for DOS
   EFERMI =   0.00;   METHOD = LEGACY      
   ISMEAR =    -5;   SIGMA  =   0.20  broadening in eV -4-tet -1-fermi 0-gaus

 Electronic relaxation 2 (details)
   IALGO  =     38    algorithm
   LDIAG  =      T    sub-space diagonalisation (order eigenvalues)
   LSUBROT=      F    optimize rotation matrix (better conditioning)
   TURBO    =      0    0=normal 1=particle mesh
   IRESTART =      0    0=no restart 2=restart with 2 vectors
   NREBOOT  =      0    no. of reboots
   NMIN     =      0    reboot dimension
   EREF     =   0.00    reference energy to select bands
   IMIX   =      4    mixing-type and parameters
     AMIX     =   0.40;   BMIX     =  1.00
     AMIX_MAG =   1.60;   BMIX_MAG =  1.00
     AMIN     =   0.10
     WC   =   100.;   INIMIX=   1;  MIXPRE=   1;  MAXMIX= -45

 Intra band minimization:
   WEIMIN = 0.0000     energy-eigenvalue tresh-hold
   EBREAK =  0.26E-08  absolut break condition
   DEPER  =   0.30     relativ break condition  

   TIME   =   0.40     timestep for ELM

  volume/ion in A,a.u.               =      12.08        81.54
  Fermi-wavevector in a.u.,A,eV,Ry     =   1.677492  3.170000 38.286498  2.813978
  Thomas-Fermi vector in A             =   2.761748
 
 Write flags
   LWAVE        =      F    write WAVECAR
   LDOWNSAMPLE  =      F    k-point downsampling of WAVECAR
   LCHARG       =      T    write CHGCAR
   LVTOT        =      F    write LOCPOT, total local potential
   LVHAR        =      F    write LOCPOT, Hartree potential only
   WRT_POTENTIAL= false  ! write potential to hdf5 file
   LELF         =      F    write electronic localiz. function (ELF)
   LORBIT       =     11    0 simple, 1 ext, 2 COOP (PROOUT), +10 PAW based schemes


 Dipole corrections
   LMONO      =      F    monopole corrections only (constant potential shift)
   LDIPOL     =      F    correct potential (dipole corrections)
   IDIPOL     =      0    1-x, 2-y, 3-z, 4-all directions 
   EPSILON    =  1.0000000 bulk dielectric constant
   LVACPOTAV  =      F  vacuum potentials using an averaging scheme for the charge density
   VACPOTFLAT =  0.1000000 required flatness to determine vacuum potential
 Exchange correlation treatment:
   GGA     = PE    functional components
   XC_C    = 1    coefficients multiplying the functional components
   LIBXC   =     F    Libxc                    
   VOSKOWN =     0    Vosko Wilk Nusair interpolation
   LHFCALC =     F    Hartree Fock is set to
   LHFONE  =     F    Hartree Fock one center treatment
   AEXX    =    0.0000 exact exchange contribution

 Parameters of functionals:
   PE:
     No parameter
 
 Van der Waals corrections
   IVDW    =     0    specifies the selected vdW correction

 Linear response parameters
   LEPSILON=     F    determine dielectric tensor
   LRPA    =     F    only Hartree local field effects (RPA)
   LNABLA  =     F    use nabla operator in PAW spheres
   LVEL    =     F    velocity operator in full k-point grid
   CSHIFT  =0.1000    complex shift for real part using Kramers Kronig
   OMEGAMAX=  -1.0    maximum frequency
   DEG_THRESHOLD= 0.2000000E-02 threshold for treating states as degnerate
   RTIME   =   -0.100 relaxation time in fs
  (WPLASMAI=    0.000 imaginary part of plasma frequency in eV, 0.658/RTIME)
   DFIELD  = 0.0000000 0.0000000 0.0000000 field for delta impulse in time
 
  Optional k-point grid parameters
   LKPOINTS_OPT  =     F    use optional k-point grid
   KPOINTS_OPT_MODE=     1    mode for optional k-point grid
 
 Orbital magnetization related:
   ORBITALMAG=     F  switch on orbital magnetization
   LCHIMAG   =     F  perturbation theory with respect to B field
   DQ        =  0.001000  dq finite difference perturbation B field
   LLRAUG    =     F  two centre corrections for induced B field
   LBONE     =     F  B-component reconstruction in AE one-centre
   LVGVCALC  =     T  calculate vGv susceptibility
   LVGVAPPL  =     F  apply vGv susceptibility instead of pGv for G=0

 Random number generation:
   RANDOM_GENERATOR = DEFAULT
   PCG_SEED         = not used


--------------------------------------------------------------------------------------------------------


 Static calculation
 charge density and potential will be updated during run
 spin polarized calculation
 Variant of blocked Davidson
 Davidson routine will perform the subspace rotation
 perform sub-space diagonalisation
    after iterative eigenvector-optimisation
 modified Broyden-mixing scheme, WC =      100.0
 initial mixing is a Kerker type mixing with AMIX =  0.4000 and BMIX =      1.0000
 Hartree-type preconditioning will be used
 using additional bands           18
 reciprocal scheme for non local part
 use partial core corrections
 calculate Harris-corrections to forces 
   (improved forces if not selfconsistent)
 use gradient corrections 
 use of overlap-Matrix (Vanderbilt PP)
 Fermi weights with tetrahedron method with Bloechl corrections


--------------------------------------------------------------------------------------------------------


  energy-cutoff  :      520.00
  volume of cell :      145.00
      direct lattice vectors                 reciprocal lattice vectors
     3.631519022  0.000000000  0.000000000     0.275366863  0.000000000  0.000000000
     0.000000000  3.631519022  0.000000000     0.000000000  0.275366863  0.000000000
     0.000000000  0.000000000 10.994901819     0.000000000  0.000000000  0.090951244

  length of vectors
     3.631519022  3.631519022 10.994901819     0.275366863  0.275366863  0.090951244


 
 k-points in units of 2pi/SCALE and weight: pymatgen with grid density = 8800 / numb
   0.00000000  0.00000000  0.00000000       0.001
   0.02118207  0.00000000  0.00000000       0.006
   0.04236413  0.00000000  0.00000000       0.006
   0.06354620  0.00000000  0.00000000       0.006
   0.08472827  0.00000000  0.00000000       0.006
   0.10591033  0.00000000  0.00000000       0.006
   0.12709240  0.00000000  0.00000000       0.006
   0.02118207  0.02118207  0.00000000       0.006
   0.04236413  0.02118207  0.00000000       0.012
   0.06354620  0.02118207  0.00000000       0.012
   0.08472827  0.02118207  0.00000000       0.012
   0.10591033  0.02118207  0.00000000       0.012
   0.12709240  0.02118207  0.00000000       0.012
   0.04236413  0.04236413  0.00000000       0.006
   0.06354620  0.04236413  0.00000000       0.012
   0.08472827  0.04236413  0.00000000       0.012
   0.10591033  0.04236413  0.00000000       0.012
   0.12709240  0.04236413  0.00000000       0.012
   0.06354620  0.06354620  0.00000000       0.006
   0.08472827  0.06354620  0.00000000       0.012
   0.10591033  0.06354620  0.00000000       0.012
   0.12709240  0.06354620  0.00000000       0.012
   0.08472827  0.08472827  0.00000000       0.006
   0.10591033  0.08472827  0.00000000       0.012
   0.12709240  0.08472827  0.00000000       0.012
   0.10591033  0.10591033  0.00000000       0.006
   0.12709240  0.10591033  0.00000000       0.012
   0.12709240  0.12709240  0.00000000       0.006
   0.00000000  0.00000000  0.02273781       0.003
   0.02118207  0.00000000  0.02273781       0.012
   0.04236413  0.00000000  0.02273781       0.012
   0.06354620  0.00000000  0.02273781       0.012
   0.08472827  0.00000000  0.02273781       0.012
   0.10591033  0.00000000  0.02273781       0.012
   0.12709240  0.00000000  0.02273781       0.012
   0.02118207  0.02118207  0.02273781       0.012
   0.04236413  0.02118207  0.02273781       0.024
   0.06354620  0.02118207  0.02273781       0.024
   0.08472827  0.02118207  0.02273781       0.024
   0.10591033  0.02118207  0.02273781       0.024
   0.12709240  0.02118207  0.02273781       0.024
   0.04236413  0.04236413  0.02273781       0.012
   0.06354620  0.04236413  0.02273781       0.024
   0.08472827  0.04236413  0.02273781       0.024
   0.10591033  0.04236413  0.02273781       0.024
   0.12709240  0.04236413  0.02273781       0.024
   0.06354620  0.06354620  0.02273781       0.012
   0.08472827  0.06354620  0.02273781       0.024
   0.10591033  0.06354620  0.02273781       0.024
   0.12709240  0.06354620  0.02273781       0.024
   0.08472827  0.08472827  0.02273781       0.012
   0.10591033  0.08472827  0.02273781       0.024
   0.12709240  0.08472827  0.02273781       0.024
   0.10591033  0.10591033  0.02273781       0.012
   0.12709240  0.10591033  0.02273781       0.024
   0.12709240  0.12709240  0.02273781       0.012
   0.00000000  0.00000000  0.04547562       0.001
   0.02118207  0.00000000  0.04547562       0.006
   0.04236413  0.00000000  0.04547562       0.006
   0.06354620  0.00000000  0.04547562       0.006
   0.08472827  0.00000000  0.04547562       0.006
   0.10591033  0.00000000  0.04547562       0.006
   0.12709240  0.00000000  0.04547562       0.006
   0.02118207  0.02118207  0.04547562       0.006
   0.04236413  0.02118207  0.04547562       0.012
   0.06354620  0.02118207  0.04547562       0.012
   0.08472827  0.02118207  0.04547562       0.012
   0.10591033  0.02118207  0.04547562       0.012
   0.12709240  0.02118207  0.04547562       0.012
   0.04236413  0.04236413  0.04547562       0.006
   0.06354620  0.04236413  0.04547562       0.012
   0.08472827  0.04236413  0.04547562       0.012
   0.10591033  0.04236413  0.04547562       0.012
   0.12709240  0.04236413  0.04547562       0.012
   0.06354620  0.06354620  0.04547562       0.006
   0.08472827  0.06354620  0.04547562       0.012
   0.10591033  0.06354620  0.04547562       0.012
   0.12709240  0.06354620  0.04547562       0.012
   0.08472827  0.08472827  0.04547562       0.006
   0.10591033  0.08472827  0.04547562       0.012
   0.12709240  0.08472827  0.04547562       0.012
   0.10591033  0.10591033  0.04547562       0.006
   0.12709240  0.10591033  0.04547562       0.012
   0.12709240  0.12709240  0.04547562       0.006
 
 k-points in reciprocal lattice and weights: pymatgen with grid density = 8800 / numb
   0.00000000  0.00000000  0.00000000       0.001
   0.07692308  0.00000000  0.00000000       0.006
   0.15384615  0.00000000  0.00000000       0.006
   0.23076923  0.00000000  0.00000000       0.006
   0.30769231  0.00000000  0.00000000       0.006
   0.38461538  0.00000000  0.00000000       0.006
   0.46153846  0.00000000  0.00000000       0.006
   0.07692308  0.07692308  0.00000000       0.006
   0.15384615  0.07692308  0.00000000       0.012
   0.23076923  0.07692308  0.00000000       0.012
   0.30769231  0.07692308  0.00000000       0.012
   0.38461538  0.07692308  0.00000000       0.012
   0.46153846  0.07692308  0.00000000       0.012
   0.15384615  0.15384615  0.00000000       0.006
   0.23076923  0.15384615  0.00000000       0.012
   0.30769231  0.15384615  0.00000000       0.012
   0.38461538  0.15384615  0.00000000       0.012
   0.46153846  0.15384615  0.00000000       0.012
   0.23076923  0.23076923  0.00000000       0.006
   0.30769231  0.23076923  0.00000000       0.012
   0.38461538  0.23076923  0.00000000       0.012
   0.46153846  0.23076923  0.00000000       0.012
   0.30769231  0.30769231  0.00000000       0.006
   0.38461538  0.30769231  0.00000000       0.012
   0.46153846  0.30769231  0.00000000       0.012
   0.38461538  0.38461538  0.00000000       0.006
   0.46153846  0.38461538  0.00000000       0.012
   0.46153846  0.46153846  0.00000000       0.006
   0.00000000  0.00000000  0.25000000       0.003
   0.07692308  0.00000000  0.25000000       0.012
   0.15384615  0.00000000  0.25000000       0.012
   0.23076923  0.00000000  0.25000000       0.012
   0.30769231  0.00000000  0.25000000       0.012
   0.38461538  0.00000000  0.25000000       0.012
   0.46153846  0.00000000  0.25000000       0.012
   0.07692308  0.07692308  0.25000000       0.012
   0.15384615  0.07692308  0.25000000       0.024
   0.23076923  0.07692308  0.25000000       0.024
   0.30769231  0.07692308  0.25000000       0.024
   0.38461538  0.07692308  0.25000000       0.024
   0.46153846  0.07692308  0.25000000       0.024
   0.15384615  0.15384615  0.25000000       0.012
   0.23076923  0.15384615  0.25000000       0.024
   0.30769231  0.15384615  0.25000000       0.024
   0.38461538  0.15384615  0.25000000       0.024
   0.46153846  0.15384615  0.25000000       0.024
   0.23076923  0.23076923  0.25000000       0.012
   0.30769231  0.23076923  0.25000000       0.024
   0.38461538  0.23076923  0.25000000       0.024
   0.46153846  0.23076923  0.25000000       0.024
   0.30769231  0.30769231  0.25000000       0.012
   0.38461538  0.30769231  0.25000000       0.024
   0.46153846  0.30769231  0.25000000       0.024
   0.38461538  0.38461538  0.25000000       0.012
   0.46153846  0.38461538  0.25000000       0.024
   0.46153846  0.46153846  0.25000000       0.012
   0.00000000  0.00000000  0.50000000       0.001
   0.07692308  0.00000000  0.50000000       0.006
   0.15384615  0.00000000  0.50000000       0.006
   0.23076923  0.00000000  0.50000000       0.006
   0.30769231  0.00000000  0.50000000       0.006
   0.38461538  0.00000000  0.50000000       0.006
   0.46153846  0.00000000  0.50000000       0.006
   0.07692308  0.07692308  0.50000000       0.006
   0.15384615  0.07692308  0.50000000       0.012
   0.23076923  0.07692308  0.50000000       0.012
   0.30769231  0.07692308  0.50000000       0.012
   0.38461538  0.07692308  0.50000000       0.012
   0.46153846  0.07692308  0.50000000       0.012
   0.15384615  0.15384615  0.50000000       0.006
   0.23076923  0.15384615  0.50000000       0.012
   0.30769231  0.15384615  0.50000000       0.012
   0.38461538  0.15384615  0.50000000       0.012
   0.46153846  0.15384615  0.50000000       0.012
   0.23076923  0.23076923  0.50000000       0.006
   0.30769231  0.23076923  0.50000000       0.012
   0.38461538  0.23076923  0.50000000       0.012
   0.46153846  0.23076923  0.50000000       0.012
   0.30769231  0.30769231  0.50000000       0.006
   0.38461538  0.30769231  0.50000000       0.012
   0.46153846  0.30769231  0.50000000       0.012
   0.38461538  0.38461538  0.50000000       0.006
   0.46153846  0.38461538  0.50000000       0.012
   0.46153846  0.46153846  0.50000000       0.006
 
 position of ions in fractional coordinates (direct lattice) 
   0.00000000  0.50000000  0.16666245
   0.00000000  0.50000000  0.49956595
   0.00000000  0.50000000  0.83377261
   0.50000000  0.50000000  0.00309500
   0.50000000  0.50000000  0.33025215
   0.50000000  0.50000000  0.66664917
   0.50000000  0.00000000  0.16666245
   0.50000000  0.00000000  0.49956595
   0.50000000  0.00000000  0.83377261
   0.00000000  0.00000000  0.99790977
   0.00000000  0.00000000  0.33542355
   0.00000000  0.00000000  0.66666834
 
 position of ions in cartesian coordinates  (Angst):
   0.00000000  1.81575951  1.83243725
   0.00000000  1.81575951  5.49267863
   0.00000000  1.81575951  9.16724797
   1.81575951  1.81575951  0.03402917
   1.81575951  1.81575951  3.63108998
   1.81575951  1.81575951  7.32974219
   1.81575951  0.00000000  1.83243725
   1.81575951  0.00000000  5.49267863
   1.81575951  0.00000000  9.16724797
   0.00000000  0.00000000 10.97191997
   0.00000000  0.00000000  3.68794896
   0.00000000  0.00000000  7.32995294
 


--------------------------------------------------------------------------------------------------------


 k-point     1 :   0.0000 0.0000 0.0000  plane waves:    3945
 k-point     2 :   0.0769 0.0000 0.0000  plane waves:    3929
 k-point     3 :   0.1538 0.0000 0.0000  plane waves:    3915
 k-point     4 :   0.2308 0.0000 0.0000  plane waves:    3915
 k-point     5 :   0.3077 0.0000 0.0000  plane waves:    3910
 k-point     6 :   0.3846 0.0000 0.0000  plane waves:    3896
 k-point     7 :   0.4615 0.0000 0.0000  plane waves:    3896
 k-point     8 :   0.0769 0.0769 0.0000  plane waves:    3925
 k-point     9 :   0.1538 0.0769 0.0000  plane waves:    3916
 k-point    10 :   0.2308 0.0769 0.0000  plane waves:    3916
 k-point    11 :   0.3077 0.0769 0.0000  plane waves:    3902
 k-point    12 :   0.3846 0.0769 0.0000  plane waves:    3900
 k-point    13 :   0.4615 0.0769 0.0000  plane waves:    3886
 k-point    14 :   0.1538 0.1538 0.0000  plane waves:    3913
 k-point    15 :   0.2308 0.1538 0.0000  plane waves:    3904
 k-point    16 :   0.3077 0.1538 0.0000  plane waves:    3907
 k-point    17 :   0.3846 0.1538 0.0000  plane waves:    3911
 k-point    18 :   0.4615 0.1538 0.0000  plane waves:    3911
 k-point    19 :   0.2308 0.2308 0.0000  plane waves:    3880
 k-point    20 :   0.3077 0.2308 0.0000  plane waves:    3884
 k-point    21 :   0.3846 0.2308 0.0000  plane waves:    3892
 k-point    22 :   0.4615 0.2308 0.0000  plane waves:    3902
 k-point    23 :   0.3077 0.3077 0.0000  plane waves:    3896
 k-point    24 :   0.3846 0.3077 0.0000  plane waves:    3906
 k-point    25 :   0.4615 0.3077 0.0000  plane waves:    3915
 k-point    26 :   0.3846 0.3846 0.0000  plane waves:    3912
 k-point    27 :   0.4615 0.3846 0.0000  plane waves:    3912
 k-point    28 :   0.4615 0.4615 0.0000  plane waves:    3908
 k-point    29 :   0.0000 0.0000 0.2500  plane waves:    3929
 k-point    30 :   0.0769 0.0000 0.2500  plane waves:    3910
 k-point    31 :   0.1538 0.0000 0.2500  plane waves:    3906
 k-point    32 :   0.2308 0.0000 0.2500  plane waves:    3903
 k-point    33 :   0.3077 0.0000 0.2500  plane waves:    3906
 k-point    34 :   0.3846 0.0000 0.2500  plane waves:    3906
 k-point    35 :   0.4615 0.0000 0.2500  plane waves:    3886
 k-point    36 :   0.0769 0.0769 0.2500  plane waves:    3908
 k-point    37 :   0.1538 0.0769 0.2500  plane waves:    3919
 k-point    38 :   0.2308 0.0769 0.2500  plane waves:    3903
 k-point    39 :   0.3077 0.0769 0.2500  plane waves:    3906
 k-point    40 :   0.3846 0.0769 0.2500  plane waves:    3900
 k-point    41 :   0.4615 0.0769 0.2500  plane waves:    3888
 k-point    42 :   0.1538 0.1538 0.2500  plane waves:    3899
 k-point    43 :   0.2308 0.1538 0.2500  plane waves:    3897
 k-point    44 :   0.3077 0.1538 0.2500  plane waves:    3898
 k-point    45 :   0.3846 0.1538 0.2500  plane waves:    3902
 k-point    46 :   0.4615 0.1538 0.2500  plane waves:    3893
 k-point    47 :   0.2308 0.2308 0.2500  plane waves:    3900
 k-point    48 :   0.3077 0.2308 0.2500  plane waves:    3899
 k-point    49 :   0.3846 0.2308 0.2500  plane waves:    3896
 k-point    50 :   0.4615 0.2308 0.2500  plane waves:    3902
 k-point    51 :   0.3077 0.3077 0.2500  plane waves:    3895
 k-point    52 :   0.3846 0.3077 0.2500  plane waves:    3903
 k-point    53 :   0.4615 0.3077 0.2500  plane waves:    3905
 k-point    54 :   0.3846 0.3846 0.2500  plane waves:    3912
 k-point    55 :   0.4615 0.3846 0.2500  plane waves:    3931
 k-point    56 :   0.4615 0.4615 0.2500  plane waves:    3939
 k-point    57 :   0.0000 0.0000 0.5000  plane waves:    3872
 k-point    58 :   0.0769 0.0000 0.5000  plane waves:    3892
 k-point    59 :   0.1538 0.0000 0.5000  plane waves:    3908
 k-point    60 :   0.2308 0.0000 0.5000  plane waves:    3910
 k-point    61 :   0.3077 0.0000 0.5000  plane waves:    3912
 k-point    62 :   0.3846 0.0000 0.5000  plane waves:    3912
 k-point    63 :   0.4615 0.0000 0.5000  plane waves:    3884
 k-point    64 :   0.0769 0.0769 0.5000  plane waves:    3888
 k-point    65 :   0.1538 0.0769 0.5000  plane waves:    3900
 k-point    66 :   0.2308 0.0769 0.5000  plane waves:    3900
 k-point    67 :   0.3077 0.0769 0.5000  plane waves:    3904
 k-point    68 :   0.3846 0.0769 0.5000  plane waves:    3912
 k-point    69 :   0.4615 0.0769 0.5000  plane waves:    3900
 k-point    70 :   0.1538 0.1538 0.5000  plane waves:    3904
 k-point    71 :   0.2308 0.1538 0.5000  plane waves:    3912
 k-point    72 :   0.3077 0.1538 0.5000  plane waves:    3902
 k-point    73 :   0.3846 0.1538 0.5000  plane waves:    3890
 k-point    74 :   0.4615 0.1538 0.5000  plane waves:    3888
 k-point    75 :   0.2308 0.2308 0.5000  plane waves:    3908
 k-point    76 :   0.3077 0.2308 0.5000  plane waves:    3894
 k-point    77 :   0.3846 0.2308 0.5000  plane waves:    3898
 k-point    78 :   0.4615 0.2308 0.5000  plane waves:    3906
 k-point    79 :   0.3077 0.3077 0.5000  plane waves:    3914
 k-point    80 :   0.3846 0.3077 0.5000  plane waves:    3902
 k-point    81 :   0.4615 0.3077 0.5000  plane waves:    3918
 k-point    82 :   0.3846 0.3846 0.5000  plane waves:    3912
 k-point    83 :   0.4615 0.3846 0.5000  plane waves:    3924
 k-point    84 :   0.4615 0.4615 0.5000  plane waves:    3924

 maximum and minimum number of plane-waves per node :      3945     3872

 maximum number of plane-waves:      3945
 maximum index in each direction: 
   IXMAX=    6   IYMAX=    6   IZMAX=   20
   IXMIN=   -7   IYMIN=   -7   IZMIN=  -20


 serial   3D FFT for wavefunctions
 parallel 3D FFT for charge:
    minimum data exchange during FFTs selected (reduces bandwidth)


 total amount of memory used by VASP MPI-rank0   168633. kBytes
=======================================================================

   base      :      30000. kBytes
   nonl-proj :      96755. kBytes
   fftplans  :        888. kBytes
   grid      :       6813. kBytes
   one-center:        373. kBytes
   wavefun   :      33804. kBytes
 
     INWAV:  cpu time      0.0000: real time      0.0000
 Broyden mixing: mesh for mixing (old mesh)
   NGX = 13   NGY = 13   NGZ = 41
  (NGX  = 56   NGY  = 56   NGZ  =168)
  gives a total of   6929 points

 initial charge density was supplied:
 charge density of overlapping atoms calculated
 number of electron     156.0000000 magnetization       2.0790000
 keeping initial charge density in first step


--------------------------------------------------------------------------------------------------------


 Maximum index for augmentation-charges         1081 (set IRDMAX)


--------------------------------------------------------------------------------------------------------


 First call to EWALD:  gamma=   0.337
 Maximum number of real-space cells 4x 4x 2
 Maximum number of reciprocal cells 2x 2x 5

    FEWALD:  cpu time      0.0011: real time      0.0012


--------------------------------------- Ionic step        1  -------------------------------------------




--------------------------------------- Iteration      1(   1)  ---------------------------------------


    POTLOK:  cpu time      0.0303: real time      0.0547
    SETDIJ:  cpu time      0.0079: real time      0.0080
     EDDAV:  cpu time      4.1732: real time      4.2052
 BZINTS: Fermi energy:   25.518509;  156.000000 electrons
         Band energy: 0.631256E+03;  BLOECHL correction:   -0.096287
       DOS:  cpu time      0.1012: real time      0.1027
    --------------------------------------------
      LOOP:  cpu time      4.3127: real time      4.3708

 eigenvalue-minimisations  : 32256
 total energy-change (2. order) : 0.1737005E+04  (-0.9146548E+04)
 number of electron     156.0000000 magnetization       2.0790000
 augmentation part      156.0000000 magnetization       2.0790000

 Free energy of the ion-electron system (eV)
  ---------------------------------------------------
  alpha Z        PSCENC =      1173.72503148
  Ewald energy   TEWEN  =    -18537.26679148
  -Hartree energ DENC   =     -5769.82841606
  -exchange      EXHF   =         0.00000000
  -V(xc)+E(xc)   XCENC  =       659.07308873
  PAW double counting   =     20095.35810019   -20819.41525134
  entropy T*S    EENTRO =         0.00000000
  eigenvalues    EBANDS =       631.25614756
  atomic energy  EATOM  =     24304.10294433
  Solvation  Ediel_sol  =         0.00000000
  ---------------------------------------------------
  free energy    TOTEN  =      1737.00485340 eV

  energy without entropy =     1737.00485340  energy(sigma->0) =     1737.00485340


--------------------------------------------------------------------------------------------------------




--------------------------------------- Iteration      1(   2)  ---------------------------------------


     EDDAV:  cpu time      4.4697: real time      4.5146
 BZINTS: Fermi energy:   13.639263;  156.000000 electrons
         Band energy:-0.109792E+04;  BLOECHL correction:   -0.044046
       DOS:  cpu time      0.1010: real time      0.1017
    --------------------------------------------
      LOOP:  cpu time      4.5707: real time      4.6163

 eigenvalue-minimisations  : 32448
 total energy-change (2. order) :-0.1729178E+04  (-0.1697940E+04)
 number of electron     156.0000000 magnetization       2.0790000
 augmentation part      156.0000000 magnetization       2.0790000

 Free energy of the ion-electron system (eV)
  ---------------------------------------------------
  alpha Z        PSCENC =      1173.72503148
  Ewald energy   TEWEN  =    -18537.26679148
  -Hartree energ DENC   =     -5769.82841606
  -exchange      EXHF   =         0.00000000
  -V(xc)+E(xc)   XCENC  =       659.07308873
  PAW double counting   =     20095.35810019   -20819.41525134
  entropy T*S    EENTRO =         0.00000000
  eigenvalues    EBANDS =     -1097.92146989
  atomic energy  EATOM  =     24304.10294433
  Solvation  Ediel_sol  =         0.00000000
  ---------------------------------------------------
  free energy    TOTEN  =         7.82723596 eV

  energy without entropy =        7.82723596  energy(sigma->0) =        7.82723596


--------------------------------------------------------------------------------------------------------




--------------------------------------- Iteration      1(   3)  ---------------------------------------


     EDDAV:  cpu time      5.2224: real time      5.2736
 BZINTS: Fermi energy:   12.739196;  156.000000 electrons
         Band energy:-0.120853E+04;  BLOECHL correction:   -0.030974
       DOS:  cpu time      0.1001: real time      0.1009
    --------------------------------------------
      LOOP:  cpu time      5.3226: real time      5.3745

 eigenvalue-minimisations  : 39456
 total energy-change (2. order) :-0.1106047E+03  (-0.1094672E+03)
 number of electron     156.0000000 magnetization       2.0790000
 augmentation part      156.0000000 magnetization       2.0790000

 Free energy of the ion-electron system (eV)
  ---------------------------------------------------
  alpha Z        PSCENC =      1173.72503148
  Ewald energy   TEWEN  =    -18537.26679148
  -Hartree energ DENC   =     -5769.82841606
  -exchange      EXHF   =         0.00000000
  -V(xc)+E(xc)   XCENC  =       659.07308873
  PAW double counting   =     20095.35810019   -20819.41525134
  entropy T*S    EENTRO =         0.00000000
  eigenvalues    EBANDS =     -1208.52617445
  atomic energy  EATOM  =     24304.10294433
  Solvation  Ediel_sol  =         0.00000000
  ---------------------------------------------------
  free energy    TOTEN  =      -102.77746860 eV

  energy without entropy =     -102.77746860  energy(sigma->0) =     -102.77746860


--------------------------------------------------------------------------------------------------------




--------------------------------------- Iteration      1(   4)  ---------------------------------------


     EDDAV:  cpu time      4.3498: real time      4.3953
 BZINTS: Fermi energy:   12.728351;  156.000000 electrons
         Band energy:-0.121079E+04;  BLOECHL correction:   -0.030305
       DOS:  cpu time      0.1010: real time      0.1016
    --------------------------------------------
      LOOP:  cpu time      4.4508: real time      4.4969

 eigenvalue-minimisations  : 32768
 total energy-change (2. order) :-0.2267603E+01  (-0.2266057E+01)
 number of electron     156.0000000 magnetization       2.0790000
 augmentation part      156.0000000 magnetization       2.0790000

 Free energy of the ion-electron system (eV)
  ---------------------------------------------------
  alpha Z        PSCENC =      1173.72503148
  Ewald energy   TEWEN  =    -18537.26679148
  -Hartree energ DENC   =     -5769.82841606
  -exchange      EXHF   =         0.00000000
  -V(xc)+E(xc)   XCENC  =       659.07308873
  PAW double counting   =     20095.35810019   -20819.41525134
  entropy T*S    EENTRO =         0.00000000
  eigenvalues    EBANDS =     -1210.79377709
  atomic energy  EATOM  =     24304.10294433
  Solvation  Ediel_sol  =         0.00000000
  ---------------------------------------------------
  free energy    TOTEN  =      -105.04507125 eV

  energy without entropy =     -105.04507125  energy(sigma->0) =     -105.04507125


--------------------------------------------------------------------------------------------------------




--------------------------------------- Iteration      1(   5)  ---------------------------------------


     EDDAV:  cpu time      5.5499: real time      5.6030
 BZINTS: Fermi energy:   12.728145;  156.000000 electrons
         Band energy:-0.121084E+04;  BLOECHL correction:   -0.030288
       DOS:  cpu time      0.1015: real time      0.1025
    CHARGE:  cpu time      0.1536: real time      0.1545
    MIXING:  cpu time      0.0058: real time      0.0062
    --------------------------------------------
      LOOP:  cpu time      5.8108: real time      5.8662

 eigenvalue-minimisations  : 41056
 total energy-change (2. order) :-0.4988805E-01  (-0.4989945E-01)
 number of electron     155.9999806 magnetization       1.9108304
 augmentation part       79.2543082 magnetization       1.4691110

 Broyden mixing:
  rms(total) = 0.41607E+01    rms(broyden)= 0.41602E+01
  rms(prec ) = 0.46245E+01
  weight for this iteration     100.00

 Free energy of the ion-electron system (eV)
  ---------------------------------------------------
  alpha Z        PSCENC =      1173.72503148
  Ewald energy   TEWEN  =    -18537.26679148
  -Hartree energ DENC   =     -5769.82841606
  -exchange      EXHF   =         0.00000000
  -V(xc)+E(xc)   XCENC  =       659.07308873
  PAW double counting   =     20095.35810019   -20819.41525134
  entropy T*S    EENTRO =         0.00000000
  eigenvalues    EBANDS =     -1210.84366515
  atomic energy  EATOM  =     24304.10294433
  Solvation  Ediel_sol  =         0.00000000
  ---------------------------------------------------
  free energy    TOTEN  =      -105.09495930 eV

  energy without entropy =     -105.09495930  energy(sigma->0) =     -105.09495930


--------------------------------------------------------------------------------------------------------




--------------------------------------- Iteration      1(   6)  ---------------------------------------


    POTLOK:  cpu time      0.0310: real time      0.0449
    SETDIJ:  cpu time      0.0083: real time      0.0083
     EDDAV:  cpu time      4.8634: real time      4.8967
 BZINTS: Fermi energy:   10.050813;  156.000000 electrons
         Band energy:-0.161613E+04;  BLOECHL correction:   -0.029538
       DOS:  cpu time      0.1078: real time      0.1112
    CHARGE:  cpu time      0.1485: real time      0.1493
    MIXING:  cpu time      0.0031: real time      0.0032
    --------------------------------------------
      LOOP:  cpu time      5.1621: real time      5.2136

 eigenvalue-minimisations  : 36736
 total energy-change (2. order) :-0.1080519E+01  (-0.1998437E+02)
 number of electron     155.9999786 magnetization       1.9531364
 augmentation part       87.8488459 magnetization       1.5606215

 Broyden mixing:
  rms(total) = 0.54411E+01    rms(broyden)= 0.54409E+01
  rms(prec ) = 0.71223E+01
  weight for this iteration     100.00

 eigenvalues of (default mixing * dielectric matrix)
  average eigenvalue GAMMA=   0.3250
  0.3250

 Free energy of the ion-electron system (eV)
  ---------------------------------------------------
  alpha Z        PSCENC =      1173.72503148
  Ewald energy   TEWEN  =    -18537.26679148
  -Hartree energ DENC   =     -5369.57035252
  -exchange      EXHF   =         0.00000000
  -V(xc)+E(xc)   XCENC  =       641.50470055
  PAW double counting   =     20687.79842480   -21390.34162261
  entropy T*S    EENTRO =         0.00000000
  eigenvalues    EBANDS =     -1616.12781269
  atomic energy  EATOM  =     24304.10294433
  Solvation  Ediel_sol  =         0.00000000
  ---------------------------------------------------
  free energy    TOTEN  =      -106.17547814 eV

  energy without entropy =     -106.17547814  energy(sigma->0) =     -106.17547814


--------------------------------------------------------------------------------------------------------




--------------------------------------- Iteration      1(   7)  ---------------------------------------


    POTLOK:  cpu time      0.0311: real time      0.0450
    SETDIJ:  cpu time      0.0078: real time      0.0078
     EDDAV:  cpu time      5.6399: real time      5.6770
 BZINTS: Fermi energy:   11.147521;  156.000000 electrons
         Band energy:-0.151309E+04;  BLOECHL correction:   -0.036801
       DOS:  cpu time      0.1073: real time      0.1086
    CHARGE:  cpu time      0.1467: real time      0.1476
    MIXING:  cpu time      0.0027: real time      0.0027
    --------------------------------------------
      LOOP:  cpu time      5.9354: real time      5.9887

 eigenvalue-minimisations  : 43008
 total energy-change (2. order) :-0.1127886E+02  (-0.4519148E+02)
 number of electron     155.9999792 magnetization       2.2672695
 augmentation part       85.0863288 magnetization       1.2618777

 Broyden mixing:
  rms(total) = 0.65571E+01    rms(broyden)= 0.65568E+01
  rms(prec ) = 0.86987E+01
  weight for this iteration     100.00

 eigenvalues of (default mixing * dielectric matrix)
  average eigenvalue GAMMA=   0.3981
  0.6462  0.1499

 Free energy of the ion-electron system (eV)
  ---------------------------------------------------
  alpha Z        PSCENC =      1173.72503148
  Ewald energy   TEWEN  =    -18537.26679148
  -Hartree energ DENC   =     -5465.98266509
  -exchange      EXHF   =         0.00000000
  -V(xc)+E(xc)   XCENC  =       644.39200393
  PAW double counting   =     21118.37323810   -21841.70578894
  entropy T*S    EENTRO =         0.00000000
  eigenvalues    EBANDS =     -1513.09230980
  atomic energy  EATOM  =     24304.10294433
  Solvation  Ediel_sol  =         0.00000000
  ---------------------------------------------------
  free energy    TOTEN  =      -117.45433747 eV

  energy without entropy =     -117.45433747  energy(sigma->0) =     -117.45433747


--------------------------------------------------------------------------------------------------------




--------------------------------------- Iteration      1(   8)  ---------------------------------------


    POTLOK:  cpu time      0.0321: real time      0.0442
    SETDIJ:  cpu time      0.0077: real time      0.0077
     EDDAV:  cpu time      5.8397: real time      5.8794
 BZINTS: Fermi energy:   11.365265;  156.000000 electrons
         Band energy:-0.141660E+04;  BLOECHL correction:   -0.021993
       DOS:  cpu time      0.1067: real time      0.1084
    CHARGE:  cpu time      0.1479: real time      0.1489
    MIXING:  cpu time      0.0019: real time      0.0019
    --------------------------------------------
      LOOP:  cpu time      6.1360: real time      6.1906

 eigenvalue-minimisations  : 43264
 total energy-change (2. order) : 0.2283626E+02  (-0.7018345E+01)
 number of electron     155.9999800 magnetization       2.5225438
 augmentation part       83.2768929 magnetization       2.0368093

 Broyden mixing:
  rms(total) = 0.19577E+01    rms(broyden)= 0.19569E+01
  rms(prec ) = 0.23715E+01
  weight for this iteration     100.00

 eigenvalues of (default mixing * dielectric matrix)
  average eigenvalue GAMMA=   0.5924
  1.2604  0.3735  0.1433

 Free energy of the ion-electron system (eV)
  ---------------------------------------------------
  alpha Z        PSCENC =      1173.72503148
  Ewald energy   TEWEN  =    -18537.26679148
  -Hartree energ DENC   =     -5521.49482645
  -exchange      EXHF   =         0.00000000
  -V(xc)+E(xc)   XCENC  =       645.96809059
  PAW double counting   =     21632.76134598   -22375.81884708
  entropy T*S    EENTRO =         0.00000000
  eigenvalues    EBANDS =     -1416.59502793
  atomic energy  EATOM  =     24304.10294433
  Solvation  Ediel_sol  =         0.00000000
  ---------------------------------------------------
  free energy    TOTEN  =       -94.61808058 eV

  energy without entropy =      -94.61808058  energy(sigma->0) =      -94.61808058


--------------------------------------------------------------------------------------------------------




--------------------------------------- Iteration      1(   9)  ---------------------------------------


    POTLOK:  cpu time      0.0439: real time      0.0447
    SETDIJ:  cpu time      0.0086: real time      0.0086
     EDDAV:  cpu time      4.9013: real time      4.9342
 BZINTS: Fermi energy:   10.919467;  156.000000 electrons
         Band energy:-0.147629E+04;  BLOECHL correction:   -0.030066
       DOS:  cpu time      0.1096: real time      0.1103
    CHARGE:  cpu time      0.1488: real time      0.1496
    MIXING:  cpu time      0.0023: real time      0.0023
    --------------------------------------------
      LOOP:  cpu time      5.2144: real time      5.2498

 eigenvalue-minimisations  : 38400
 total energy-change (2. order) :-0.8040939E+00  (-0.5458550E+01)
 number of electron     155.9999796 magnetization       2.5322725
 augmentation part       84.3710168 magnetization       2.0301809

 Broyden mixing:
  rms(total) = 0.25289E+01    rms(broyden)= 0.25287E+01
  rms(prec ) = 0.33645E+01
  weight for this iteration     100.00

 eigenvalues of (default mixing * dielectric matrix)
  average eigenvalue GAMMA=   0.4863
  1.2677  0.3543  0.1322  0.1909

 Free energy of the ion-electron system (eV)
  ---------------------------------------------------
  alpha Z        PSCENC =      1173.72503148
  Ewald energy   TEWEN  =    -18537.26679148
  -Hartree energ DENC   =     -5455.32830236
  -exchange      EXHF   =         0.00000000
  -V(xc)+E(xc)   XCENC  =       643.65346256
  PAW double counting   =     22005.30990216   -22753.32902662
  entropy T*S    EENTRO =         0.00000000
  eigenvalues    EBANDS =     -1476.28939450
  atomic energy  EATOM  =     24304.10294433
  Solvation  Ediel_sol  =         0.00000000
  ---------------------------------------------------
  free energy    TOTEN  =       -95.42217445 eV

  energy without entropy =      -95.42217445  energy(sigma->0) =      -95.42217445


--------------------------------------------------------------------------------------------------------




--------------------------------------- Iteration      1(  10)  ---------------------------------------


    POTLOK:  cpu time      0.0438: real time      0.0446
    SETDIJ:  cpu time      0.0077: real time      0.0078
     EDDAV:  cpu time      5.6631: real time      5.7002
 BZINTS: Fermi energy:   10.837535;  156.000000 electrons
         Band energy:-0.147925E+04;  BLOECHL correction:   -0.033905
       DOS:  cpu time      0.1094: real time      0.1148
    CHARGE:  cpu time      0.1465: real time      0.1473
    MIXING:  cpu time      0.0019: real time      0.0019
    --------------------------------------------
      LOOP:  cpu time      5.9725: real time      6.0166

 eigenvalue-minimisations  : 42240
 total energy-change (2. order) : 0.2446819E+01  (-0.1432295E+01)
 number of electron     155.9999796 magnetization       2.5166020
 augmentation part       84.4879047 magnetization       1.9894361

 Broyden mixing:
  rms(total) = 0.14294E+01    rms(broyden)= 0.14291E+01
  rms(prec ) = 0.19607E+01
  weight for this iteration     100.00

 eigenvalues of (default mixing * dielectric matrix)
  average eigenvalue GAMMA=   0.4602
  1.2139  0.4056  0.4056  0.1380  0.1380

 Free energy of the ion-electron system (eV)
  ---------------------------------------------------
  alpha Z        PSCENC =      1173.72503148
  Ewald energy   TEWEN  =    -18537.26679148
  -Hartree energ DENC   =     -5448.75856568
  -exchange      EXHF   =         0.00000000
  -V(xc)+E(xc)   XCENC  =       643.53642289
  PAW double counting   =     22054.00122894   -22803.06992859
  entropy T*S    EENTRO =         0.00000000
  eigenvalues    EBANDS =     -1479.24569775
  atomic energy  EATOM  =     24304.10294433
  Solvation  Ediel_sol  =         0.00000000
  ---------------------------------------------------
  free energy    TOTEN  =       -92.97535587 eV

  energy without entropy =      -92.97535587  energy(sigma->0) =      -92.97535587


--------------------------------------------------------------------------------------------------------




--------------------------------------- Iteration      1(  11)  ---------------------------------------


    POTLOK:  cpu time      0.0290: real time      0.0442
    SETDIJ:  cpu time      0.0088: real time      0.0089
     EDDAV:  cpu time      5.7759: real time      5.8149
 BZINTS: Fermi energy:   10.848082;  156.000000 electrons
         Band energy:-0.147926E+04;  BLOECHL correction:   -0.033702
       DOS:  cpu time      0.1081: real time      0.1091
    CHARGE:  cpu time      0.1485: real time      0.1493
    MIXING:  cpu time      0.0019: real time      0.0020
    --------------------------------------------
      LOOP:  cpu time      6.0722: real time      6.1283

 eigenvalue-minimisations  : 42240
 total energy-change (2. order) : 0.2285990E-01  (-0.5678371E+00)
 number of electron     155.9999798 magnetization       2.5062668
 augmentation part       84.4967370 magnetization       2.1526170

 Broyden mixing:
  rms(total) = 0.88490E+00    rms(broyden)= 0.88477E+00
  rms(prec ) = 0.11606E+01
  weight for this iteration     100.00

 eigenvalues of (default mixing * dielectric matrix)
  average eigenvalue GAMMA=   0.4478
  1.2107  0.4518  0.4518  0.2986  0.1370  0.1370

 Free energy of the ion-electron system (eV)
  ---------------------------------------------------
  alpha Z        PSCENC =      1173.72503148
  Ewald energy   TEWEN  =    -18537.26679148
  -Hartree energ DENC   =     -5446.79418115
  -exchange      EXHF   =         0.00000000
  -V(xc)+E(xc)   XCENC  =       643.92125130
  PAW double counting   =     22116.23613025   -22867.61430423
  entropy T*S    EENTRO =         0.00000000
  eigenvalues    EBANDS =     -1479.26257646
  atomic energy  EATOM  =     24304.10294433
  Solvation  Ediel_sol  =         0.00000000
  ---------------------------------------------------
  free energy    TOTEN  =       -92.95249597 eV

  energy without entropy =      -92.95249597  energy(sigma->0) =      -92.95249597


--------------------------------------------------------------------------------------------------------




--------------------------------------- Iteration      1(  12)  ---------------------------------------


    POTLOK:  cpu time      0.0446: real time      0.0454
    SETDIJ:  cpu time      0.0091: real time      0.0092
     EDDAV:  cpu time      6.0455: real time      6.0860
 BZINTS: Fermi energy:   10.824736;  156.000000 electrons
         Band energy:-0.147977E+04;  BLOECHL correction:   -0.031404
       DOS:  cpu time      0.1076: real time      0.1083
    CHARGE:  cpu time      0.1489: real time      0.1496
    MIXING:  cpu time      0.0019: real time      0.0019
    --------------------------------------------
      LOOP:  cpu time      6.3575: real time      6.4004

 eigenvalue-minimisations  : 45088
 total energy-change (2. order) : 0.2056934E-01  (-0.2920492E+00)
 number of electron     155.9999799 magnetization       2.5261236
 augmentation part       84.5256447 magnetization       1.8940866

 Broyden mixing:
  rms(total) = 0.71779E+00    rms(broyden)= 0.71771E+00
  rms(prec ) = 0.94081E+00
  weight for this iteration     100.00

 eigenvalues of (default mixing * dielectric matrix)
  average eigenvalue GAMMA=   0.4866
  1.1804  0.7467  0.7467  0.3582  0.1387  0.1387  0.0970

 Free energy of the ion-electron system (eV)
  ---------------------------------------------------
  alpha Z        PSCENC =      1173.72503148
  Ewald energy   TEWEN  =    -18537.26679148
  -Hartree energ DENC   =     -5445.72643675
  -exchange      EXHF   =         0.00000000
  -V(xc)+E(xc)   XCENC  =       644.02663797
  PAW double counting   =     22138.37262517   -22890.40021262
  entropy T*S    EENTRO =         0.00000000
  eigenvalues    EBANDS =     -1479.76572471
  atomic energy  EATOM  =     24304.10294433
  Solvation  Ediel_sol  =         0.00000000
  ---------------------------------------------------
  free energy    TOTEN  =       -92.93192662 eV

  energy without entropy =      -92.93192662  energy(sigma->0) =      -92.93192662


--------------------------------------------------------------------------------------------------------




--------------------------------------- Iteration      1(  13)  ---------------------------------------


    POTLOK:  cpu time      0.0307: real time      0.0448
    SETDIJ:  cpu time      0.0080: real time      0.0082
     EDDAV:  cpu time      5.7122: real time      5.7496
 BZINTS: Fermi energy:   10.804714;  156.000000 electrons
         Band energy:-0.148546E+04;  BLOECHL correction:   -0.029734
       DOS:  cpu time      0.1080: real time      0.1087
    CHARGE:  cpu time      0.1469: real time      0.1476
    MIXING:  cpu time      0.0019: real time      0.0020
    --------------------------------------------
      LOOP:  cpu time      6.0078: real time      6.0609

 eigenvalue-minimisations  : 41760
 total energy-change (2. order) :-0.6379749E-01  (-0.1684515E+00)
 number of electron     155.9999799 magnetization       2.5271221
 augmentation part       84.6948068 magnetization       2.0104596

 Broyden mixing:
  rms(total) = 0.59373E+00    rms(broyden)= 0.59368E+00
  rms(prec ) = 0.73356E+00
  weight for this iteration     100.00

 eigenvalues of (default mixing * dielectric matrix)
  average eigenvalue GAMMA=   0.5584
  1.1853  1.0625  1.0625  0.3940  0.3940  0.1373  0.1373  0.0944

 Free energy of the ion-electron system (eV)
  ---------------------------------------------------
  alpha Z        PSCENC =      1173.72503148
  Ewald energy   TEWEN  =    -18537.26679148
  -Hartree energ DENC   =     -5438.16258470
  -exchange      EXHF   =         0.00000000
  -V(xc)+E(xc)   XCENC  =       644.43758800
  PAW double counting   =     22230.57283832   -22984.94801819
  entropy T*S    EENTRO =         0.00000000
  eigenvalues    EBANDS =     -1485.45673187
  atomic energy  EATOM  =     24304.10294433
  Solvation  Ediel_sol  =         0.00000000
  ---------------------------------------------------
  free energy    TOTEN  =       -92.99572411 eV

  energy without entropy =      -92.99572411  energy(sigma->0) =      -92.99572411


--------------------------------------------------------------------------------------------------------




--------------------------------------- Iteration      1(  14)  ---------------------------------------


    POTLOK:  cpu time      0.0436: real time      0.0444
    SETDIJ:  cpu time      0.0078: real time      0.0078
     EDDAV:  cpu time      5.9091: real time      5.9484
[...]
     81      11.2388      0.00000
     82      11.3013      0.00000
     83      11.4067      0.00000
     84      11.4934      0.00000
     85      11.6156      0.00000
     86      11.7474      0.00000
     87      11.7916      0.00000
     88      12.1050      0.00000
     89      12.2606      0.00000
     90      12.3888      0.00000
     91      12.4566      0.00000
     92      12.4965      0.00000
     93      12.6878      0.00000
     94      13.0940      0.00000
     95      13.2026      0.00000
     96      13.4155      0.00000


--------------------------------------------------------------------------------------------------------


 soft charge-density along one line, spin component           1
         0         1         2         3         4         5         6         7         8         9
 total charge-density along one line
 
 soft charge-density along one line, spin component           2
         0         1         2         3         4         5         6         7         8         9
 total charge-density along one line
 
 pseudopotential strength for first ion, spin component:           1
-42.084  -0.000  -0.000   6.403   0.000   0.000  -0.000   0.000
 -0.000 -42.078   0.000   0.000   6.400  -0.000  -0.000   0.000
 -0.000   0.000 -42.023   0.000  -0.000   6.377   0.000  -0.000
  6.403   0.000   0.000   5.953   0.000   0.000   0.000  -0.000
  0.000   6.400  -0.000   0.000   5.953  -0.000   0.000  -0.000
  0.000  -0.000   6.377   0.000  -0.000   5.958  -0.000   0.000
 -0.000  -0.000   0.000   0.000   0.000  -0.000   0.240   0.000
  0.000   0.000  -0.000  -0.000  -0.000   0.000   0.000   0.265
 -0.000   0.000   0.000   0.000  -0.000  -0.000   0.000   0.000
 -0.000  -0.000   0.000   0.000   0.000  -0.000  -0.000  -0.000
 -0.000   0.000  -0.000   0.000  -0.000   0.000   0.000   0.000
 -0.000  -0.000   0.000   0.000   0.000  -0.000  -0.311   0.000
  0.000   0.000  -0.000  -0.000  -0.000   0.000   0.000  -0.287
 -0.000   0.000   0.000   0.000  -0.000  -0.000   0.000   0.000
 -0.000  -0.000   0.000   0.000   0.000  -0.000  -0.000  -0.000
 -0.000   0.000  -0.000   0.000  -0.000   0.000   0.000   0.000
 -0.000  -0.000   0.000  -0.000   0.000   0.000   0.000   0.000
 -0.000  -0.000   0.000  -0.000   0.000   0.000   0.000   0.000
 pseudopotential strength for first ion, spin component:           2
-44.164   0.000  -0.000   7.280  -0.000   0.000  -0.000   0.000
  0.000 -44.149   0.000  -0.000   7.273  -0.000  -0.000   0.000
 -0.000   0.000 -44.016   0.000  -0.000   7.220   0.000  -0.000
  7.280  -0.000   0.000   5.711  -0.000   0.000  -0.000  -0.000
 -0.000   7.273  -0.000  -0.000   5.712  -0.000   0.000  -0.000
  0.000  -0.000   7.220   0.000  -0.000   5.722  -0.000   0.000
 -0.000  -0.000   0.000  -0.000   0.000  -0.000  -1.354   0.000
  0.000   0.000  -0.000  -0.000  -0.000   0.000   0.000  -1.514
 -0.000   0.000   0.000   0.000  -0.000  -0.000   0.000   0.000
 -0.000  -0.000   0.000   0.000   0.000  -0.000  -0.000  -0.000
 -0.000   0.000  -0.000   0.000  -0.000   0.000   0.000   0.000
  0.000  -0.000   0.000   0.000   0.000  -0.000  -1.879   0.000
  0.000   0.000  -0.000  -0.000  -0.000   0.000   0.000  -2.037
 -0.000   0.000   0.000   0.000  -0.000  -0.000   0.000   0.000
 -0.000  -0.000   0.000   0.000   0.000  -0.000  -0.000  -0.000
 -0.000   0.000  -0.000   0.000  -0.000   0.000   0.000   0.000
 -0.000  -0.000  -0.000  -0.000   0.000  -0.000   0.000  -0.000
 -0.000  -0.000   0.000  -0.000   0.000  -0.000   0.000  -0.000
 total augmentation occupancy for first ion, spin component:           1
  1.992   0.000   0.000  -0.025   0.000   0.000   0.000   0.000  -0.000   0.000   0.000   0.000  -0.000  -0.000   0.000  -0.000
  0.000   1.992   0.000   0.000  -0.024   0.000  -0.000   0.000   0.000   0.000   0.000  -0.000   0.000  -0.000   0.000  -0.000
  0.000   0.000   1.992   0.000   0.000  -0.024   0.000   0.000   0.000   0.000   0.000   0.000  -0.000   0.000  -0.000   0.000
 -0.025   0.000   0.000   0.196   0.000   0.000   0.000   0.000  -0.000  -0.000   0.000   0.000  -0.000   0.000  -0.000   0.000
  0.000  -0.024   0.000   0.000   0.198   0.000   0.000   0.000   0.000   0.000  -0.000   0.000   0.000  -0.000   0.000  -0.000
  0.000   0.000  -0.024   0.000   0.000   0.188  -0.000   0.000   0.000   0.000   0.000   0.000   0.000   0.000  -0.000  -0.000
  0.000  -0.000   0.000   0.000   0.000  -0.000   2.652   0.000  -0.000   0.000   0.000  -1.572  -0.000  -0.000   0.000  -0.000
  0.000   0.000   0.000   0.000   0.000   0.000   0.000   3.126   0.000   0.000   0.000   0.000  -2.303   0.000   0.000   0.000
 -0.000   0.000   0.000  -0.000   0.000   0.000  -0.000   0.000   3.312  -0.000   0.195   0.000   0.000  -2.024   0.000  -0.067
  0.000   0.000   0.000  -0.000   0.000   0.000   0.000   0.000  -0.000   2.792   0.000   0.000   0.000  -0.000  -1.666   0.000
  0.000   0.000   0.000   0.000  -0.000   0.000   0.000   0.000   0.195   0.000   3.226  -0.000   0.000  -0.068   0.000  -2.001
  0.000  -0.000   0.000   0.000   0.000   0.000  -1.572   0.000   0.000   0.000  -0.000   1.891   0.000   0.000   0.000   0.000
 -0.000   0.000  -0.000  -0.000   0.000   0.000  -0.000  -2.303   0.000   0.000   0.000   0.000   2.708   0.000   0.000   0.000
 -0.000  -0.000   0.000   0.000  -0.000   0.000  -0.000   0.000  -2.024  -0.000  -0.068   0.000   0.000   2.044   0.000  -0.010
  0.000   0.000  -0.000  -0.000   0.000  -0.000   0.000   0.000   0.000  -1.666   0.000   0.000   0.000   0.000   1.992  -0.000
 -0.000  -0.000   0.000   0.000  -0.000  -0.000  -0.000   0.000  -0.067   0.000  -2.001   0.000   0.000  -0.010  -0.000   2.065
  0.000   0.000   0.000   0.000  -0.000  -0.000   0.000   0.000  -0.091   0.000   0.157   0.000   0.000   0.074  -0.000  -0.096
  0.000  -0.000   0.000   0.000   0.000   0.000   0.000   0.000   0.010   0.000  -0.016   0.000   0.000  -0.007  -0.000   0.009
 total augmentation occupancy for first ion, spin component:           2
  0.002   0.000   0.000   0.008   0.000   0.000   0.000  -0.000   0.000   0.000   0.000   0.000   0.000   0.000   0.000   0.000
  0.000   0.002   0.000  -0.000   0.008  -0.000  -0.000   0.000  -0.000   0.000   0.000  -0.000  -0.000   0.000   0.000  -0.000
  0.000   0.000   0.002   0.000  -0.000   0.009   0.000   0.000   0.000   0.000   0.000   0.000   0.000   0.000  -0.000  -0.000
  0.008  -0.000   0.000  -0.002   0.000   0.000   0.000  -0.000   0.000  -0.000   0.000   0.000  -0.000  -0.000   0.000   0.000
  0.000   0.008  -0.000   0.000   0.008   0.000  -0.000   0.000  -0.000   0.000  -0.000   0.000  -0.000   0.000   0.000   0.000
  0.000  -0.000   0.009   0.000   0.000   0.006   0.000   0.000   0.000  -0.000   0.000   0.000  -0.000   0.000   0.000   0.000
  0.000  -0.000   0.000   0.000  -0.000   0.000  -1.958  -0.000  -0.000   0.000   0.000   0.820  -0.000   0.000   0.000   0.000
 -0.000   0.000   0.000  -0.000   0.000   0.000  -0.000  -1.999   0.000   0.000   0.000   0.000   0.637  -0.000   0.000   0.000
  0.000  -0.000   0.000   0.000  -0.000   0.000  -0.000   0.000  -2.440   0.000  -0.090  -0.000   0.000   1.018   0.000   0.128
  0.000   0.000   0.000  -0.000   0.000  -0.000   0.000   0.000   0.000  -2.031   0.000   0.000   0.000  -0.000   0.867   0.000
  0.000   0.000   0.000   0.000  -0.000   0.000   0.000   0.000  -0.090   0.000  -2.429   0.000   0.000   0.128   0.000   0.957
  0.000  -0.000   0.000   0.000   0.000   0.000   0.820   0.000  -0.000   0.000   0.000  -0.135  -0.000   0.000   0.000   0.000
  0.000  -0.000   0.000  -0.000  -0.000  -0.000  -0.000   0.637   0.000   0.000   0.000  -0.000   0.103  -0.000   0.000   0.000
  0.000   0.000   0.000  -0.000   0.000   0.000   0.000  -0.000   1.018  -0.000   0.128   0.000  -0.000  -0.267   0.000  -0.142
  0.000   0.000  -0.000   0.000   0.000   0.000   0.000   0.000   0.000   0.867   0.000   0.000   0.000   0.000  -0.137   0.000
  0.000  -0.000  -0.000   0.000   0.000   0.000   0.000   0.000   0.128   0.000   0.957   0.000   0.000  -0.142   0.000  -0.176
  0.000  -0.000  -0.000  -0.000  -0.000   0.000   0.000   0.000  -0.017  -0.000  -0.029   0.000   0.000   0.009   0.000   0.049
  0.000   0.000   0.000   0.000   0.000  -0.000   0.000   0.000  -0.004  -0.000   0.008   0.000  -0.000   0.001   0.000  -0.002


------------------------ aborting loop because EDIFF is reached ----------------------------------------





 total charge

# of ion       s       p       d       tot
------------------------------------------
    1        0.368   6.364   6.095  12.827
    2        0.369   6.370   6.076  12.814
    3        0.369   6.370   6.076  12.814
    4        0.373   6.375   6.059  12.807
    5        0.373   6.375   6.059  12.807
    6        0.369   6.369   6.079  12.816
    7        0.368   6.364   6.095  12.827
    8        0.369   6.370   6.076  12.814
    9        0.369   6.370   6.076  12.814
   10        0.810   0.779   8.059   9.648
   11        0.810   0.779   8.059   9.648
   12        0.797   0.795   8.056   9.647
--------------------------------------------------
tot          5.741  59.679  78.862 144.282



 magnetization (x)

# of ion       s       p       d       tot
------------------------------------------
    1       -0.005   0.010  -2.398  -2.393
    2        0.008   0.004   2.276   2.288
    3        0.008   0.004   2.276   2.288
    4       -0.014  -0.025  -2.379  -2.419
    5       -0.014  -0.025  -2.378  -2.418
    6        0.003  -0.016   2.489   2.476
    7       -0.005   0.010  -2.398  -2.393
    8        0.008   0.004   2.276   2.288
    9        0.008   0.004   2.276   2.288
   10        0.009   0.020  -0.124  -0.094
   11        0.009   0.020  -0.123  -0.094
   12       -0.035  -0.086   0.315   0.194
--------------------------------------------------
tot         -0.019  -0.076   2.106   2.011
 
    CHARGE:  cpu time      0.1497: real time      0.1506
    FORLOC:  cpu time      0.0021: real time      0.0021
    FORNL :  cpu time      0.5239: real time      0.5266
    STRESS:  cpu time      3.9664: real time      4.0013
    FORCOR:  cpu time      0.0204: real time      0.0205
    FORHAR:  cpu time      0.0026: real time      0.0026
    MIXING:  cpu time      0.0027: real time      0.0028
    OFIELD:  cpu time      0.0017: real time      0.0017

  FORCE on cell =-STRESS in cart. coord.  units (eV):
  Direction    XX          YY          ZZ          XY          YZ          ZX
  --------------------------------------------------------------------------------------
  Alpha Z  1173.72503  1173.72503  1173.72503
  Ewald   -6174.81415 -6174.81415 -6187.65970    -0.00000    -0.00000    -0.00000
  Hartree  1813.86142  1813.86142  1799.85787    -0.00000    -0.00000    -0.00000
  E(xc)    -945.40028  -945.40028  -945.32954    -0.00000     0.00000     0.00000
  Local    1200.73141  1200.73141  1235.25973    -0.00000     0.00000     0.00000
  n-local  -201.15136  -214.30894  -207.17355    15.57560     0.10164     0.09360
  augment  1438.32173  1438.32173  1432.95665     0.00000    -0.00000    -0.00000
  Kinetic  1721.18942  1700.41759  1707.79390     4.10634     0.28629     0.80747
  Fock        0.00000     0.00000     0.00000     0.00000     0.00000     0.00000
  -------------------------------------------------------------------------------------
  Total       9.49852     9.49852     9.43038     0.00000     0.00000    -0.00000
  in kB     104.95385   104.95385   104.20100     0.00000     0.00000    -0.00000
  external pressure =      104.70 kB  Pullay stress =        0.00 kB


 VOLUME and BASIS-vectors are now :
 -----------------------------------------------------------------------------
  energy-cutoff  :      520.00
  volume of cell :      145.00
      direct lattice vectors                 reciprocal lattice vectors
     3.631519022  0.000000000  0.000000000     0.275366863  0.000000000  0.000000000
     0.000000000  3.631519022  0.000000000     0.000000000  0.275366863  0.000000000
     0.000000000  0.000000000 10.994901819     0.000000000  0.000000000  0.090951244

  length of vectors
     3.631519022  3.631519022 10.994901819     0.275366863  0.275366863  0.090951244


 FORCES acting on ions
    electron-ion (+dipol)            ewald-force                    non-local-force                 convergence-correction
 -----------------------------------------------------------------------------------------------
   -.690E-13 0.898E-12 -.805E-01   0.333E-14 -.142E-13 0.882E-01   0.262E-21 0.160E-21 0.487E-03   -.106E-13 -.198E-13 -.716E-02
   -.652E-13 0.149E-12 -.119E+02   0.210E-13 -.237E-13 0.130E+02   0.282E-19 0.696E-18 -.114E+01   -.236E-13 -.189E-13 0.119E-01
   -.679E-13 0.132E-11 0.120E+02   0.122E-14 -.385E-14 -.131E+02   -.127E-18 -.289E-18 0.114E+01   -.189E-13 -.284E-13 -.486E-02
   0.965E-12 0.674E-11 0.415E+02   -.330E-13 -.187E-13 -.400E+02   0.663E-18 0.127E-17 -.156E+01   -.107E-12 0.152E-13 0.965E-02
   0.970E-12 -.391E-11 -.413E+02   0.296E-13 0.148E-13 0.397E+02   -.285E-18 -.548E-18 0.156E+01   -.141E-12 0.164E-13 -.265E-01
   0.970E-12 -.485E-11 -.298E+00   0.516E-13 0.138E-13 0.281E+00   -.182E-21 -.283E-21 0.178E-02   -.123E-12 0.723E-14 0.167E-01
   0.970E-12 -.559E-13 -.805E-01   -.235E-13 -.141E-13 0.882E-01   -.382E-22 0.248E-21 0.487E-03   -.148E-12 0.379E-14 -.716E-02
   0.970E-12 -.224E-12 -.119E+02   -.197E-13 0.852E-14 0.130E+02   -.142E-18 -.718E-18 -.114E+01   -.143E-12 0.619E-14 0.119E-01
   0.980E-12 -.136E-12 0.120E+02   0.423E-14 -.536E-14 -.131E+02   0.536E-18 0.366E-19 0.114E+01   -.135E-12 0.101E-13 -.486E-02
   -.336E-13 -.154E-13 0.264E+01   0.110E-13 0.406E-13 -.276E+01   -.113E-17 0.710E-18 0.717E-01   0.215E-13 0.728E-14 0.680E-02
   -.355E-13 -.142E-12 -.253E+01   -.271E-13 0.261E-13 0.266E+01   0.236E-18 -.121E-18 -.723E-01   0.247E-13 0.183E-14 -.187E-01
   -.337E-13 -.422E-13 -.117E+00   -.221E-13 -.304E-15 0.105E+00   0.410E-21 -.661E-21 0.222E-04   0.205E-13 0.787E-14 0.119E-01
 -----------------------------------------------------------------------------------------------
   0.552E-11 -.271E-12 0.691E-03   -.361E-14 0.236E-13 0.169E-12   -.217E-18 0.103E-17 -.586E-03   -.782E-12 0.866E-14 -.430E-03
 
 
 POSITION                                       TOTAL-FORCE (eV/Angst)
 -----------------------------------------------------------------------------------
      0.00000      1.81576      1.83244         0.000000      0.000000      0.001058
      0.00000      1.81576      5.49268         0.000000      0.000000     -0.003172
      0.00000      1.81576      9.16725         0.000000     -0.000000      0.002155
      1.81576      1.81576      0.03403         0.000000     -0.000000      0.015774
      1.81576      1.81576      3.63109         0.000000      0.000000     -0.016534
      1.81576      1.81576      7.32974        -0.000000     -0.000000      0.001210
      1.81576      0.00000      1.83244        -0.000000      0.000000      0.001058
      1.81576      0.00000      5.49268         0.000000      0.000000     -0.003172
      1.81576      0.00000      9.16725         0.000000      0.000000      0.002155
      0.00000      0.00000     10.97192         0.000000      0.000000     -0.036055
      0.00000      0.00000      3.68795         0.000000      0.000000      0.035270
      0.00000      0.00000      7.32995         0.000000      0.000000      0.000254
 -----------------------------------------------------------------------------------
    total drift:                                0.000000     -0.000000     -0.000325


--------------------------------------------------------------------------------------------------------



  FREE ENERGIE OF THE ION-ELECTRON SYSTEM (eV)
  ---------------------------------------------------
  free  energy   TOTEN  =       -93.13326641 eV

  energy  without entropy=      -93.13326641  energy(sigma->0) =      -93.13326641
 


--------------------------------------------------------------------------------------------------------


    POTLOK:  cpu time      0.0368: real time      0.0372


--------------------------------------------------------------------------------------------------------


     LOOP+:  cpu time    160.4360: real time    162.5211
 -----------------------------------------------------------------------------
|                                                                             |
|           W    W    AA    RRRRR   N    N  II  N    N   GGGG   !!!           |
|           W    W   A  A   R    R  NN   N  II  NN   N  G    G  !!!           |
|           W    W  A    A  R    R  N N  N  II  N N  N  G       !!!           |
|           W WW W  AAAAAA  RRRRR   N  N N  II  N  N N  G  GGG   !            |
|           WW  WW  A    A  R   R   N   NN  II  N   NN  G    G                |
|           W    W  A    A  R    R  N    N  II  N    N   GGGG   !!!           |
|                                                                             |
|     Tetrahedron method does not include variations of the Fermi             |
|     occupations, so forces and stress will be inaccurate. We suggest        |
|     using a different smearing scheme ISMEAR = 1 or 2 for metals in         |
|     relaxations.                                                            |
|                                                                             |
 -----------------------------------------------------------------------------

    4ORBIT:  cpu time      0.0000: real time      0.0000



 total charge

# of ion       s       p       d       tot
------------------------------------------
    1        0.368   6.364   6.095  12.827
    2        0.369   6.370   6.076  12.814
    3        0.369   6.370   6.076  12.814
    4        0.373   6.375   6.059  12.807
    5        0.373   6.375   6.059  12.807
    6        0.369   6.369   6.079  12.816
    7        0.368   6.364   6.095  12.827
    8        0.369   6.370   6.076  12.814
    9        0.369   6.370   6.076  12.814
   10        0.810   0.779   8.059   9.648
   11        0.810   0.779   8.059   9.648
   12        0.797   0.795   8.056   9.647
--------------------------------------------------
tot          5.741  59.679  78.862 144.282



 magnetization (x)

# of ion       s       p       d       tot
------------------------------------------
    1       -0.005   0.010  -2.398  -2.393
    2        0.008   0.004   2.276   2.288
    3        0.008   0.004   2.276   2.288
    4       -0.014  -0.025  -2.379  -2.419
    5       -0.014  -0.025  -2.378  -2.418
    6        0.003  -0.016   2.489   2.476
    7       -0.005   0.010  -2.398  -2.393
    8        0.008   0.004   2.276   2.288
    9        0.008   0.004   2.276   2.288
   10        0.009   0.020  -0.124  -0.094
   11        0.009   0.020  -0.123  -0.094
   12       -0.035  -0.086   0.315   0.194
--------------------------------------------------
tot         -0.019  -0.076   2.106   2.011
 
 BZINTS: Fermi energy:   10.862954;  156.000000 electrons
         Band energy:-0.148889E+04;  BLOECHL correction:   -0.029635

 total amount of memory used by VASP MPI-rank0   168633. kBytes
=======================================================================

   base      :      30000. kBytes
   nonl-proj :      96755. kBytes
   fftplans  :        888. kBytes
   grid      :       6813. kBytes
   one-center:        373. kBytes
   wavefun   :      33804. kBytes
 
  
  
 General timing and accounting informations for this job:
 ========================================================
  
                  Total CPU time used (sec):      176.212
                            User time (sec):      168.535
                          System time (sec):        7.677
                         Elapsed time (sec):      184.669
  
                   Maximum memory used (kb):      816524.
                   Average memory used (kb):          N/A
  
                          Minor page faults:       188454
                          Major page faults:          163
                 Voluntary context switches:         9175
