  16  16   1   0
  0.2125000E+02  0.7650387E-09  0.7650387E-09  0.5906646E-09  0.5000000E-15
  1.000000000000000E-004
  CAR 
 unknown system                          
     10.58640445    -54.86539741  301      3.04779221      1.00000000
    -54.865  0.0000E+00  0.0000E+00  0.0000E+00  0.0000E+00
    -54.647  0.0000E+00  0.0000E+00  0.0000E+00  0.0000E+00
    -54.429  0.0000E+00  0.0000E+00  0.0000E+00  0.0000E+00
    -54.211  0.0000E+00  0.0000E+00  0.0000E+00  0.0000E+00
    -53.993  0.0000E+00  0.0000E+00  0.0000E+00  0.0000E+00
    -53.775  0.0000E+00  0.0000E+00  0.0000E+00  0.0000E+00
    -53.556  0.0000E+00  0.0000E+00  0.0000E+00  0.0000E+00
    -53.338  0.0000E+00  0.0000E+00  0.0000E+00  0.0000E+00
    -53.120  0.0000E+00  0.0000E+00  0.0000E+00  0.0000E+00
    -52.902  0.0000E+00  0.0000E+00  0.0000E+00  0.0000E+00
    -52.684  0.0000E+00  0.0000E+00  0.0000E+00  0.0000E+00
    -52.465  0.0000E+00  0.0000E+00  0.0000E+00  0.0000E+00
    -52.247  0.0000E+00  0.0000E+00  0.0000E+00  0.0000E+00
    -52.029  0.0000E+00  0.0000E+00  0.0000E+00  0.0000E+00
    -51.811  0.1833E+02  0.1833E+02  0.4000E+01  0.4000E+01
    -51.593  0.3522E+02  0.3522E+02  0.9849E+01  0.9849E+01
    -51.375  0.9167E+01  0.9167E+01  0.1200E+02  0.1200E+02
    -51.156  0.0000E+00  0.0000E+00  0.1200E+02  0.1200E+02
    -50.938  0.0000E+00  0.0000E+00  0.1200E+02  0.1200E+02
    -50.720  0.0000E+00  0.0000E+00  0.1200E+02  0.1200E+02
    -50.502  0.0000E+00  0.0000E+00  0.1200E+02  0.1200E+02
    -50.284  0.0000E+00  0.0000E+00  0.1200E+02  0.1200E+02
    -50.066  0.0000E+00  0.0000E+00  0.1200E+02  0.1200E+02
    -49.847  0.0000E+00  0.0000E+00  0.1200E+02  0.1200E+02
    -49.629  0.0000E+00  0.0000E+00  0.1200E+02  0.1200E+02
    -49.411  0.0000E+00  0.0000E+00  0.1200E+02  0.1200E+02
    -49.193  0.0000E+00  0.0000E+00  0.1200E+02  0.1200E+02
    -48.975  0.0000E+00  0.0000E+00  0.1200E+02  0.1200E+02
    -48.757  0.3428E+02  0.3428E+02  0.1787E+02  0.1787E+02
    -48.538  0.2750E+02  0.2750E+02  0.2400E+02  0.2400E+02
    -48.320  0.0000E+00  0.0000E+00  0.2400E+02  0.2400E+02
    -48.102  0.0000E+00  0.0000E+00  0.2400E+02  0.2400E+02
    -47.884  0.0000E+00  0.0000E+00  0.2400E+02  0.2400E+02
    -47.666  0.0000E+00  0.0000E+00  0.2400E+02  0.2400E+02
    -47.448  0.0000E+00  0.0000E+00  0.2400E+02  0.2400E+02
    -47.229  0.0000E+00  0.0000E+00  0.2400E+02  0.2400E+02
    -47.011  0.0000E+00  0.0000E+00  0.2400E+02  0.2400E+02
    -46.793  0.0000E+00  0.0000E+00  0.2400E+02  0.2400E+02
    -46.575  0.0000E+00  0.0000E+00  0.2400E+02  0.2400E+02
    -46.357  0.0000E+00  0.0000E+00  0.2400E+02  0.2400E+02
    -46.138  0.0000E+00  0.0000E+00  0.2400E+02  0.2400E+02
    -45.920  0.0000E+00  0.0000E+00  0.2400E+02  0.2400E+02
    -45.702  0.0000E+00  0.0000E+00  0.2400E+02  0.2400E+02
    -45.484  0.0000E+00  0.0000E+00  0.2400E+02  0.2400E+02
    -45.266  0.0000E+00  0.0000E+00  0.2400E+02  0.2400E+02
    -45.048  0.0000E+00  0.0000E+00  0.2400E+02  0.2400E+02
    -44.829  0.0000E+00  0.0000E+00  0.2400E+02  0.2400E+02
    -44.611  0.0000E+00  0.0000E+00  0.2400E+02  0.2400E+02
    -44.393  0.0000E+00  0.0000E+00  0.2400E+02  0.2400E+02
    -44.175  0.0000E+00  0.0000E+00  0.2400E+02  0.2400E+02
    -43.957  0.0000E+00  0.0000E+00  0.2400E+02  0.2400E+02
    -43.739  0.0000E+00  0.0000E+00  0.2400E+02  0.2400E+02
    -43.520  0.0000E+00  0.0000E+00  0.2400E+02  0.2400E+02
    -43.302  0.0000E+00  0.0000E+00  0.2400E+02  0.2400E+02
    -43.084  0.0000E+00  0.0000E+00  0.2400E+02  0.2400E+02
    -42.866  0.0000E+00  0.0000E+00  0.2400E+02  0.2400E+02
    -42.648  0.0000E+00  0.0000E+00  0.2400E+02  0.2400E+02
    -42.430  0.0000E+00  0.0000E+00  0.2400E+02  0.2400E+02
    -42.211  0.0000E+00  0.0000E+00  0.2400E+02  0.2400E+02
    -41.993  0.0000E+00  0.0000E+00  0.2400E+02  0.2400E+02
    -41.775  0.0000E+00  0.0000E+00  0.2400E+02  0.2400E+02
    -41.557  0.0000E+00  0.0000E+00  0.2400E+02  0.2400E+02
    -41.339  0.0000E+00  0.0000E+00  0.2400E+02  0.2400E+02
    -41.121  0.0000E+00  0.0000E+00  0.2400E+02  0.2400E+02
    -40.902  0.0000E+00  0.0000E+00  0.2400E+02  0.2400E+02
    -40.684  0.0000E+00  0.0000E+00  0.2400E+02  0.2400E+02
    -40.466  0.0000E+00  0.0000E+00  0.2400E+02  0.2400E+02
    -40.248  0.0000E+00  0.0000E+00  0.2400E+02  0.2400E+02
    -40.030  0.0000E+00  0.0000E+00  0.2400E+02  0.2400E+02
    -39.811  0.0000E+00  0.0000E+00  0.2400E+02  0.2400E+02
    -39.593  0.0000E+00  0.0000E+00  0.2400E+02  0.2400E+02
    -39.375  0.0000E+00  0.0000E+00  0.2400E+02  0.2400E+02
    -39.157  0.0000E+00  0.0000E+00  0.2400E+02  0.2400E+02
    -38.939  0.0000E+00  0.0000E+00  0.2400E+02  0.2400E+02
    -38.721  0.0000E+00  0.0000E+00  0.2400E+02  0.2400E+02
    -38.502  0.0000E+00  0.0000E+00  0.2400E+02  0.2400E+02
    -38.284  0.0000E+00  0.0000E+00  0.2400E+02  0.2400E+02
    -38.066  0.0000E+00  0.0000E+00  0.2400E+02  0.2400E+02
    -37.848  0.0000E+00  0.0000E+00  0.2400E+02  0.2400E+02
    -37.630  0.0000E+00  0.0000E+00  0.2400E+02  0.2400E+02
    -37.412  0.0000E+00  0.0000E+00  0.2400E+02  0.2400E+02
    -37.193  0.0000E+00  0.0000E+00  0.2400E+02  0.2400E+02
    -36.975  0.0000E+00  0.0000E+00  0.2400E+02  0.2400E+02
    -36.757  0.0000E+00  0.0000E+00  0.2400E+02  0.2400E+02
    -36.539  0.0000E+00  0.0000E+00  0.2400E+02  0.2400E+02
    -36.321  0.0000E+00  0.0000E+00  0.2400E+02  0.2400E+02
    -36.103  0.0000E+00  0.0000E+00  0.2400E+02  0.2400E+02
    -35.884  0.0000E+00  0.0000E+00  0.2400E+02  0.2400E+02
    -35.666  0.0000E+00  0.0000E+00  0.2400E+02  0.2400E+02
    -35.448  0.0000E+00  0.0000E+00  0.2400E+02  0.2400E+02
    -35.230  0.0000E+00  0.0000E+00  0.2400E+02  0.2400E+02
    -35.012  0.0000E+00  0.0000E+00  0.2400E+02  0.2400E+02
    -34.794  0.0000E+00  0.0000E+00  0.2400E+02  0.2400E+02
    -34.575  0.0000E+00  0.0000E+00  0.2400E+02  0.2400E+02
    -34.357  0.0000E+00  0.0000E+00  0.2400E+02  0.2400E+02
    -34.139  0.0000E+00  0.0000E+00  0.2400E+02  0.2400E+02
    -33.921  0.0000E+00  0.0000E+00  0.2400E+02  0.2400E+02
    -33.703  0.0000E+00  0.0000E+00  0.2400E+02  0.2400E+02
    -33.484  0.0000E+00  0.0000E+00  0.2400E+02  0.2400E+02
    -33.266  0.0000E+00  0.0000E+00  0.2400E+02  0.2400E+02
    -33.048  0.0000E+00  0.0000E+00  0.2400E+02  0.2400E+02
    -32.830  0.0000E+00  0.0000E+00  0.2400E+02  0.2400E+02
    -32.612  0.0000E+00  0.0000E+00  0.2400E+02  0.2400E+02
    -32.394  0.0000E+00  0.0000E+00  0.2400E+02  0.2400E+02
    -32.175  0.0000E+00  0.0000E+00  0.2400E+02  0.2400E+02
    -31.957  0.0000E+00  0.0000E+00  0.2400E+02  0.2400E+02
    -31.739  0.0000E+00  0.0000E+00  0.2400E+02  0.2400E+02
    -31.521  0.0000E+00  0.0000E+00  0.2400E+02  0.2400E+02
    -31.303  0.0000E+00  0.0000E+00  0.2400E+02  0.2400E+02
    -31.085  0.0000E+00  0.0000E+00  0.2400E+02  0.2400E+02
    -30.866  0.0000E+00  0.0000E+00  0.2400E+02  0.2400E+02
    -30.648  0.0000E+00  0.0000E+00  0.2400E+02  0.2400E+02
    -30.430  0.0000E+00  0.0000E+00  0.2400E+02  0.2400E+02
    -30.212  0.0000E+00  0.0000E+00  0.2400E+02  0.2400E+02
    -29.994  0.0000E+00  0.0000E+00  0.2400E+02  0.2400E+02
    -29.776  0.0000E+00  0.0000E+00  0.2400E+02  0.2400E+02
    -29.557  0.0000E+00  0.0000E+00  0.2400E+02  0.2400E+02
    -29.339  0.0000E+00  0.0000E+00  0.2400E+02  0.2400E+02
    -29.121  0.0000E+00  0.0000E+00  0.2400E+02  0.2400E+02
    -28.903  0.0000E+00  0.0000E+00  0.2400E+02  0.2400E+02
    -28.685  0.0000E+00  0.0000E+00  0.2400E+02  0.2400E+02
    -28.467  0.0000E+00  0.0000E+00  0.2400E+02  0.2400E+02
    -28.248  0.0000E+00  0.0000E+00  0.2400E+02  0.2400E+02
    -28.030  0.0000E+00  0.0000E+00  0.2400E+02  0.2400E+02
    -27.812  0.0000E+00  0.0000E+00  0.2400E+02  0.2400E+02
    -27.594  0.0000E+00  0.0000E+00  0.2400E+02  0.2400E+02
    -27.376  0.0000E+00  0.0000E+00  0.2400E+02  0.2400E+02
    -27.157  0.0000E+00  0.0000E+00  0.2400E+02  0.2400E+02
    -26.939  0.0000E+00  0.0000E+00  0.2400E+02  0.2400E+02
    -26.721  0.0000E+00  0.0000E+00  0.2400E+02  0.2400E+02
    -26.503  0.0000E+00  0.0000E+00  0.2400E+02  0.2400E+02
    -26.285  0.0000E+00  0.0000E+00  0.2400E+02  0.2400E+02
    -26.067  0.0000E+00  0.0000E+00  0.2400E+02  0.2400E+02
    -25.848  0.0000E+00  0.0000E+00  0.2400E+02  0.2400E+02
    -25.630  0.0000E+00  0.0000E+00  0.2400E+02  0.2400E+02
    -25.412  0.0000E+00  0.0000E+00  0.2400E+02  0.2400E+02
    -25.194  0.0000E+00  0.0000E+00  0.2400E+02  0.2400E+02
    -24.976  0.0000E+00  0.0000E+00  0.2400E+02  0.2400E+02
    -24.758  0.0000E+00  0.0000E+00  0.2400E+02  0.2400E+02
    -24.539  0.0000E+00  0.0000E+00  0.2400E+02  0.2400E+02
    -24.321  0.0000E+00  0.0000E+00  0.2400E+02  0.2400E+02
    -24.103  0.0000E+00  0.0000E+00  0.2400E+02  0.2400E+02
    -23.885  0.0000E+00  0.0000E+00  0.2400E+02  0.2400E+02
    -23.667  0.0000E+00  0.0000E+00  0.2400E+02  0.2400E+02
    -23.449  0.0000E+00  0.0000E+00  0.2400E+02  0.2400E+02
    -23.230  0.0000E+00  0.0000E+00  0.2400E+02  0.2400E+02
    -23.012  0.0000E+00  0.0000E+00  0.2400E+02  0.2400E+02
    -22.794  0.0000E+00  0.0000E+00  0.2400E+02  0.2400E+02
    -22.576  0.0000E+00  0.0000E+00  0.2400E+02  0.2400E+02
    -22.358  0.0000E+00  0.0000E+00  0.2400E+02  0.2400E+02
    -22.139  0.0000E+00  0.0000E+00  0.2400E+02  0.2400E+02
    -21.921  0.0000E+00  0.0000E+00  0.2400E+02  0.2400E+02
    -21.703  0.0000E+00  0.0000E+00  0.2400E+02  0.2400E+02
    -21.485  0.0000E+00  0.0000E+00  0.2400E+02  0.2400E+02
    -21.267  0.0000E+00  0.0000E+00  0.2400E+02  0.2400E+02
    -21.049  0.0000E+00  0.0000E+00  0.2400E+02  0.2400E+02
    -20.830  0.0000E+00  0.0000E+00  0.2400E+02  0.2400E+02
    -20.612  0.0000E+00  0.0000E+00  0.2400E+02  0.2400E+02
    -20.394  0.0000E+00  0.0000E+00  0.2400E+02  0.2400E+02
    -20.176  0.0000E+00  0.0000E+00  0.2400E+02  0.2400E+02
    -19.958  0.0000E+00  0.0000E+00  0.2400E+02  0.2400E+02
    -19.740  0.0000E+00  0.0000E+00  0.2400E+02  0.2400E+02
    -19.521  0.0000E+00  0.0000E+00  0.2400E+02  0.2400E+02
    -19.303  0.0000E+00  0.0000E+00  0.2400E+02  0.2400E+02
    -19.085  0.0000E+00  0.0000E+00  0.2400E+02  0.2400E+02
    -18.867  0.0000E+00  0.0000E+00  0.2400E+02  0.2400E+02
    -18.649  0.0000E+00  0.0000E+00  0.2400E+02  0.2400E+02
    -18.431  0.0000E+00  0.0000E+00  0.2400E+02  0.2400E+02
    -18.212  0.0000E+00  0.0000E+00  0.2400E+02  0.2400E+02
    -17.994  0.0000E+00  0.0000E+00  0.2400E+02  0.2400E+02
    -17.776  0.0000E+00  0.0000E+00  0.2400E+02  0.2400E+02
    -17.558  0.0000E+00  0.0000E+00  0.2400E+02  0.2400E+02
    -17.340  0.0000E+00  0.0000E+00  0.2400E+02  0.2400E+02
    -17.122  0.0000E+00  0.0000E+00  0.2400E+02  0.2400E+02
    -16.903  0.0000E+00  0.0000E+00  0.2400E+02  0.2400E+02
    -16.685  0.0000E+00  0.0000E+00  0.2400E+02  0.2400E+02
    -16.467  0.0000E+00  0.0000E+00  0.2400E+02  0.2400E+02
    -16.249  0.0000E+00  0.0000E+00  0.2400E+02  0.2400E+02
    -16.031  0.0000E+00  0.0000E+00  0.2400E+02  0.2400E+02
    -15.812  0.0000E+00  0.0000E+00  0.2400E+02  0.2400E+02
    -15.594  0.0000E+00  0.0000E+00  0.2400E+02  0.2400E+02
    -15.376  0.0000E+00  0.0000E+00  0.2400E+02  0.2400E+02
    -15.158  0.0000E+00  0.0000E+00  0.2400E+02  0.2400E+02
    -14.940  0.0000E+00  0.0000E+00  0.2400E+02  0.2400E+02
    -14.722  0.0000E+00  0.0000E+00  0.2400E+02  0.2400E+02
    -14.503  0.0000E+00  0.0000E+00  0.2400E+02  0.2400E+02
    -14.285  0.0000E+00  0.0000E+00  0.2400E+02  0.2400E+02
    -14.067  0.0000E+00  0.0000E+00  0.2400E+02  0.2400E+02
    -13.849  0.0000E+00  0.0000E+00  0.2400E+02  0.2400E+02
    -13.631  0.0000E+00  0.0000E+00  0.2400E+02  0.2400E+02
    -13.413  0.0000E+00  0.0000E+00  0.2400E+02  0.2400E+02
    -13.194  0.0000E+00  0.0000E+00  0.2400E+02  0.2400E+02
    -12.976  0.0000E+00  0.0000E+00  0.2400E+02  0.2400E+02
    -12.758  0.0000E+00  0.0000E+00  0.2400E+02  0.2400E+02
    -12.540  0.0000E+00  0.0000E+00  0.2400E+02  0.2400E+02
    -12.322  0.0000E+00  0.0000E+00  0.2400E+02  0.2400E+02
    -12.104  0.0000E+00  0.0000E+00  0.2400E+02  0.2400E+02
    -11.885  0.0000E+00  0.0000E+00  0.2400E+02  0.2400E+02
    -11.667  0.0000E+00  0.0000E+00  0.2400E+02  0.2400E+02
    -11.449  0.0000E+00  0.0000E+00  0.2400E+02  0.2400E+02
    -11.231  0.0000E+00  0.0000E+00  0.2400E+02  0.2400E+02
    -11.013  0.0000E+00  0.0000E+00  0.2400E+02  0.2400E+02
    -10.795  0.5827E+00  0.5827E+00  0.2401E+02  0.2401E+02
    -10.576  0.2788E+01  0.2788E+01  0.2429E+02  0.2429E+02
    -10.358  0.4012E+01  0.4012E+01  0.2481E+02  0.2481E+02
    -10.140  0.6259E+01  0.6259E+01  0.2565E+02  0.2565E+02
     -9.922  0.1816E+02  0.1816E+02  0.2744E+02  0.2744E+02
     -9.704  0.1864E+02  0.1864E+02  0.2986E+02  0.2986E+02
     -9.485  0.8034E+01  0.8034E+01  0.3186E+02  0.3186E+02
     -9.267  0.3430E+00  0.3430E+00  0.3200E+02  0.3200E+02
     -9.049  0.0000E+00  0.0000E+00  0.3200E+02  0.3200E+02
     -8.831  0.0000E+00  0.0000E+00  0.3200E+02  0.3200E+02
     -8.613  0.0000E+00  0.0000E+00  0.3200E+02  0.3200E+02
     -8.395  0.0000E+00  0.0000E+00  0.3200E+02  0.3200E+02
     -8.176  0.0000E+00  0.0000E+00  0.3200E+02  0.3200E+02
     -7.958  0.0000E+00  0.0000E+00  0.3200E+02  0.3200E+02
     -7.740  0.0000E+00  0.0000E+00  0.3200E+02  0.3200E+02
     -7.522  0.0000E+00  0.0000E+00  0.3200E+02  0.3200E+02
     -7.304  0.0000E+00  0.0000E+00  0.3200E+02  0.3200E+02
     -7.086  0.0000E+00  0.0000E+00  0.3200E+02  0.3200E+02
     -6.867  0.0000E+00  0.0000E+00  0.3200E+02  0.3200E+02
     -6.649  0.0000E+00  0.0000E+00  0.3200E+02  0.3200E+02
     -6.431  0.0000E+00  0.0000E+00  0.3200E+02  0.3200E+02
     -6.213  0.0000E+00  0.0000E+00  0.3200E+02  0.3200E+02
     -5.995  0.0000E+00  0.0000E+00  0.3200E+02  0.3200E+02
     -5.777  0.0000E+00  0.0000E+00  0.3200E+02  0.3200E+02
     -5.558  0.0000E+00  0.0000E+00  0.3200E+02  0.3200E+02
     -5.340  0.0000E+00  0.0000E+00  0.3200E+02  0.3200E+02
     -5.122  0.0000E+00  0.0000E+00  0.3200E+02  0.3200E+02
     -4.904  0.0000E+00  0.0000E+00  0.3200E+02  0.3200E+02
     -4.686  0.0000E+00  0.0000E+00  0.3200E+02  0.3200E+02
     -4.468  0.0000E+00  0.0000E+00  0.3200E+02  0.3200E+02
     -4.249  0.0000E+00  0.0000E+00  0.3200E+02  0.3200E+02
     -4.031  0.0000E+00  0.0000E+00  0.3200E+02  0.3200E+02
     -3.813  0.0000E+00  0.0000E+00  0.3200E+02  0.3200E+02
     -3.595  0.0000E+00  0.0000E+00  0.3200E+02  0.3200E+02
     -3.377  0.0000E+00  0.0000E+00  0.3200E+02  0.3200E+02
     -3.158  0.0000E+00  0.0000E+00  0.3200E+02  0.3200E+02
     -2.940  0.0000E+00  0.0000E+00  0.3200E+02  0.3200E+02
     -2.722  0.8051E-01  0.8051E-01  0.3200E+02  0.3200E+02
     -2.504  0.7364E+00  0.7364E+00  0.3209E+02  0.3209E+02
     -2.286  0.3389E+01  0.3389E+01  0.3239E+02  0.3239E+02
     -2.068  0.1133E+02  0.1133E+02  0.3370E+02  0.3370E+02
     -1.849  0.1084E+02  0.1084E+02  0.3569E+02  0.3569E+02
     -1.631  0.6867E+01  0.6867E+01  0.3698E+02  0.3698E+02
     -1.413  0.1049E+02  0.1049E+02  0.3836E+02  0.3836E+02
     -1.195  0.1369E+02  0.1369E+02  0.4054E+02  0.4054E+02
     -0.977  0.1180E+02  0.1180E+02  0.4208E+02  0.4208E+02
     -0.759  0.2003E+02  0.2003E+02  0.4448E+02  0.4448E+02
     -0.540  0.1626E+02  0.1626E+02  0.4712E+02  0.4712E+02
     -0.322  0.1441E+02  0.1441E+02  0.4901E+02  0.4901E+02
     -0.104  0.1606E+02  0.1606E+02  0.5165E+02  0.5165E+02
      0.114  0.1120E+02  0.1120E+02  0.5367E+02  0.5367E+02
      0.332  0.9818E+01  0.9818E+01  0.5516E+02  0.5516E+02
      0.550  0.1384E+02  0.1384E+02  0.5713E+02  0.5713E+02
      0.769  0.1684E+02  0.1684E+02  0.5959E+02  0.5959E+02
      0.987  0.3048E+02  0.3048E+02  0.6292E+02  0.6292E+02
      1.205  0.2930E+02  0.2930E+02  0.6776E+02  0.6776E+02
      1.423  0.1543E+02  0.1543E+02  0.7004E+02  0.7004E+02
      1.641  0.1261E+02  0.1261E+02  0.7202E+02  0.7202E+02
      1.859  0.8029E+01  0.8029E+01  0.7346E+02  0.7346E+02
      2.078  0.8417E+01  0.8417E+01  0.7465E+02  0.7465E+02
      2.296  0.5592E+01  0.5592E+01  0.7587E+02  0.7587E+02
      2.514  0.4839E+01  0.4839E+01  0.7674E+02  0.7674E+02
      2.732  0.4853E+01  0.4853E+01  0.7757E+02  0.7757E+02
      2.950  0.1380E+02  0.1380E+02  0.7928E+02  0.7928E+02
      3.169  0.9374E+01  0.9374E+01  0.8081E+02  0.8081E+02
      3.387  0.2152E+02  0.2152E+02  0.8297E+02  0.8297E+02
      3.605  0.1893E+02  0.1893E+02  0.8604E+02  0.8604E+02
      3.823  0.1854E+02  0.1854E+02  0.8847E+02  0.8847E+02
      4.041  0.1498E+02  0.1498E+02  0.9065E+02  0.9065E+02
      4.259  0.1324E+02  0.1324E+02  0.9264E+02  0.9264E+02
      4.478  0.9290E+01  0.9291E+01  0.9488E+02  0.9488E+02
      4.696  0.8335E+00  0.8336E+00  0.9513E+02  0.9513E+02
      4.914  0.1553E+01  0.1553E+01  0.9540E+02  0.9540E+02
      5.132  0.1426E+01  0.1431E+01  0.9567E+02  0.9567E+02
      5.350  0.8893E+00  0.9019E+00  0.9593E+02  0.9593E+02
      5.568  0.2793E+00  0.2724E+00  0.9602E+02  0.9602E+02
      5.787  0.4579E+00  0.4560E+00  0.9610E+02  0.9610E+02
      6.005  0.6726E+00  0.6903E+00  0.9622E+02  0.9622E+02
      6.223  0.1327E+01  0.1296E+01  0.9644E+02  0.9644E+02
      6.441  0.2271E+01  0.2260E+01  0.9678E+02  0.9678E+02
      6.659  0.3351E+01  0.3314E+01  0.9736E+02  0.9736E+02
      6.877  0.4978E+01  0.4719E+01  0.9821E+02  0.9821E+02
      7.096  0.4297E+01  0.4542E+01  0.9918E+02  0.9918E+02
      7.314  0.2040E+01  0.1983E+01  0.9978E+02  0.9974E+02
      7.532  0.4668E+00  0.5992E+00  0.9998E+02  0.9998E+02
      7.750  0.2079E-01  0.2079E-01  0.1000E+03  0.1000E+03
      7.968  0.0000E+00  0.0000E+00  0.1000E+03  0.1000E+03
      8.187  0.0000E+00  0.0000E+00  0.1000E+03  0.1000E+03
      8.405  0.0000E+00  0.0000E+00  0.1000E+03  0.1000E+03
      8.623  0.0000E+00  0.0000E+00  0.1000E+03  0.1000E+03
      8.841  0.0000E+00  0.0000E+00  0.1000E+03  0.1000E+03
      9.059  0.0000E+00  0.0000E+00  0.1000E+03  0.1000E+03
      9.277  0.0000E+00  0.0000E+00  0.1000E+03  0.1000E+03
      9.496  0.0000E+00  0.0000E+00  0.1000E+03  0.1000E+03
      9.714  0.0000E+00  0.0000E+00  0.1000E+03  0.1000E+03
      9.932  0.0000E+00  0.0000E+00  0.1000E+03  0.1000E+03
     10.150  0.0000E+00  0.0000E+00  0.1000E+03  0.1000E+03
     10.368  0.0000E+00  0.0000E+00  0.1000E+03  0.1000E+03
     10.586  0.0000E+00  0.0000E+00  0.1000E+03  0.1000E+03
     10.58640445    -54.86539741  301      3.04779221      1.00000000
    -54.865  0.0000E+00  0.0000E+00  0.0000E+00  0.0000E+00  0.0000E+00  0.0000E+00  0.0000E+00  0.0000E+00  0.0000E+00  0.0000E+00  0.0000E+00  0.0000E+00  0.0000E+00  0.0000E+00  0.0000E+00  0.0000E+00  0.0000E+00  0.0000E+00
    -54.647  0.0000E+00  0.0000E+00  0.0000E+00  0.0000E+00  0.0000E+00  0.0000E+00  0.0000E+00  0.0000E+00  0.0000E+00  0.0000E+00  0.0000E+00  0.0000E+00  0.0000E+00  0.0000E+00  0.0000E+00  0.0000E+00  0.0000E+00  0.0000E+00
    -54.429  0.0000E+00  0.0000E+00  0.0000E+00  0.0000E+00  0.0000E+00  0.0000E+00  0.0000E+00  0.0000E+00  0.0000E+00  0.0000E+00  0.0000E+00  0.0000E+00  0.0000E+00  0.0000E+00  0.0000E+00  0.0000E+00  0.0000E+00  0.0000E+00
    -54.211  0.0000E+00  0.0000E+00  0.0000E+00  0.0000E+00  0.0000E+00  0.0000E+00  0.0000E+00  0.0000E+00  0.0000E+00  0.0000E+00  0.0000E+00  0.0000E+00  0.0000E+00  0.0000E+00  0.0000E+00  0.0000E+00  0.0000E+00  0.0000E+00
    -53.993  0.0000E+00  0.0000E+00  0.0000E+00  0.0000E+00  0.0000E+00  0.0000E+00  0.0000E+00  0.0000E+00  0.0000E+00  0.0000E+00  0.0000E+00  0.0000E+00  0.0000E+00  0.0000E+00  0.0000E+00  0.0000E+00  0.0000E+00  0.0000E+00
    -53.775  0.0000E+00  0.0000E+00  0.0000E+00  0.0000E+00  0.0000E+00  0.0000E+00  0.0000E+00  0.0000E+00  0.0000E+00  0.0000E+00  0.0000E+00  0.0000E+00  0.0000E+00  0.0000E+00  0.0000E+00  0.0000E+00  0.0000E+00  0.0000E+00
    -53.556  0.0000E+00  0.0000E+00  0.0000E+00  0.0000E+00  0.0000E+00  0.0000E+00  0.0000E+00  0.0000E+00  0.0000E+00  0.0000E+00  0.0000E+00  0.0000E+00  0.0000E+00  0.0000E+00  0.0000E+00  0.0000E+00  0.0000E+00  0.0000E+00
    -53.338  0.0000E+00  0.0000E+00  0.0000E+00  0.0000E+00  0.0000E+00  0.0000E+00  0.0000E+00  0.0000E+00  0.0000E+00  0.0000E+00  0.0000E+00  0.0000E+00  0.0000E+00  0.0000E+00  0.0000E+00  0.0000E+00  0.0000E+00  0.0000E+00
    -53.120  0.0000E+00  0.0000E+00  0.0000E+00  0.0000E+00  0.0000E+00  0.0000E+00  0.0000E+00  0.0000E+00  0.0000E+00  0.0000E+00  0.0000E+00  0.0000E+00  0.0000E+00  0.0000E+00  0.0000E+00  0.0000E+00  0.0000E+00  0.0000E+00
    -52.902  0.0000E+00  0.0000E+00  0.0000E+00  0.0000E+00  0.0000E+00  0.0000E+00  0.0000E+00  0.0000E+00  0.0000E+00  0.0000E+00  0.0000E+00  0.0000E+00  0.0000E+00  0.0000E+00  0.0000E+00  0.0000E+00  0.0000E+00  0.0000E+00
    -52.684  0.0000E+00  0.0000E+00  0.0000E+00  0.0000E+00  0.0000E+00  0.0000E+00  0.0000E+00  0.0000E+00  0.0000E+00  0.0000E+00  0.0000E+00  0.0000E+00  0.0000E+00  0.0000E+00  0.0000E+00  0.0000E+00  0.0000E+00  0.0000E+00
    -52.465  0.0000E+00  0.0000E+00  0.0000E+00  0.0000E+00  0.0000E+00  0.0000E+00  0.0000E+00  0.0000E+00  0.0000E+00  0.0000E+00  0.0000E+00  0.0000E+00  0.0000E+00  0.0000E+00  0.0000E+00  0.0000E+00  0.0000E+00  0.0000E+00
    -52.247  0.0000E+00  0.0000E+00  0.0000E+00  0.0000E+00  0.0000E+00  0.0000E+00  0.0000E+00  0.0000E+00  0.0000E+00  0.0000E+00  0.0000E+00  0.0000E+00  0.0000E+00  0.0000E+00  0.0000E+00  0.0000E+00  0.0000E+00  0.0000E+00
    -52.029  0.0000E+00  0.0000E+00  0.0000E+00  0.0000E+00  0.0000E+00  0.0000E+00  0.0000E+00  0.0000E+00  0.0000E+00  0.0000E+00  0.0000E+00  0.0000E+00  0.0000E+00  0.0000E+00  0.0000E+00  0.0000E+00  0.0000E+00  0.0000E+00
    -51.811  0.1613E-10  0.1017E-05  0.1652E+01  0.4772E-04  0.2912E+01  0.2839E-05  0.3830E-10  0.2136E-07  0.2128E-05  0.1777E-08  0.5142E-10  0.1521E-06  0.3714E-10  0.2970E-06  0.3745E-05  0.1174E-09  0.5528E-10  0.1117E-05
    -51.593  0.1431E-03  0.1402E-05  0.2914E+01  0.7709E-04  0.1653E+01  0.6612E-07  0.4201E+01  0.1105E-05  0.3811E-05  0.8653E-07  0.8287E-09  0.7564E-08  0.6507E-04  0.5354E-06  0.2147E-05  0.1523E-09  0.1953E-03  0.1691E-05
    -51.375  0.5489E-04  0.1136E-08  0.1152E-09  0.3751E-07  0.1755E-10  0.4152E-09  0.2286E+01  0.3292E-06  0.5060E-11  0.3068E-07  0.3715E-09  0.1269E-09  0.2494E-04  0.3851E-09  0.3507E-11  0.1465E-09  0.7485E-04  0.1099E-09
    -51.156  0.0000E+00  0.0000E+00  0.0000E+00  0.0000E+00  0.0000E+00  0.0000E+00  0.0000E+00  0.0000E+00  0.0000E+00  0.0000E+00  0.0000E+00  0.0000E+00  0.0000E+00  0.0000E+00  0.0000E+00  0.0000E+00  0.0000E+00  0.0000E+00
    -50.938  0.0000E+00  0.0000E+00  0.0000E+00  0.0000E+00  0.0000E+00  0.0000E+00  0.0000E+00  0.0000E+00  0.0000E+00  0.0000E+00  0.0000E+00  0.0000E+00  0.0000E+00  0.0000E+00  0.0000E+00  0.0000E+00  0.0000E+00  0.0000E+00
    -50.720  0.0000E+00  0.0000E+00  0.0000E+00  0.0000E+00  0.0000E+00  0.0000E+00  0.0000E+00  0.0000E+00  0.0000E+00  0.0000E+00  0.0000E+00  0.0000E+00  0.0000E+00  0.0000E+00  0.0000E+00  0.0000E+00  0.0000E+00  0.0000E+00
    -50.502  0.0000E+00  0.0000E+00  0.0000E+00  0.0000E+00  0.0000E+00  0.0000E+00  0.0000E+00  0.0000E+00  0.0000E+00  0.0000E+00  0.0000E+00  0.0000E+00  0.0000E+00  0.0000E+00  0.0000E+00  0.0000E+00  0.0000E+00  0.0000E+00
    -50.284  0.0000E+00  0.0000E+00  0.0000E+00  0.0000E+00  0.0000E+00  0.0000E+00  0.0000E+00  0.0000E+00  0.0000E+00  0.0000E+00  0.0000E+00  0.0000E+00  0.0000E+00  0.0000E+00  0.0000E+00  0.0000E+00  0.0000E+00  0.0000E+00
    -50.066  0.0000E+00  0.0000E+00  0.0000E+00  0.0000E+00  0.0000E+00  0.0000E+00  0.0000E+00  0.0000E+00  0.0000E+00  0.0000E+00  0.0000E+00  0.0000E+00  0.0000E+00  0.0000E+00  0.0000E+00  0.0000E+00  0.0000E+00  0.0000E+00
    -49.847  0.0000E+00  0.0000E+00  0.0000E+00  0.0000E+00  0.0000E+00  0.0000E+00  0.0000E+00  0.0000E+00  0.0000E+00  0.0000E+00  0.0000E+00  0.0000E+00  0.0000E+00  0.0000E+00  0.0000E+00  0.0000E+00  0.0000E+00  0.0000E+00
    -49.629  0.0000E+00  0.0000E+00  0.0000E+00  0.0000E+00  0.0000E+00  0.0000E+00  0.0000E+00  0.0000E+00  0.0000E+00  0.0000E+00  0.0000E+00  0.0000E+00  0.0000E+00  0.0000E+00  0.0000E+00  0.0000E+00  0.0000E+00  0.0000E+00
    -49.411  0.0000E+00  0.0000E+00  0.0000E+00  0.0000E+00  0.0000E+00  0.0000E+00  0.0000E+00  0.0000E+00  0.0000E+00  0.0000E+00  0.0000E+00  0.0000E+00  0.0000E+00  0.0000E+00  0.0000E+00  0.0000E+00  0.0000E+00  0.0000E+00
    -49.193  0.0000E+00  0.0000E+00  0.0000E+00  0.0000E+00  0.0000E+00  0.0000E+00  0.0000E+00  0.0000E+00  0.0000E+00  0.0000E+00  0.0000E+00  0.0000E+00  0.0000E+00  0.0000E+00  0.0000E+00  0.0000E+00  0.0000E+00  0.0000E+00
    -48.975  0.0000E+00  0.0000E+00  0.0000E+00  0.0000E+00  0.0000E+00  0.0000E+00  0.0000E+00  0.0000E+00  0.0000E+00  0.0000E+00  0.0000E+00  0.0000E+00  0.0000E+00  0.0000E+00  0.0000E+00  0.0000E+00  0.0000E+00  0.0000E+00
    -48.757  0.1960E-05  0.1623E-03  0.9213E-04  0.2203E+01  0.1541E-05  0.2361E+01  0.1381E-05  0.3967E+01  0.1188E-06  0.3478E-05  0.2176E-06  0.3273E-08  0.5711E-06  0.7431E-04  0.1419E-09  0.3740E-05  0.2139E-05  0.2231E-03
    -48.538  0.1625E-05  0.6739E-04  0.6434E-04  0.2363E+01  0.5426E-06  0.2205E+01  0.4603E-06  0.2287E+01  0.4515E-07  0.3809E-05  0.2668E-07  0.1501E-08  0.6310E-06  0.3084E-04  0.7970E-10  0.3566E-05  0.1936E-05  0.9260E-04
    -48.320  0.0000E+00  0.0000E+00  0.0000E+00  0.0000E+00  0.0000E+00  0.0000E+00  0.0000E+00  0.0000E+00  0.0000E+00  0.0000E+00  0.0000E+00  0.0000E+00  0.0000E+00  0.0000E+00  0.0000E+00  0.0000E+00  0.0000E+00  0.0000E+00
    -48.102  0.0000E+00  0.0000E+00  0.0000E+00  0.0000E+00  0.0000E+00  0.0000E+00  0.0000E+00  0.0000E+00  0.0000E+00  0.0000E+00  0.0000E+00  0.0000E+00  0.0000E+00  0.0000E+00  0.0000E+00  0.0000E+00  0.0000E+00  0.0000E+00
    -47.884  0.0000E+00  0.0000E+00  0.0000E+00  0.0000E+00  0.0000E+00  0.0000E+00  0.0000E+00  0.0000E+00  0.0000E+00  0.0000E+00  0.0000E+00  0.0000E+00  0.0000E+00  0.0000E+00  0.0000E+00  0.0000E+00  0.0000E+00  0.0000E+00
    -47.666  0.0000E+00  0.0000E+00  0.0000E+00  0.0000E+00  0.0000E+00  0.0000E+00  0.0000E+00  0.0000E+00  0.0000E+00  0.0000E+00  0.0000E+00  0.0000E+00  0.0000E+00  0.0000E+00  0.0000E+00  0.0000E+00  0.0000E+00  0.0000E+00
    -47.448  0.0000E+00  0.0000E+00  0.0000E+00  0.0000E+00  0.0000E+00  0.0000E+00  0.0000E+00  0.0000E+00  0.0000E+00  0.0000E+00  0.0000E+00  0.0000E+00  0.0000E+00  0.0000E+00  0.0000E+00  0.0000E+00  0.0000E+00  0.0000E+00
    -47.229  0.0000E+00  0.0000E+00  0.0000E+00  0.0000E+00  0.0000E+00  0.0000E+00  0.0000E+00  0.0000E+00  0.0000E+00  0.0000E+00  0.0000E+00  0.0000E+00  0.0000E+00  0.0000E+00  0.0000E+00  0.0000E+00  0.0000E+00  0.0000E+00
    -47.011  0.0000E+00  0.0000E+00  0.0000E+00  0.0000E+00  0.0000E+00  0.0000E+00  0.0000E+00  0.0000E+00  0.0000E+00  0.0000E+00  0.0000E+00  0.0000E+00  0.0000E+00  0.0000E+00  0.0000E+00  0.0000E+00  0.0000E+00  0.0000E+00
    -46.793  0.0000E+00  0.0000E+00  0.0000E+00  0.0000E+00  0.0000E+00  0.0000E+00  0.0000E+00  0.0000E+00  0.0000E+00  0.0000E+00  0.0000E+00  0.0000E+00  0.0000E+00  0.0000E+00  0.0000E+00  0.0000E+00  0.0000E+00  0.0000E+00
    -46.575  0.0000E+00  0.0000E+00  0.0000E+00  0.0000E+00  0.0000E+00  0.0000E+00  0.0000E+00  0.0000E+00  0.0000E+00  0.0000E+00  0.0000E+00  0.0000E+00  0.0000E+00  0.0000E+00  0.0000E+00  0.0000E+00  0.0000E+00  0.0000E+00
    -46.357  0.0000E+00  0.0000E+00  0.0000E+00  0.0000E+00  0.0000E+00  0.0000E+00  0.0000E+00  0.0000E+00  0.0000E+00  0.0000E+00  0.0000E+00  0.0000E+00  0.0000E+00  0.0000E+00  0.0000E+00  0.0000E+00  0.0000E+00  0.0000E+00
    -46.138  0.0000E+00  0.0000E+00  0.0000E+00  0.0000E+00  0.0000E+00  0.0000E+00  0.0000E+00  0.0000E+00  0.0000E+00  0.0000E+00  0.0000E+00  0.0000E+00  0.0000E+00  0.0000E+00  0.0000E+00  0.0000E+00  0.0000E+00  0.0000E+00
    -45.920  0.0000E+00  0.0000E+00  0.0000E+00  0.0000E+00  0.0000E+00  0.0000E+00  0.0000E+00  0.0000E+00  0.0000E+00  0.0000E+00  0.0000E+00  0.0000E+00  0.0000E+00  0.0000E+00  0.0000E+00  0.0000E+00  0.0000E+00  0.0000E+00
    -45.702  0.0000E+00  0.0000E+00  0.0000E+00  0.0000E+00  0.0000E+00  0.0000E+00  0.0000E+00  0.0000E+00  0.0000E+00  0.0000E+00  0.0000E+00  0.0000E+00  0.0000E+00  0.0000E+00  0.0000E+00  0.0000E+00  0.0000E+00  0.0000E+00
    -45.484  0.0000E+00  0.0000E+00  0.0000E+00  0.0000E+00  0.0000E+00  0.0000E+00  0.0000E+00  0.0000E+00  0.0000E+00  0.0000E+00  0.0000E+00  0.0000E+00  0.0000E+00  0.0000E+00  0.0000E+00  0.0000E+00  0.0000E+00  0.0000E+00
    -45.266  0.0000E+00  0.0000E+00  0.0000E+00  0.0000E+00  0.0000E+00  0.0000E+00  0.0000E+00  0.0000E+00  0.0000E+00  0.0000E+00  0.0000E+00  0.0000E+00  0.0000E+00  0.0000E+00  0.0000E+00  0.0000E+00  0.0000E+00  0.0000E+00
    -45.048  0.0000E+00  0.0000E+00  0.0000E+00  0.0000E+00  0.0000E+00  0.0000E+00  0.0000E+00  0.0000E+00  0.0000E+00  0.0000E+00  0.0000E+00  0.0000E+00  0.0000E+00  0.0000E+00  0.0000E+00  0.0000E+00  0.0000E+00  0.0000E+00
    -44.829  0.0000E+00  0.0000E+00  0.0000E+00  0.0000E+00  0.0000E+00  0.0000E+00  0.0000E+00  0.0000E+00  0.0000E+00  0.0000E+00  0.0000E+00  0.0000E+00  0.0000E+00  0.0000E+00  0.0000E+00  0.0000E+00  0.0000E+00  0.0000E+00
    -44.611  0.0000E+00  0.0000E+00  0.0000E+00  0.0000E+00  0.0000E+00  0.0000E+00  0.0000E+00  0.0000E+00  0.0000E+00  0.0000E+00  0.0000E+00  0.0000E+00  0.0000E+00  0.0000E+00  0.0000E+00  0.0000E+00  0.0000E+00  0.0000E+00
    -44.393  0.0000E+00  0.0000E+00  0.0000E+00  0.0000E+00  0.0000E+00  0.0000E+00  0.0000E+00  0.0000E+00  0.0000E+00  0.0000E+00  0.0000E+00  0.0000E+00  0.0000E+00  0.0000E+00  0.0000E+00  0.0000E+00  0.0000E+00  0.0000E+00
    -44.175  0.0000E+00  0.0000E+00  0.0000E+00  0.0000E+00  0.0000E+00  0.0000E+00  0.0000E+00  0.0000E+00  0.0000E+00  0.0000E+00  0.0000E+00  0.0000E+00  0.0000E+00  0.0000E+00  0.0000E+00  0.0000E+00  0.0000E+00  0.0000E+00
    -43.957  0.0000E+00  0.0000E+00  0.0000E+00  0.0000E+00  0.0000E+00  0.0000E+00  0.0000E+00  0.0000E+00  0.0000E+00  0.0000E+00  0.0000E+00  0.0000E+00  0.0000E+00  0.0000E+00  0.0000E+00  0.0000E+00  0.0000E+00  0.0000E+00