       N       E                     dE             d eps       ncg     rms          rms(c)
DAV:   1     0.198006947333E+04    0.19801E+04   -0.88788E+04 36300   0.191E+03
DAV:   2     0.121866185808E+03   -0.18582E+04   -0.18057E+04 32000   0.556E+02
DAV:   3    -0.855944340807E+02   -0.20746E+03   -0.18498E+03 46360   0.182E+02
DAV:   4    -0.100559400080E+03   -0.14965E+02   -0.14644E+02 47620   0.509E+01
DAV:   5    -0.100892843257E+03   -0.33344E+00   -0.33254E+00 43960   0.820E+00    0.282E+01
RMM:   6    -0.113739098829E+03   -0.12846E+02   -0.18308E+02 32111   0.870E+01    0.557E+01
RMM:   7    -0.910505722471E+02    0.22689E+02   -0.47112E+01 32027   0.527E+01    0.124E+01
RMM:   8    -0.916573062211E+02   -0.60673E+00   -0.31749E+00 41292   0.508E+00    0.606E+00
RMM:   9    -0.917693180949E+02   -0.11201E+00   -0.99340E-01 44092   0.304E+00    0.326E+00
RMM:  10    -0.918099003768E+02   -0.40582E-01   -0.32423E-01 46282   0.165E+00    0.215E+00
RMM:  11    -0.918046169245E+02    0.52835E-02   -0.94471E-02 39610   0.139E+00    0.962E-01
RMM:  12    -0.918198805699E+02   -0.15264E-01   -0.37822E-02 42591   0.742E-01    0.568E-01
RMM:  13    -0.918193313060E+02    0.54926E-03   -0.10894E-02 41224   0.336E-01    0.201E-01
RMM:  14    -0.918192339511E+02    0.97355E-04   -0.32177E-03 35125   0.183E-01    0.109E-01
RMM:  15    -0.918192758324E+02   -0.41881E-04   -0.57658E-04 21509   0.109E-01
   1 F= -.98048349E+02 E0= -.98040078E+02  d E =-.980483E+02  mag=    -0.0000
       N       E                     dE             d eps       ncg     rms          rms(c)
DAV:   1    -0.918236015151E+02   -0.43676E-02   -0.11027E-01 37020   0.136E+00    0.449E-01
RMM:   2    -0.918210546124E+02    0.25469E-02   -0.69304E-03 35123   0.542E-01    0.337E-01
RMM:   3    -0.918202852314E+02    0.76938E-03   -0.48447E-03 32064   0.458E-01    0.232E-01
RMM:   4    -0.918197284738E+02    0.55676E-03   -0.14882E-03 27154   0.214E-01    0.707E-02
RMM:   5    -0.918197588333E+02   -0.30359E-04   -0.42646E-04 19998   0.845E-02
   2 F= -.98048954E+02 E0= -.98040850E+02  d E =-.605152E-03  mag=     0.0000
       N       E                     dE             d eps       ncg     rms          rms(c)
DAV:   1    -0.918197377970E+02   -0.93232E-05   -0.33175E-04 26060   0.109E-01    0.309E-02
RMM:   2    -0.918197387599E+02   -0.96288E-06   -0.87526E-05 16471   0.662E-02
   3 F= -.98048940E+02 E0= -.98040875E+02  d E =-.591299E-03  mag=     0.0000
