 vasp.6.4.1 05Apr23 (build Jun 01 2023 13:46:15) complex                        
  
 executed on             LinuxIFC date 2023.12.16  19:40:46
 running   20 mpi-ranks, on    5 nodes
 distrk:  each k-point on   20 cores,    1 groups
 distr:  one band on NCORE=   1 cores,   20 groups


--------------------------------------------------------------------------------------------------------


 INCAR:
   ALGO = Fast
   EDIFF = 0.0002
   ENCUT = 550
   IBRION = -1
   ISIF = 4
   ISMEAR = -5
   ISPIN = 2
   IVDW = 13
   LASPH = True
   LMAXMIX = 4
   LORBIT = 11
   LREAL = Auto
   LWAVE = False
   MAGMOM = 1*2.662 2*-2.662 2*2.662 2*-2.662 1*2.662 8*0.0
   NELM = 100
   NSW = 0
   PREC = Accurate
   SIGMA = 0.05

 POTCAR:   PAW_PBE Fe_pv 06Sep2000                
 POTCAR:   PAW_PBE Se 06Sep2000                   
 -----------------------------------------------------------------------------
|                                                                             |
|           W    W    AA    RRRRR   N    N  II  N    N   GGGG   !!!           |
|           W    W   A  A   R    R  NN   N  II  NN   N  G    G  !!!           |
|           W    W  A    A  R    R  N N  N  II  N N  N  G       !!!           |
|           W WW W  AAAAAA  RRRRR   N  N N  II  N  N N  G  GGG   !            |
|           WW  WW  A    A  R   R   N   NN  II  N   NN  G    G                |
|           W    W  A    A  R    R  N    N  II  N    N   GGGG   !!!           |
|                                                                             |
|     For optimal performance we recommend to set                             |
|       NCORE = 2 up to number-of-cores-per-socket                            |
|     NCORE specifies how many cores store one orbital (NPAR=cpu/NCORE).      |
|     This setting can greatly improve the performance of VASP for DFT.       |
|     The default, NCORE=1 might be grossly inefficient on modern             |
|     multi-core architectures or massively parallel machines. Do your        |
|     own testing! More info at https://www.vasp.at/wiki/index.php/NCORE      |
|     Unfortunately you need to use the default for GW and RPA                |
|     calculations (for HF NCORE is supported but not extensively tested      |
|     yet).                                                                   |
|                                                                             |
 -----------------------------------------------------------------------------

 POTCAR:   PAW_PBE Fe_pv 06Sep2000                
   VRHFIN =Fe:  3pd7s1                                                                              
   LEXCH  = PE                                                                                      
   EATOM  =  2456.8974 eV,  180.5769 Ry                                                             
                                                                                                    
   TITEL  = PAW_PBE Fe_pv 06Sep2000                                                                 
   LULTRA =        F    use ultrasoft PP ?                                                          
   IUNSCR =        1    unscreen: 0-lin 1-nonlin 2-no                                               
   RPACOR =    1.750    partial core radius                                                         
   POMASS =   55.847; ZVAL   =   14.000    mass and valenz                                          
   RCORE  =    2.200    outmost cutoff radius                                                       
   RWIGS  =    2.200; RWIGS  =    1.164    wigner-seitz radius (au A)                               
   ENMAX  =  293.238; ENMIN  =  219.929 eV                                                          
   RCLOC  =    1.701    cutoff for local pot                                                        
   LCOR   =        T    correct aug charges                                                         
   LPAW   =        T    paw PP                                                                      
   EAUG   =  578.342                                                                                
   DEXC   =    -.002                                                                                
   RMAX   =    2.693    core radius for proj-oper                                                   
   RAUG   =    1.300    factor for augmentation sphere                                              
   RDEP   =    2.296    radius for radial grids                                                     
   QCUT   =   -4.642; QGAM   =    9.285    optimization parameters                                  
                                                                                                    
   Description                                                                                      
     l     E      TYP  RCUT    TYP  RCUT                                                            
     1   .000     23  2.000                                                                         
     1  -.400     23  2.000                                                                         
     2   .000     23  2.200                                                                         
     2   .000     23  2.200                                                                         
     0   .000     23  2.000                                                                         
     0  2.000     23  2.000                                                                         
     3   .000      7   .000                                                                         
  local pseudopotential read in
  partial core-charges read in
  atomic valenz-charges read in
  non local Contribution for L=           1  read in
    real space projection operators read in
  non local Contribution for L=           1  read in
    real space projection operators read in
  non local Contribution for L=           2  read in
    real space projection operators read in
  non local Contribution for L=           2  read in
    real space projection operators read in
  non local Contribution for L=           0  read in
    real space projection operators read in
  non local Contribution for L=           0  read in
    real space projection operators read in
    PAW grid and wavefunctions read in
 
   number of l-projection  operators is LMAX  =           6
   number of lm-projection operators is LMMAX =          18
 
 POTCAR:   PAW_PBE Se 06Sep2000                   
   VRHFIN =Se: s2p4                                                                                 
   LEXCH  = PE                                                                                      
   EATOM  =   256.9644 eV,   18.8864 Ry                                                             
                                                                                                    
   TITEL  = PAW_PBE Se 06Sep2000                                                                    
   LULTRA =        F    use ultrasoft PP ?                                                          
   IUNSCR =        1    unscreen: 0-lin 1-nonlin 2-no                                               
   RPACOR =    1.900    partial core radius                                                         
   POMASS =   78.960; ZVAL   =    6.000    mass and valenz                                          
   RCORE  =    2.100    outmost cutoff radius                                                       
   RWIGS  =    2.200; RWIGS  =    1.164    wigner-seitz radius (au A)                               
   ENMAX  =  211.534; ENMIN  =  158.651 eV                                                          
   ICORE  =        3    local potential                                                             
   LCOR   =        T    correct aug charges                                                         
   LPAW   =        T    paw PP                                                                      
   EAUG   =  446.842                                                                                
   DEXC   =    -.031                                                                                
   RMAX   =    3.170    core radius for proj-oper                                                   
   RAUG   =    1.300    factor for augmentation sphere                                              
   RDEP   =    2.177    radius for radial grids                                                     
   QCUT   =   -3.943; QGAM   =    7.886    optimization parameters                                  
                                                                                                    
   Description                                                                                      
     l     E      TYP  RCUT    TYP  RCUT                                                            
     0   .000     23  2.100                                                                         
     0   .000     23  2.100                                                                         
     1   .000     23  2.100                                                                         
     1   .000     23  2.100                                                                         
     2   .000     23  2.100                                                                         
     3  -.100      7  2.100                                                                         
  local pseudopotential read in
  partial core-charges read in
  atomic valenz-charges read in
  non local Contribution for L=           0  read in
    real space projection operators read in
  non local Contribution for L=           0  read in
    real space projection operators read in
  non local Contribution for L=           1  read in
    real space projection operators read in
  non local Contribution for L=           1  read in
    real space projection operators read in
  non local Contribution for L=           2  read in
    real space projection operators read in
    PAW grid and wavefunctions read in
 
   number of l-projection  operators is LMAX  =           5
   number of lm-projection operators is LMMAX =          13
 
 Optimization of the real space projectors (new method)

 maximal supplied QI-value         = 17.01
 optimisation between [QCUT,QGAM] = [ 11.91, 23.98] = [ 39.69,161.04] Ry 
 Optimized for a Real-space Cutoff    1.45 Angstroem

   l    n(q)    QCUT    max X(q) W(low)/X(q) W(high)/X(q)  e(spline) 
   1     10    11.905     4.550    0.27E-05    0.11E-05    0.28E-07
   1     10    11.905     5.234    0.10E-04    0.61E-04    0.17E-06
   2      9    11.905     3.960    0.19E-04    0.73E-05    0.50E-07
   2      9    11.905    29.565    0.24E-03    0.51E-04    0.27E-06
   0     10    11.905    23.582    0.17E-04    0.10E-05    0.14E-07
   0     10    11.905    39.747    0.23E-04    0.68E-05    0.74E-07
 Optimization of the real space projectors (new method)

 maximal supplied QI-value         = 17.95
 optimisation between [QCUT,QGAM] = [ 11.85, 23.88] = [ 39.31,159.64] Ry 
 Optimized for a Real-space Cutoff    1.18 Angstroem

   l    n(q)    QCUT    max X(q) W(low)/X(q) W(high)/X(q)  e(spline) 
   0      8    11.849     6.499    0.17E-04    0.94E-05    0.89E-08
   0      8    11.849    52.623    0.21E-03    0.78E-04    0.81E-07
   1      8    11.849     4.229    0.79E-04    0.83E-04    0.23E-07
   1      8    11.849    29.991    0.12E-03    0.43E-03    0.14E-06
   2      7    11.849     3.719    0.22E-03    0.64E-04    0.38E-07
 PAW_PBE Fe_pv 06Sep2000                :
 energy of atom  1       EATOM=-2456.8974
 kinetic energy error for atom=    0.0060 (will be added to EATOM!!)
 PAW_PBE Se 06Sep2000                   :
 energy of atom  2       EATOM= -256.9644
 kinetic energy error for atom=    0.0007 (will be added to EATOM!!)
 
 
 POSCAR: Fe8 Se8
  positions in direct lattice
  velocities in cartesian coordinates
 exchange correlation table for  LEXCH =        8
   RHO(1)=    0.500       N(1)  =     2000
   RHO(2)=  100.500       N(2)  =     4000
 


--------------------------------------------------------------------------------------------------------


 ion  position               nearest neighbor table
   1  0.000  0.000  0.000-  11 2.29  14 2.29   5 2.45   8 2.45
   2  0.000  0.500  0.000-  12 2.29  13 2.29   6 2.45   7 2.45
   3  0.500  0.000  0.000-   9 2.29  16 2.29   6 2.45   7 2.45
   4  0.500  0.500  0.000-  10 2.29  15 2.29   5 2.45   8 2.45
   5  0.250  0.250  0.000-   9 2.29  13 2.29   1 2.45   4 2.45
   6  0.250  0.750  0.000-  10 2.29  14 2.29   2 2.45   3 2.45
   7  0.750  0.250  0.000-  11 2.29  15 2.29   2 2.45   3 2.45
   8  0.750  0.750  0.000-  12 2.29  16 2.29   1 2.45   4 2.45
   9  0.375  0.125  0.702-   3 2.29   5 2.29
  10  0.375  0.625  0.702-   4 2.29   6 2.29
  11  0.875  0.125  0.702-   1 2.29   7 2.29
  12  0.875  0.625  0.702-   2 2.29   8 2.29
  13  0.125  0.375  0.298-   2 2.29   5 2.29
  14  0.125  0.875  0.298-   1 2.29   6 2.29
  15  0.625  0.375  0.298-   4 2.29   7 2.29
  16  0.625  0.875  0.298-   3 2.29   8 2.29
 
  LATTYP: Found a base centered orthorhombic cell.
 ALAT       =     9.7916110729
 B/A-ratio  =     1.2007694473
 C/A-ratio  =     0.6032353996
  
  Lattice vectors:
  
 A1 = (   4.8958055364,  -5.8787337082,   0.0000000000)
 A2 = (   4.8958055364,   5.8787337082,   0.0000000000)
 A3 = (   0.0000000000,   0.0000000000,   5.9066464187)


Analysis of symmetry for initial positions (statically):
=====================================================================
 Subroutine PRICEL returns following result:
 
  LATTYP: Found a base centered orthorhombic cell.
 ALAT       =     4.8958055364
 B/A-ratio  =     1.2007694473
 C/A-ratio  =     1.2064707993
  
  Lattice vectors:
  
 A1 = (   2.4479027682,  -2.9393668541,   0.0000000000)
 A2 = (   2.4479027682,   2.9393668541,   0.0000000000)
 A3 = (   0.0000000000,   0.0000000000,   5.9066464187)
 
   4 primitive cells build up your supercell.
 

 Routine SETGRP: Setting up the symmetry group for a 
 base centered orthorhombic supercell.


 Subroutine GETGRP returns: Found  8 space group operations
 (whereof  4 operations were pure point group operations)
 out of a pool of  8 trial point group operations.


The static configuration has the point symmetry C_2h.
 The point group associated with its full space group is D_2h.


Analysis of symmetry for dynamics (positions and initial velocities):
=====================================================================
 Subroutine PRICEL returns following result:
 
  LATTYP: Found a base centered orthorhombic cell.
 ALAT       =     4.8958055364
 B/A-ratio  =     1.2007694473
 C/A-ratio  =     1.2064707993
  
  Lattice vectors:
  
 A1 = (   2.4479027682,  -2.9393668541,   0.0000000000)
 A2 = (   2.4479027682,   2.9393668541,   0.0000000000)
 A3 = (   0.0000000000,   0.0000000000,   5.9066464187)
 
   4 primitive cells build up your supercell.
 

 Routine SETGRP: Setting up the symmetry group for a 
 base centered orthorhombic supercell.


 Subroutine GETGRP returns: Found  8 space group operations
 (whereof  4 operations were pure point group operations)
 out of a pool of  8 trial point group operations.


The dynamic configuration has the point symmetry C_2h.
 The point group associated with its full space group is D_2h.


Analysis of structural, dynamic, and magnetic symmetry:
=====================================================================
 Subroutine PRICEL returns following result:
 
  LATTYP: Found a base centered orthorhombic cell.
 ALAT       =     4.8958055364
 B/A-ratio  =     1.2007694473
 C/A-ratio  =     1.2064707993
  
  Lattice vectors:
  
 A1 = (   2.4479027682,  -2.9393668541,   0.0000000000)
 A2 = (   2.4479027682,   2.9393668541,   0.0000000000)
 A3 = (   0.0000000000,   0.0000000000,   5.9066464187)
 
   4 primitive cells build up your supercell.
 

 Routine SETGRP: Setting up the symmetry group for a 
 base centered orthorhombic supercell.


 Subroutine GETGRP returns: Found  8 space group operations
 (whereof  4 operations were pure point group operations)
 out of a pool of  8 trial point group operations.


The overall configuration has the point symmetry C_2h.
 The point group associated with its full space group is D_2h.


 Subroutine INISYM returns: Found  8 space group operations
 (whereof  4 operations are pure point group operations),
 and found     4 'primitive' translations


----------------------------------------------------------------------------------------

                                     Primitive cell                                     

  volume of cell :      85.0000

  direct lattice vectors                    reciprocal lattice vectors
     2.447902768 -2.939366854  0.000000000     0.204256479 -0.170104660  0.000000000
     2.447902768  2.939366854  0.000000000     0.204256479  0.170104660  0.000000000
     0.000000000  0.000000000  5.906646419     0.000000000  0.000000000  0.169300806

  length of vectors
     3.825193520  3.825193520  5.906646419     0.265812537  0.265812537  0.169300806

  position of ions in fractional coordinates (direct lattice)
     0.000000000  0.000000000  0.000000000
     0.500000000  0.500000000  0.000000000
     0.750000000  0.250000000  0.702224053
     0.250000000  0.750000000  0.297775947

  ion indices of the primitive-cell ions
   primitive index   ion index
                 1           1
                 2           5
                 3          11
                 4          14

----------------------------------------------------------------------------------------

 
 
 KPOINTS: KPOINTS                                 

Automatic generation of k-mesh.
 Grid dimensions read from file:
 generate k-points for:    7    7    9

 Generating k-lattice:

  Cartesian coordinates                     Fractional coordinates (reciprocal lattice)
     0.014589748 -0.012150333  0.000000000     0.142857143  0.000000000  0.000000000
     0.014589748  0.012150333  0.000000000     0.000000000  0.142857143  0.000000000
     0.000000000  0.000000000  0.018811201     0.000000000  0.000000000  0.111111111

  Length of vectors
     0.018986610  0.018986610  0.018811201

  Shift w.r.t. Gamma in fractional coordinates (k-lattice)
     0.000000000  0.000000000  0.000000000

 TETIRR: Found    664 inequivalent tetrahedra from     2646
 
 Subroutine IBZKPT returns following result:
 ===========================================
 
 Found     80 irreducible k-points:
 
 Following reciprocal coordinates:
            Coordinates               Weight
  0.000000  0.000000  0.000000      1.000000
  0.142857  0.000000  0.000000      4.000000
  0.285714  0.000000  0.000000      4.000000
  0.428571 -0.000000  0.000000      4.000000
  0.142857  0.142857  0.000000      2.000000
  0.285714  0.142857  0.000000      4.000000
  0.428571  0.142857  0.000000      4.000000
 -0.428571  0.142857  0.000000      4.000000
 -0.285714  0.142857  0.000000      4.000000
 -0.142857  0.142857  0.000000      2.000000
  0.285714  0.285714  0.000000      2.000000
  0.428571  0.285714  0.000000      4.000000
 -0.428571  0.285714  0.000000      4.000000
 -0.285714  0.285714  0.000000      2.000000
  0.428571  0.428571  0.000000      2.000000
 -0.428571  0.428571  0.000000      2.000000
  0.000000  0.000000  0.111111      2.000000
  0.142857  0.000000  0.111111      8.000000
  0.285714  0.000000  0.111111      8.000000
  0.428571 -0.000000  0.111111      8.000000
  0.142857  0.142857  0.111111      4.000000
  0.285714  0.142857  0.111111      8.000000
  0.428571  0.142857  0.111111      8.000000
 -0.428571  0.142857  0.111111      8.000000
 -0.285714  0.142857  0.111111      8.000000
 -0.142857  0.142857  0.111111      4.000000
  0.285714  0.285714  0.111111      4.000000
  0.428571  0.285714  0.111111      8.000000
 -0.428571  0.285714  0.111111      8.000000
 -0.285714  0.285714  0.111111      4.000000
  0.428571  0.428571  0.111111      4.000000
 -0.428571  0.428571  0.111111      4.000000
  0.000000  0.000000  0.222222      2.000000
  0.142857  0.000000  0.222222      8.000000
  0.285714  0.000000  0.222222      8.000000
  0.428571 -0.000000  0.222222      8.000000
  0.142857  0.142857  0.222222      4.000000
  0.285714  0.142857  0.222222      8.000000
  0.428571  0.142857  0.222222      8.000000
 -0.428571  0.142857  0.222222      8.000000
 -0.285714  0.142857  0.222222      8.000000
 -0.142857  0.142857  0.222222      4.000000
  0.285714  0.285714  0.222222      4.000000
  0.428571  0.285714  0.222222      8.000000
 -0.428571  0.285714  0.222222      8.000000
 -0.285714  0.285714  0.222222      4.000000
  0.428571  0.428571  0.222222      4.000000
 -0.428571  0.428571  0.222222      4.000000
  0.000000  0.000000  0.333333      2.000000
  0.142857  0.000000  0.333333      8.000000
  0.285714  0.000000  0.333333      8.000000
  0.428571 -0.000000  0.333333      8.000000
  0.142857  0.142857  0.333333      4.000000
  0.285714  0.142857  0.333333      8.000000
  0.428571  0.142857  0.333333      8.000000
 -0.428571  0.142857  0.333333      8.000000
 -0.285714  0.142857  0.333333      8.000000
 -0.142857  0.142857  0.333333      4.000000
  0.285714  0.285714  0.333333      4.000000
  0.428571  0.285714  0.333333      8.000000
 -0.428571  0.285714  0.333333      8.000000
 -0.285714  0.285714  0.333333      4.000000
  0.428571  0.428571  0.333333      4.000000
 -0.428571  0.428571  0.333333      4.000000
  0.000000  0.000000  0.444444      2.000000
  0.142857  0.000000  0.444444      8.000000
  0.285714  0.000000  0.444444      8.000000
  0.428571 -0.000000  0.444444      8.000000
  0.142857  0.142857  0.444444      4.000000
  0.285714  0.142857  0.444444      8.000000
  0.428571  0.142857  0.444444      8.000000
 -0.428571  0.142857  0.444444      8.000000
 -0.285714  0.142857  0.444444      8.000000
 -0.142857  0.142857  0.444444      4.000000
  0.285714  0.285714  0.444444      4.000000
  0.428571  0.285714  0.444444      8.000000
 -0.428571  0.285714  0.444444      8.000000
 -0.285714  0.285714  0.444444      4.000000
  0.428571  0.428571  0.444444      4.000000
 -0.428571  0.428571  0.444444      4.000000
 
 Following cartesian coordinates:
            Coordinates               Weight
  0.000000  0.000000  0.000000      1.000000
  0.014590 -0.012150  0.000000      4.000000
  0.029179 -0.024301  0.000000      4.000000
  0.043769 -0.036451  0.000000      4.000000
  0.029179 -0.000000  0.000000      2.000000
  0.043769 -0.012150  0.000000      4.000000
  0.058359 -0.024301  0.000000      4.000000
 -0.029179  0.048601  0.000000      4.000000
 -0.014590  0.036451  0.000000      4.000000
 -0.000000  0.024301  0.000000      2.000000
  0.058359 -0.000000  0.000000      2.000000
  0.072949 -0.012150  0.000000      4.000000
 -0.014590  0.060752  0.000000      4.000000
 -0.000000  0.048601  0.000000      2.000000
  0.087538  0.000000  0.000000      2.000000
  0.000000  0.072902  0.000000      2.000000
  0.000000  0.000000  0.018811      2.000000
  0.014590 -0.012150  0.018811      8.000000
  0.029179 -0.024301  0.018811      8.000000
  0.043769 -0.036451  0.018811      8.000000
  0.029179 -0.000000  0.018811      4.000000
  0.043769 -0.012150  0.018811      8.000000
  0.058359 -0.024301  0.018811      8.000000
 -0.029179  0.048601  0.018811      8.000000
 -0.014590  0.036451  0.018811      8.000000
 -0.000000  0.024301  0.018811      4.000000
  0.058359 -0.000000  0.018811      4.000000
  0.072949 -0.012150  0.018811      8.000000
 -0.014590  0.060752  0.018811      8.000000
 -0.000000  0.048601  0.018811      4.000000
  0.087538  0.000000  0.018811      4.000000
  0.000000  0.072902  0.018811      4.000000
  0.000000  0.000000  0.037622      2.000000
  0.014590 -0.012150  0.037622      8.000000
  0.029179 -0.024301  0.037622      8.000000
  0.043769 -0.036451  0.037622      8.000000
  0.029179 -0.000000  0.037622      4.000000
  0.043769 -0.012150  0.037622      8.000000
  0.058359 -0.024301  0.037622      8.000000
 -0.029179  0.048601  0.037622      8.000000
 -0.014590  0.036451  0.037622      8.000000
 -0.000000  0.024301  0.037622      4.000000
  0.058359 -0.000000  0.037622      4.000000
  0.072949 -0.012150  0.037622      8.000000
 -0.014590  0.060752  0.037622      8.000000
 -0.000000  0.048601  0.037622      4.000000
  0.087538  0.000000  0.037622      4.000000
  0.000000  0.072902  0.037622      4.000000
  0.000000  0.000000  0.056434      2.000000
  0.014590 -0.012150  0.056434      8.000000
  0.029179 -0.024301  0.056434      8.000000
  0.043769 -0.036451  0.056434      8.000000
  0.029179 -0.000000  0.056434      4.000000
  0.043769 -0.012150  0.056434      8.000000
  0.058359 -0.024301  0.056434      8.000000
 -0.029179  0.048601  0.056434      8.000000
 -0.014590  0.036451  0.056434      8.000000
 -0.000000  0.024301  0.056434      4.000000
  0.058359 -0.000000  0.056434      4.000000
  0.072949 -0.012150  0.056434      8.000000
 -0.014590  0.060752  0.056434      8.000000
 -0.000000  0.048601  0.056434      4.000000
  0.087538  0.000000  0.056434      4.000000
  0.000000  0.072902  0.056434      4.000000
  0.000000  0.000000  0.075245      2.000000
  0.014590 -0.012150  0.075245      8.000000
  0.029179 -0.024301  0.075245      8.000000
  0.043769 -0.036451  0.075245      8.000000
  0.029179 -0.000000  0.075245      4.000000
  0.043769 -0.012150  0.075245      8.000000
  0.058359 -0.024301  0.075245      8.000000
 -0.029179  0.048601  0.075245      8.000000
 -0.014590  0.036451  0.075245      8.000000
 -0.000000  0.024301  0.075245      4.000000
  0.058359 -0.000000  0.075245      4.000000
  0.072949 -0.012150  0.075245      8.000000
 -0.014590  0.060752  0.075245      8.000000
 -0.000000  0.048601  0.075245      4.000000
  0.087538  0.000000  0.075245      4.000000
  0.000000  0.072902  0.075245      4.000000
 


--------------------------------------------------------------------------------------------------------




 Dimension of arrays:
   k-points           NKPTS =     80   k-points in BZ     NKDIM =     80   number of bands    NBANDS=    100
   number of dos      NEDOS =    301   number of ions     NIONS =     16
   non local maximal  LDIM  =      6   non local SUM 2l+1 LMDIM =     18
   total plane-waves  NPLWV = 172800
   max r-space proj   IRMAX =   6512   max aug-charges    IRDMAX=  22361
   dimension x,y,z NGX =    60 NGY =   60 NGZ =   48
   dimension x,y,z NGXF=   120 NGYF=  120 NGZF=   96
   support grid    NGXF=   120 NGYF=  120 NGZF=   96
   ions per type =               8   8
   NGX,Y,Z   is equivalent  to a cutoff of  13.04, 13.04, 13.51 a.u.
   NGXF,Y,Z  is equivalent  to a cutoff of  26.08, 26.08, 27.02 a.u.

 SYSTEM =  unknown system                          
 POSCAR =  Fe8 Se8                                 

 Startparameter for this run:
   NWRITE =      2    write-flag & timer
   PREC   = accura    normal or accurate (medium, high low for compatibility)
   ISTART =      0    job   : 0-new  1-cont  2-samecut
   ICHARG =      2    charge: 1-file 2-atom 10-const
   ISPIN  =      2    spin polarized calculation?
   LNONCOLLINEAR =      F non collinear calculations
   LSORBIT =      F    spin-orbit coupling
   INIWAV =      1    electr: 0-lowe 1-rand  2-diag
   LASPH  =      T    aspherical Exc in radial PAW
 Electronic Relaxation 1
   ENCUT  =  550.0 eV  40.42 Ry    6.36 a.u.  14.63 14.63 11.29*2*pi/ulx,y,z
   ENINI  =  550.0     initial cutoff
   ENAUG  =  578.3 eV  augmentation charge cutoff
   NELM   =    100;   NELMIN=  2; NELMDL=  0     # of ELM steps 
   EDIFF  = 0.2E-03   stopping-criterion for ELM
   LREAL  =      T    real-space projection
   NLSPLINE    = F    spline interpolate recip. space projectors
   LCOMPAT=      F    compatible to vasp.4.4
   GGA_COMPAT  = T    GGA compatible to vasp.4.4-vasp.4.6
   LMAXPAW     = -100 max onsite density
   LMAXMIX     =    4 max onsite mixed and CHGCAR
   VOSKOWN=      0    Vosko Wilk Nusair interpolation
   ROPT   =   -0.00025  -0.00025
 Ionic relaxation
   EDIFFG = 0.2E-02   stopping-criterion for IOM
   NSW    =      0    number of steps for IOM
   NBLOCK =      1;   KBLOCK =      1    inner block; outer block 
   IBRION =     -1    ionic relax: 0-MD 1-quasi-New 2-CG
   NFREE  =      0    steps in history (QN), initial steepest desc. (CG)
   ISIF   =      4    stress and relaxation
   IWAVPR =     10    prediction:  0-non 1-charg 2-wave 3-comb
   ISYM   =      2    0-nonsym 1-usesym 2-fastsym
   LCORR  =      T    Harris-Foulkes like correction to forces

   POTIM  = 0.5000    time-step for ionic-motion
   TEIN   =    0.0    initial temperature
   TEBEG  =    0.0;   TEEND  =   0.0 temperature during run
   SMASS  =  -3.00    Nose mass-parameter (am)
   estimated Nose-frequenzy (Omega)   =  0.10E-29 period in steps = 0.13E+47 mass=  -0.134E-26a.u.
   SCALEE = 1.0000    scale energy and forces
   NPACO  =    256;   APACO  = 10.0  distance and # of slots for P.C.
   PSTRESS=    0.0 pullay stress

  Mass of Ions in am
   POMASS =  55.85 78.96
  Ionic Valenz
   ZVAL   =  14.00  6.00
  Atomic Wigner-Seitz radii
   RWIGS  =  -1.00 -1.00
  virtual crystal weights 
   VCA    =   1.00  1.00
   NELECT =     160.0000    total number of electrons
   NUPDOWN=      -1.0000    fix difference up-down

 DOS related values:
   EMIN   =  10.00;   EMAX   =-10.00  energy-range for DOS
   EFERMI =   0.00;   METHOD = LEGACY      
   ISMEAR =    -5;   SIGMA  =   0.05  broadening in eV -4-tet -1-fermi 0-gaus

 Electronic relaxation 2 (details)
   IALGO  =     68    algorithm
   LDIAG  =      T    sub-space diagonalisation (order eigenvalues)
   LSUBROT=      F    optimize rotation matrix (better conditioning)
   TURBO    =      0    0=normal 1=particle mesh
   IRESTART =      0    0=no restart 2=restart with 2 vectors
   NREBOOT  =      0    no. of reboots
   NMIN     =      0    reboot dimension
   EREF     =   0.00    reference energy to select bands
   IMIX   =      4    mixing-type and parameters
     AMIX     =   0.40;   BMIX     =  1.00
     AMIX_MAG =   1.60;   BMIX_MAG =  1.00
     AMIN     =   0.10
     WC   =   100.;   INIMIX=   1;  MIXPRE=   1;  MAXMIX= -45

 Intra band minimization:
   WEIMIN = 0.0000     energy-eigenvalue tresh-hold
   EBREAK =  0.50E-06  absolut break condition
   DEPER  =   0.30     relativ break condition  

   TIME   =   0.40     timestep for ELM

  volume/ion in A,a.u.               =      21.25       143.40
  Fermi-wavevector in a.u.,A,eV,Ry     =   1.273372  2.406324 22.061513  1.621475
  Thomas-Fermi vector in A             =   2.406199
 
 Write flags
   LWAVE        =      F    write WAVECAR
   LDOWNSAMPLE  =      F    k-point downsampling of WAVECAR
   LCHARG       =      T    write CHGCAR
   LVTOT        =      F    write LOCPOT, total local potential
   LVHAR        =      F    write LOCPOT, Hartree potential only
   LELF         =      F    write electronic localiz. function (ELF)
   LORBIT       =     11    0 simple, 1 ext, 2 COOP (PROOUT), +10 PAW based schemes


 Dipole corrections
   LMONO  =      F    monopole corrections only (constant potential shift)
   LDIPOL =      F    correct potential (dipole corrections)
   IDIPOL =      0    1-x, 2-y, 3-z, 4-all directions 
   EPSILON=  1.0000000 bulk dielectric constant

 Exchange correlation treatment:
   GGA     =    --    GGA type
   LEXCH   =     8    internal setting for exchange type
   LIBXC   =     F    Libxc                    
   VOSKOWN =     0    Vosko Wilk Nusair interpolation
   LHFCALC =     F    Hartree Fock is set to
   LHFONE  =     F    Hartree Fock one center treatment
   AEXX    =    0.0000 exact exchange contribution

 Linear response parameters
   LEPSILON=     F    determine dielectric tensor
   LRPA    =     F    only Hartree local field effects (RPA)
   LNABLA  =     F    use nabla operator in PAW spheres
   LVEL    =     F    velocity operator in full k-point grid
   CSHIFT  =0.1000    complex shift for real part using Kramers Kronig
   OMEGAMAX=  -1.0    maximum frequency
   DEG_THRESHOLD= 0.2000000E-02 threshold for treating states as degnerate
   RTIME   =   -0.100 relaxation time in fs
  (WPLASMAI=    0.000 imaginary part of plasma frequency in eV, 0.658/RTIME)
   DFIELD  = 0.0000000 0.0000000 0.0000000 field for delta impulse in time
 
  Optional k-point grid parameters
   LKPOINTS_OPT  =     F    use optional k-point grid
   KPOINTS_OPT_MODE=     1    mode for optional k-point grid
 
 Orbital magnetization related:
   ORBITALMAG=     F  switch on orbital magnetization
   LCHIMAG   =     F  perturbation theory with respect to B field
   DQ        =  0.001000  dq finite difference perturbation B field
   LLRAUG    =     F  two centre corrections for induced B field
   LBONE     =     F  B-component reconstruction in AE one-centre
   LVGVCALC  =     T  calculate vGv susceptibility
   LVGVAPPL  =     F  apply vGv susceptibility instead of pGv for G=0

 Random number generation:
   RANDOM_GENERATOR = DEFAULT
   PCG_SEED         = not used


--------------------------------------------------------------------------------------------------------


 Static calculation
 charge density and potential will be updated during run
 spin polarized calculation
 RMM-DIIS sequential band-by-band and
  variant of blocked Davidson during initial phase
 perform sub-space diagonalisation
    before iterative eigenvector-optimisation
 modified Broyden-mixing scheme, WC =      100.0
 initial mixing is a Kerker type mixing with AMIX =  0.4000 and BMIX =      1.0000
 Hartree-type preconditioning will be used
 using additional bands           20
 real space projection scheme for non local part
 use partial core corrections
 calculate Harris-corrections to forces 
   (improved forces if not selfconsistent)
 use gradient corrections 
 use of overlap-Matrix (Vanderbilt PP)
 Fermi weights with tetrahedron method with Bloechl corrections


--------------------------------------------------------------------------------------------------------


  energy-cutoff  :      550.00
  volume of cell :      340.00
      direct lattice vectors                 reciprocal lattice vectors
     4.895805536 -5.878733708  0.000000000     0.102128239 -0.085052330  0.000000000
     4.895805536  5.878733708  0.000000000     0.102128239  0.085052330  0.000000000
     0.000000000  0.000000000  5.906646419     0.000000000  0.000000000  0.169300806

  length of vectors
     7.650387040  7.650387040  5.906646419     0.132906268  0.132906268  0.169300806


 
 k-points in units of 2pi/SCALE and weight: KPOINTS                                 
   0.00000000  0.00000000  0.00000000       0.002
   0.01458975 -0.01215033  0.00000000       0.009
   0.02917950 -0.02430067  0.00000000       0.009
   0.04376925 -0.03645100  0.00000000       0.009
   0.02917950  0.00000000  0.00000000       0.005
   0.04376925 -0.01215033  0.00000000       0.009
   0.05835899 -0.02430067  0.00000000       0.009
  -0.02917950  0.04860133  0.00000000       0.009
  -0.01458975  0.03645100  0.00000000       0.009
   0.00000000  0.02430067  0.00000000       0.005
   0.05835899  0.00000000  0.00000000       0.005
   0.07294874 -0.01215033  0.00000000       0.009
  -0.01458975  0.06075166  0.00000000       0.009
   0.00000000  0.04860133  0.00000000       0.005
   0.08753849 -0.00000000  0.00000000       0.005
  -0.00000000  0.07290200  0.00000000       0.005
   0.00000000  0.00000000  0.01881120       0.005
   0.01458975 -0.01215033  0.01881120       0.018
   0.02917950 -0.02430067  0.01881120       0.018
   0.04376925 -0.03645100  0.01881120       0.018
   0.02917950  0.00000000  0.01881120       0.009
   0.04376925 -0.01215033  0.01881120       0.018
   0.05835899 -0.02430067  0.01881120       0.018
  -0.02917950  0.04860133  0.01881120       0.018
  -0.01458975  0.03645100  0.01881120       0.018
   0.00000000  0.02430067  0.01881120       0.009
   0.05835899  0.00000000  0.01881120       0.009
   0.07294874 -0.01215033  0.01881120       0.018
  -0.01458975  0.06075166  0.01881120       0.018
   0.00000000  0.04860133  0.01881120       0.009
   0.08753849 -0.00000000  0.01881120       0.009
  -0.00000000  0.07290200  0.01881120       0.009
   0.00000000  0.00000000  0.03762240       0.005
   0.01458975 -0.01215033  0.03762240       0.018
   0.02917950 -0.02430067  0.03762240       0.018
   0.04376925 -0.03645100  0.03762240       0.018
   0.02917950  0.00000000  0.03762240       0.009
   0.04376925 -0.01215033  0.03762240       0.018
   0.05835899 -0.02430067  0.03762240       0.018
  -0.02917950  0.04860133  0.03762240       0.018
  -0.01458975  0.03645100  0.03762240       0.018
   0.00000000  0.02430067  0.03762240       0.009
   0.05835899  0.00000000  0.03762240       0.009
   0.07294874 -0.01215033  0.03762240       0.018
  -0.01458975  0.06075166  0.03762240       0.018
   0.00000000  0.04860133  0.03762240       0.009
   0.08753849 -0.00000000  0.03762240       0.009
  -0.00000000  0.07290200  0.03762240       0.009
   0.00000000  0.00000000  0.05643360       0.005
   0.01458975 -0.01215033  0.05643360       0.018
   0.02917950 -0.02430067  0.05643360       0.018
   0.04376925 -0.03645100  0.05643360       0.018
   0.02917950  0.00000000  0.05643360       0.009
   0.04376925 -0.01215033  0.05643360       0.018
   0.05835899 -0.02430067  0.05643360       0.018
  -0.02917950  0.04860133  0.05643360       0.018
  -0.01458975  0.03645100  0.05643360       0.018
   0.00000000  0.02430067  0.05643360       0.009
   0.05835899  0.00000000  0.05643360       0.009
   0.07294874 -0.01215033  0.05643360       0.018
  -0.01458975  0.06075166  0.05643360       0.018
   0.00000000  0.04860133  0.05643360       0.009
   0.08753849 -0.00000000  0.05643360       0.009
  -0.00000000  0.07290200  0.05643360       0.009
   0.00000000  0.00000000  0.07524480       0.005
   0.01458975 -0.01215033  0.07524480       0.018
   0.02917950 -0.02430067  0.07524480       0.018
   0.04376925 -0.03645100  0.07524480       0.018
   0.02917950  0.00000000  0.07524480       0.009
   0.04376925 -0.01215033  0.07524480       0.018
   0.05835899 -0.02430067  0.07524480       0.018
  -0.02917950  0.04860133  0.07524480       0.018
  -0.01458975  0.03645100  0.07524480       0.018
   0.00000000  0.02430067  0.07524480       0.009
   0.05835899  0.00000000  0.07524480       0.009
   0.07294874 -0.01215033  0.07524480       0.018
  -0.01458975  0.06075166  0.07524480       0.018
   0.00000000  0.04860133  0.07524480       0.009
   0.08753849 -0.00000000  0.07524480       0.009
  -0.00000000  0.07290200  0.07524480       0.009
 
 k-points in reciprocal lattice and weights: KPOINTS                                 
   0.00000000  0.00000000  0.00000000       0.002
   0.14285714  0.00000000  0.00000000       0.009
   0.28571429  0.00000000  0.00000000       0.009
   0.42857143 -0.00000000  0.00000000       0.009
   0.14285714  0.14285714  0.00000000       0.005
   0.28571429  0.14285714  0.00000000       0.009
   0.42857143  0.14285714  0.00000000       0.009
  -0.42857143  0.14285714  0.00000000       0.009
  -0.28571429  0.14285714  0.00000000       0.009
  -0.14285714  0.14285714  0.00000000       0.005
   0.28571429  0.28571429  0.00000000       0.005
   0.42857143  0.28571429  0.00000000       0.009
  -0.42857143  0.28571429  0.00000000       0.009
  -0.28571429  0.28571429  0.00000000       0.005
   0.42857143  0.42857143  0.00000000       0.005
  -0.42857143  0.42857143  0.00000000       0.005
   0.00000000  0.00000000  0.11111111       0.005
   0.14285714  0.00000000  0.11111111       0.018
   0.28571429  0.00000000  0.11111111       0.018
   0.42857143 -0.00000000  0.11111111       0.018
   0.14285714  0.14285714  0.11111111       0.009
   0.28571429  0.14285714  0.11111111       0.018
   0.42857143  0.14285714  0.11111111       0.018
  -0.42857143  0.14285714  0.11111111       0.018
  -0.28571429  0.14285714  0.11111111       0.018
  -0.14285714  0.14285714  0.11111111       0.009
   0.28571429  0.28571429  0.11111111       0.009
   0.42857143  0.28571429  0.11111111       0.018
  -0.42857143  0.28571429  0.11111111       0.018
  -0.28571429  0.28571429  0.11111111       0.009
   0.42857143  0.42857143  0.11111111       0.009
  -0.42857143  0.42857143  0.11111111       0.009
   0.00000000  0.00000000  0.22222222       0.005
   0.14285714  0.00000000  0.22222222       0.018
   0.28571429  0.00000000  0.22222222       0.018
   0.42857143 -0.00000000  0.22222222       0.018
   0.14285714  0.14285714  0.22222222       0.009
   0.28571429  0.14285714  0.22222222       0.018
   0.42857143  0.14285714  0.22222222       0.018
  -0.42857143  0.14285714  0.22222222       0.018
  -0.28571429  0.14285714  0.22222222       0.018
  -0.14285714  0.14285714  0.22222222       0.009
   0.28571429  0.28571429  0.22222222       0.009
   0.42857143  0.28571429  0.22222222       0.018
  -0.42857143  0.28571429  0.22222222       0.018
  -0.28571429  0.28571429  0.22222222       0.009
   0.42857143  0.42857143  0.22222222       0.009
  -0.42857143  0.42857143  0.22222222       0.009
   0.00000000  0.00000000  0.33333333       0.005
   0.14285714  0.00000000  0.33333333       0.018
   0.28571429  0.00000000  0.33333333       0.018
   0.42857143 -0.00000000  0.33333333       0.018
   0.14285714  0.14285714  0.33333333       0.009
   0.28571429  0.14285714  0.33333333       0.018
   0.42857143  0.14285714  0.33333333       0.018
  -0.42857143  0.14285714  0.33333333       0.018
  -0.28571429  0.14285714  0.33333333       0.018
  -0.14285714  0.14285714  0.33333333       0.009
   0.28571429  0.28571429  0.33333333       0.009
   0.42857143  0.28571429  0.33333333       0.018
  -0.42857143  0.28571429  0.33333333       0.018
  -0.28571429  0.28571429  0.33333333       0.009
   0.42857143  0.42857143  0.33333333       0.009
  -0.42857143  0.42857143  0.33333333       0.009
   0.00000000  0.00000000  0.44444444       0.005
   0.14285714  0.00000000  0.44444444       0.018
   0.28571429  0.00000000  0.44444444       0.018
   0.42857143 -0.00000000  0.44444444       0.018
   0.14285714  0.14285714  0.44444444       0.009
   0.28571429  0.14285714  0.44444444       0.018
   0.42857143  0.14285714  0.44444444       0.018
  -0.42857143  0.14285714  0.44444444       0.018
  -0.28571429  0.14285714  0.44444444       0.018
  -0.14285714  0.14285714  0.44444444       0.009
   0.28571429  0.28571429  0.44444444       0.009
   0.42857143  0.28571429  0.44444444       0.018
  -0.42857143  0.28571429  0.44444444       0.018
  -0.28571429  0.28571429  0.44444444       0.009
   0.42857143  0.42857143  0.44444444       0.009
  -0.42857143  0.42857143  0.44444444       0.009
 
 position of ions in fractional coordinates (direct lattice) 
   0.00000000  0.00000000  0.00000000
   0.00000000  0.50000000  0.00000000
   0.50000000  0.00000000  0.00000000
   0.50000000  0.50000000  0.00000000
   0.25000000  0.25000000  0.00000000
   0.25000000  0.75000000  0.00000000
   0.75000000  0.25000000  0.00000000
   0.75000000  0.75000000  0.00000000
   0.37500000  0.12500000  0.70222405
   0.37500000  0.62500000  0.70222405
   0.87500000  0.12500000  0.70222405
   0.87500000  0.62500000  0.70222405
   0.12500000  0.37500000  0.29777595
   0.12500000  0.87500000  0.29777595
   0.62500000  0.37500000  0.29777595
   0.62500000  0.87500000  0.29777595
 
 position of ions in cartesian coordinates  (Angst):
   0.00000000  0.00000000  0.00000000
   2.44790277  2.93936685  0.00000000
   2.44790277 -2.93936685  0.00000000
   4.89580554  0.00000000  0.00000000
   2.44790277  0.00000000  0.00000000
   4.89580554  2.93936685  0.00000000
   4.89580554 -2.93936685  0.00000000
   7.34370830  0.00000000  0.00000000
   2.44790277 -1.46968343  4.14778919
   4.89580554  1.46968343  4.14778919
   4.89580554 -4.40905028  4.14778919
   7.34370830 -1.46968343  4.14778919
   2.44790277  1.46968343  1.75885723
   4.89580554  4.40905028  1.75885723
   4.89580554 -1.46968343  1.75885723
   7.34370830  1.46968343  1.75885723
 


--------------------------------------------------------------------------------------------------------


 k-point   1 :   0.0000 0.0000 0.0000  plane waves:   10007
 k-point   2 :   0.1429 0.0000 0.0000  plane waves:    9984
 k-point   3 :   0.2857 0.0000 0.0000  plane waves:    9977
 k-point   4 :   0.4286-0.0000 0.0000  plane waves:    9970
 k-point   5 :   0.1429 0.1429 0.0000  plane waves:    9963
 k-point   6 :   0.2857 0.1429 0.0000  plane waves:    9964
 k-point   7 :   0.4286 0.1429 0.0000  plane waves:    9955
 k-point   8 :  -0.4286 0.1429 0.0000  plane waves:    9944
 k-point   9 :  -0.2857 0.1429 0.0000  plane waves:    9964
 k-point  10 :  -0.1429 0.1429 0.0000  plane waves:    9971
 k-point  11 :   0.2857 0.2857 0.0000  plane waves:    9971
 k-point  12 :   0.4286 0.2857 0.0000  plane waves:    9944
 k-point  13 :  -0.4286 0.2857 0.0000  plane waves:    9945
 k-point  14 :  -0.2857 0.2857 0.0000  plane waves:    9972
 k-point  15 :   0.4286 0.4286 0.0000  plane waves:    9940
 k-point  16 :  -0.4286 0.4286 0.0000  plane waves:    9938
 k-point  17 :   0.0000 0.0000 0.1111  plane waves:    9977
 k-point  18 :   0.1429 0.0000 0.1111  plane waves:    9977
 k-point  19 :   0.2857 0.0000 0.1111  plane waves:    9976
 k-point  20 :   0.4286-0.0000 0.1111  plane waves:    9972
 k-point  21 :   0.1429 0.1429 0.1111  plane waves:    9969
 k-point  22 :   0.2857 0.1429 0.1111  plane waves:    9963
 k-point  23 :   0.4286 0.1429 0.1111  plane waves:    9954
 k-point  24 :  -0.4286 0.1429 0.1111  plane waves:    9957
 k-point  25 :  -0.2857 0.1429 0.1111  plane waves:    9966
 k-point  26 :  -0.1429 0.1429 0.1111  plane waves:    9982
 k-point  27 :   0.2857 0.2857 0.1111  plane waves:    9960
 k-point  28 :   0.4286 0.2857 0.1111  plane waves:    9948
 k-point  29 :  -0.4286 0.2857 0.1111  plane waves:    9949
 k-point  30 :  -0.2857 0.2857 0.1111  plane waves:    9962
 k-point  31 :   0.4286 0.4286 0.1111  plane waves:    9953
 k-point  32 :  -0.4286 0.4286 0.1111  plane waves:    9938
 k-point  33 :   0.0000 0.0000 0.2222  plane waves:    9975
 k-point  34 :   0.1429 0.0000 0.2222  plane waves:    9987
 k-point  35 :   0.2857 0.0000 0.2222  plane waves:    9967
 k-point  36 :   0.4286-0.0000 0.2222  plane waves:    9957
 k-point  37 :   0.1429 0.1429 0.2222  plane waves:    9979
 k-point  38 :   0.2857 0.1429 0.2222  plane waves:    9962
 k-point  39 :   0.4286 0.1429 0.2222  plane waves:    9960
 k-point  40 :  -0.4286 0.1429 0.2222  plane waves:    9948
 k-point  41 :  -0.2857 0.1429 0.2222  plane waves:    9959
 k-point  42 :  -0.1429 0.1429 0.2222  plane waves:    9965
 k-point  43 :   0.2857 0.2857 0.2222  plane waves:    9952
 k-point  44 :   0.4286 0.2857 0.2222  plane waves:    9947
 k-point  45 :  -0.4286 0.2857 0.2222  plane waves:    9932
 k-point  46 :  -0.2857 0.2857 0.2222  plane waves:    9933
 k-point  47 :   0.4286 0.4286 0.2222  plane waves:    9958
 k-point  48 :  -0.4286 0.4286 0.2222  plane waves:    9933
 k-point  49 :   0.0000 0.0000 0.3333  plane waves:    9962
 k-point  50 :   0.1429 0.0000 0.3333  plane waves:    9963
 k-point  51 :   0.2857 0.0000 0.3333  plane waves:    9947
 k-point  52 :   0.4286-0.0000 0.3333  plane waves:    9951
 k-point  53 :   0.1429 0.1429 0.3333  plane waves:    9945
 k-point  54 :   0.2857 0.1429 0.3333  plane waves:    9956
 k-point  55 :   0.4286 0.1429 0.3333  plane waves:    9953
 k-point  56 :  -0.4286 0.1429 0.3333  plane waves:    9949
 k-point  57 :  -0.2857 0.1429 0.3333  plane waves:    9953
 k-point  58 :  -0.1429 0.1429 0.3333  plane waves:    9955
 k-point  59 :   0.2857 0.2857 0.3333  plane waves:    9969
 k-point  60 :   0.4286 0.2857 0.3333  plane waves:    9954
 k-point  61 :  -0.4286 0.2857 0.3333  plane waves:    9958
 k-point  62 :  -0.2857 0.2857 0.3333  plane waves:    9950
 k-point  63 :   0.4286 0.4286 0.3333  plane waves:    9968
 k-point  64 :  -0.4286 0.4286 0.3333  plane waves:    9970
 k-point  65 :   0.0000 0.0000 0.4444  plane waves:    9964
 k-point  66 :   0.1429 0.0000 0.4444  plane waves:    9957
 k-point  67 :   0.2857 0.0000 0.4444  plane waves:    9949
 k-point  68 :   0.4286-0.0000 0.4444  plane waves:    9941
 k-point  69 :   0.1429 0.1429 0.4444  plane waves:    9945
 k-point  70 :   0.2857 0.1429 0.4444  plane waves:    9957
 k-point  71 :   0.4286 0.1429 0.4444  plane waves:    9961
 k-point  72 :  -0.4286 0.1429 0.4444  plane waves:    9946
 k-point  73 :  -0.2857 0.1429 0.4444  plane waves:    9961
 k-point  74 :  -0.1429 0.1429 0.4444  plane waves:    9965
 k-point  75 :   0.2857 0.2857 0.4444  plane waves:    9952
 k-point  76 :   0.4286 0.2857 0.4444  plane waves:    9958
 k-point  77 :  -0.4286 0.2857 0.4444  plane waves:    9961
 k-point  78 :  -0.2857 0.2857 0.4444  plane waves:    9972
 k-point  79 :   0.4286 0.4286 0.4444  plane waves:    9968
 k-point  80 :  -0.4286 0.4286 0.4444  plane waves:    9984

 maximum and minimum number of plane-waves per node :     10007     9932

 maximum number of plane-waves:     10007
 maximum index in each direction: 
   IXMAX=   15   IYMAX=   14   IZMAX=   11
   IXMIN=  -15   IYMIN=  -15   IZMIN=  -11


 serial   3D FFT for wavefunctions
 parallel 3D FFT for charge:
    minimum data exchange during FFTs selected (reduces bandwidth)


 total amount of memory used by VASP MPI-rank0   197552. kBytes
=======================================================================

   base      :      30000. kBytes
   nonlr-proj:      12827. kBytes
   fftplans  :       3084. kBytes
   grid      :      19560. kBytes
   one-center:        497. kBytes
   wavefun   :     131584. kBytes
 
     INWAV:  cpu time      0.0000: real time      0.0002
 Broyden mixing: mesh for mixing (old mesh)
   NGX = 29   NGY = 29   NGZ = 23
  (NGX  =120   NGY  =120   NGZ  = 96)
  gives a total of  19343 points

 initial charge density was supplied:
 charge density of overlapping atoms calculated
 number of electron     160.0000000 magnetization      -0.0000000
 keeping initial charge density in first step


--------------------------------------------------------------------------------------------------------


 Maximum index for non-local projection operator         6297
 Maximum index for augmentation-charges         1085 (set IRDMAX)


--------------------------------------------------------------------------------------------------------


 First call to EWALD:  gamma=   0.254
 Maximum number of real-space cells 3x 3x 3
 Maximum number of reciprocal cells 3x 3x 2

    FEWALD:  cpu time      0.0016: real time      0.0016


--------------------------------------- Ionic step        1  -------------------------------------------




--------------------------------------- Iteration      1(   1)  ---------------------------------------


    POTLOK:  cpu time      0.0628: real time      0.0666
    SETDIJ:  cpu time      0.2788: real time      0.2799
     EDDAV:  cpu time     30.0456: real time     30.2146
 BZINTS: Fermi energy:   19.475559;  160.000000 electrons
         Band energy:-0.272843E+03;  BLOECHL correction:   -0.073314
       DOS:  cpu time      0.1662: real time      0.1670
    --------------------------------------------
      LOOP:  cpu time     30.5535: real time     30.7281

 eigenvalue-minimisations  : 36040
 total energy-change (2. order) : 0.1982815E+04  (-0.8882969E+04)
 number of electron     160.0000000 magnetization      -0.0000000
 augmentation part      160.0000000 magnetization      -0.0000000

 Free energy of the ion-electron system (eV)
  ---------------------------------------------------
  alpha Z        PSCENC =       746.91642729
  Ewald energy   TEWEN  =    -10555.13317955
  -Hartree energ DENC   =     -9615.00125217
  -exchange      EXHF   =         0.00000000
  -V(xc)+E(xc)   XCENC  =       563.78982103
  PAW double counting   =     15527.84069331   -16123.59586883
  entropy T*S    EENTRO =         0.00000000
  eigenvalues    EBANDS =      -272.84286743
  atomic energy  EATOM  =     21710.84102437
  Solvation  Ediel_sol  =         0.00000000
  ---------------------------------------------------
  free energy    TOTEN  =      1982.81479802 eV

  energy without entropy =     1982.81479802  energy(sigma->0) =     1982.81479802


--------------------------------------------------------------------------------------------------------




--------------------------------------- Iteration      1(   2)  ---------------------------------------


     EDDAV:  cpu time     27.6106: real time     27.7662
 BZINTS: Fermi energy:    6.207123;  160.000000 electrons
         Band energy:-0.213380E+04;  BLOECHL correction:   -0.028985
       DOS:  cpu time      0.1517: real time      0.1523
    --------------------------------------------
      LOOP:  cpu time     27.7623: real time     27.9185

 eigenvalue-minimisations  : 32000
 total energy-change (2. order) :-0.1860961E+04  (-0.1807938E+04)
 number of electron     160.0000000 magnetization      -0.0000000
 augmentation part      160.0000000 magnetization      -0.0000000

 Free energy of the ion-electron system (eV)
  ---------------------------------------------------
  alpha Z        PSCENC =       746.91642729
  Ewald energy   TEWEN  =    -10555.13317955
  -Hartree energ DENC   =     -9615.00125217
  -exchange      EXHF   =         0.00000000
  -V(xc)+E(xc)   XCENC  =       563.78982103
  PAW double counting   =     15527.84069331   -16123.59586883
  entropy T*S    EENTRO =         0.00000000
  eigenvalues    EBANDS =     -2133.80397040
  atomic energy  EATOM  =     21710.84102437
  Solvation  Ediel_sol  =         0.00000000
  ---------------------------------------------------
  free energy    TOTEN  =       121.85369506 eV

  energy without entropy =      121.85369506  energy(sigma->0) =      121.85369506


--------------------------------------------------------------------------------------------------------




--------------------------------------- Iteration      1(   3)  ---------------------------------------


     EDDAV:  cpu time     36.1954: real time     36.4294
 BZINTS: Fermi energy:    4.440152;  160.000000 electrons
         Band energy:-0.234128E+04;  BLOECHL correction:   -0.015645
       DOS:  cpu time      0.1634: real time      0.1641
    --------------------------------------------
      LOOP:  cpu time     36.3588: real time     36.5934

 eigenvalue-minimisations  : 46080
 total energy-change (2. order) :-0.2074760E+03  (-0.1845315E+03)
 number of electron     160.0000000 magnetization      -0.0000000
 augmentation part      160.0000000 magnetization      -0.0000000

 Free energy of the ion-electron system (eV)
  ---------------------------------------------------
  alpha Z        PSCENC =       746.91642729
  Ewald energy   TEWEN  =    -10555.13317955
  -Hartree energ DENC   =     -9615.00125217
  -exchange      EXHF   =         0.00000000
  -V(xc)+E(xc)   XCENC  =       563.78982103
  PAW double counting   =     15527.84069331   -16123.59586883
  entropy T*S    EENTRO =         0.00000000
  eigenvalues    EBANDS =     -2341.27997076
  atomic energy  EATOM  =     21710.84102437
  Solvation  Ediel_sol  =         0.00000000
  ---------------------------------------------------
  free energy    TOTEN  =       -85.62230530 eV

  energy without entropy =      -85.62230530  energy(sigma->0) =      -85.62230530


--------------------------------------------------------------------------------------------------------




--------------------------------------- Iteration      1(   4)  ---------------------------------------


     EDDAV:  cpu time     37.1244: real time     37.3648
 BZINTS: Fermi energy:    4.325728;  160.000000 electrons
         Band energy:-0.235619E+04;  BLOECHL correction:   -0.020496
       DOS:  cpu time      0.1696: real time      0.1703
    --------------------------------------------
      LOOP:  cpu time     37.2940: real time     37.5350

 eigenvalue-minimisations  : 47300
 total energy-change (2. order) :-0.1490594E+02  (-0.1457758E+02)
 number of electron     160.0000000 magnetization      -0.0000000
 augmentation part      160.0000000 magnetization      -0.0000000

 Free energy of the ion-electron system (eV)
  ---------------------------------------------------
  alpha Z        PSCENC =       746.91642729
  Ewald energy   TEWEN  =    -10555.13317955
  -Hartree energ DENC   =     -9615.00125217
  -exchange      EXHF   =         0.00000000
  -V(xc)+E(xc)   XCENC  =       563.78982103
  PAW double counting   =     15527.84069331   -16123.59586883
  entropy T*S    EENTRO =         0.00000000
  eigenvalues    EBANDS =     -2356.18591125
  atomic energy  EATOM  =     21710.84102437
  Solvation  Ediel_sol  =         0.00000000
  ---------------------------------------------------
  free energy    TOTEN  =      -100.52824579 eV

  energy without entropy =     -100.52824579  energy(sigma->0) =     -100.52824579


--------------------------------------------------------------------------------------------------------




--------------------------------------- Iteration      1(   5)  ---------------------------------------


     EDDAV:  cpu time     35.5189: real time     35.7479
 BZINTS: Fermi energy:    4.321569;  160.000000 electrons
         Band energy:-0.235653E+04;  BLOECHL correction:   -0.020722
       DOS:  cpu time      0.1488: real time      0.1494
    CHARGE:  cpu time      1.0761: real time      1.0827
    MIXING:  cpu time      0.0018: real time      0.0018
    --------------------------------------------
      LOOP:  cpu time     36.7457: real time     36.9819

 eigenvalue-minimisations  : 44280
 total energy-change (2. order) :-0.3423205E+00  (-0.3411337E+00)
 number of electron     160.0000096 magnetization      -0.0000000
 augmentation part       52.9789976 magnetization      -0.0000000

 Broyden mixing:
  rms(total) = 0.28219E+01    rms(broyden)= 0.28216E+01
  rms(prec ) = 0.44069E+01
  weight for this iteration     100.00

 Free energy of the ion-electron system (eV)
  ---------------------------------------------------
  alpha Z        PSCENC =       746.91642729
  Ewald energy   TEWEN  =    -10555.13317955
  -Hartree energ DENC   =     -9615.00125217
  -exchange      EXHF   =         0.00000000
  -V(xc)+E(xc)   XCENC  =       563.78982103
  PAW double counting   =     15527.84069331   -16123.59586883
  entropy T*S    EENTRO =         0.00000000
  eigenvalues    EBANDS =     -2356.52823179
  atomic energy  EATOM  =     21710.84102437
  Solvation  Ediel_sol  =         0.00000000
  ---------------------------------------------------
  free energy    TOTEN  =      -100.87056633 eV

  energy without entropy =     -100.87056633  energy(sigma->0) =     -100.87056633


--------------------------------------------------------------------------------------------------------




--------------------------------------- Iteration      1(   6)  ---------------------------------------


    POTLOK:  cpu time      0.0593: real time      1.2359
    SETDIJ:  cpu time      0.2771: real time      0.2783
    EDDIAG:  cpu time      4.7106: real time      4.7359
  RMM-DIIS:  cpu time     18.6673: real time     18.7596
    ORTHCH:  cpu time      0.5983: real time      0.6008
 BZINTS: Fermi energy:    1.237611;  160.000000 electrons
         Band energy:-0.286621E+04;  BLOECHL correction:   -0.029063
       DOS:  cpu time      0.1754: real time      0.1761
    CHARGE:  cpu time      1.0199: real time      1.0258
    MIXING:  cpu time      0.0016: real time      0.0016
    --------------------------------------------
      LOOP:  cpu time     25.5095: real time     26.8138

 eigenvalue-minimisations  : 34687
 total energy-change (2. order) :-0.1275035E+02  (-0.1830867E+02)
 number of electron     160.0000128 magnetization       0.0000000
 augmentation part       70.6108774 magnetization       0.0000000

 Broyden mixing:
  rms(total) = 0.55669E+01    rms(broyden)= 0.55668E+01
  rms(prec ) = 0.86739E+01
  weight for this iteration     100.00

 eigenvalues of (default mixing * dielectric matrix)
  average eigenvalue GAMMA=   0.2889
  0.2889

 Free energy of the ion-electron system (eV)
  ---------------------------------------------------
  alpha Z        PSCENC =       746.91642729
  Ewald energy   TEWEN  =    -10555.13317955
  -Hartree energ DENC   =     -9138.61523980
  -exchange      EXHF   =         0.00000000
  -V(xc)+E(xc)   XCENC  =       551.86289596
  PAW double counting   =     14940.47698404   -15503.75543452
  entropy T*S    EENTRO =         0.00000000
  eigenvalues    EBANDS =     -2866.21439438
  atomic energy  EATOM  =     21710.84102437
  Solvation  Ediel_sol  =         0.00000000
  ---------------------------------------------------
  free energy    TOTEN  =      -113.62091660 eV

  energy without entropy =     -113.62091660  energy(sigma->0) =     -113.62091660


--------------------------------------------------------------------------------------------------------




--------------------------------------- Iteration      1(   7)  ---------------------------------------


    POTLOK:  cpu time      0.0669: real time      0.0828
    SETDIJ:  cpu time      0.2717: real time      0.2727
    EDDIAG:  cpu time      4.5012: real time      4.5258
  RMM-DIIS:  cpu time     16.8781: real time     16.9627
    ORTHCH:  cpu time      0.6231: real time      0.6259
 BZINTS: Fermi energy:    3.177808;  160.000000 electrons
         Band energy:-0.251965E+04;  BLOECHL correction:   -0.018144
       DOS:  cpu time      0.1585: real time      0.1592
    CHARGE:  cpu time      1.0536: real time      1.0595
    MIXING:  cpu time      0.0016: real time      0.0016
    --------------------------------------------
      LOOP:  cpu time     23.5548: real time     23.6902

 eigenvalue-minimisations  : 32075
 total energy-change (2. order) : 0.2264971E+02  (-0.4762639E+01)
 number of electron     160.0000102 magnetization       0.0000000
 augmentation part       57.6607300 magnetization       0.0000000

 Broyden mixing:
  rms(total) = 0.12442E+01    rms(broyden)= 0.12434E+01
  rms(prec ) = 0.14974E+01
  weight for this iteration     100.00

 eigenvalues of (default mixing * dielectric matrix)
  average eigenvalue GAMMA=   0.4381
  0.6154  0.2607

 Free energy of the ion-electron system (eV)
  ---------------------------------------------------
  alpha Z        PSCENC =       746.91642729
  Ewald energy   TEWEN  =    -10555.13317955
  -Hartree energ DENC   =     -9433.29269822
  -exchange      EXHF   =         0.00000000
  -V(xc)+E(xc)   XCENC  =       556.91242600
  PAW double counting   =     15447.70290197   -16045.26986853
  entropy T*S    EENTRO =         0.00000000
  eigenvalues    EBANDS =     -2519.64823960
  atomic energy  EATOM  =     21710.84102437
  Solvation  Ediel_sol  =         0.00000000
  ---------------------------------------------------
  free energy    TOTEN  =       -90.97120627 eV

  energy without entropy =      -90.97120627  energy(sigma->0) =      -90.97120627


--------------------------------------------------------------------------------------------------------




--------------------------------------- Iteration      1(   8)  ---------------------------------------


    POTLOK:  cpu time      0.0568: real time      0.0573
    SETDIJ:  cpu time      0.2751: real time      0.2762
    EDDIAG:  cpu time      4.7106: real time      4.7371
  RMM-DIIS:  cpu time     25.2605: real time     25.3848
    ORTHCH:  cpu time      0.6275: real time      0.6302
 BZINTS: Fermi energy:    3.164082;  160.000000 electrons
         Band energy:-0.252648E+04;  BLOECHL correction:   -0.016159
       DOS:  cpu time      0.1644: real time      0.1651
    CHARGE:  cpu time      1.0825: real time      1.0903
    MIXING:  cpu time      0.0019: real time      0.0019
    --------------------------------------------
      LOOP:  cpu time     32.1793: real time     32.3429

 eigenvalue-minimisations  : 46190
 total energy-change (2. order) :-0.6659584E+00  (-0.3740093E+00)
 number of electron     160.0000100 magnetization      -0.0000000
 augmentation part       58.2423962 magnetization      -0.0000000

 Broyden mixing:
  rms(total) = 0.61542E+00    rms(broyden)= 0.61505E+00
  rms(prec ) = 0.80265E+00
  weight for this iteration     100.00

 eigenvalues of (default mixing * dielectric matrix)
  average eigenvalue GAMMA=   0.5911
  0.7351  0.7351  0.3031

 Free energy of the ion-electron system (eV)
  ---------------------------------------------------
  alpha Z        PSCENC =       746.91642729
  Ewald energy   TEWEN  =    -10555.13317955
  -Hartree energ DENC   =     -9420.81060672
  -exchange      EXHF   =         0.00000000
  -V(xc)+E(xc)   XCENC  =       557.39756720
  PAW double counting   =     15488.50066249   -16092.86784701
  entropy T*S    EENTRO =         0.00000000
  eigenvalues    EBANDS =     -2526.48121278
  atomic energy  EATOM  =     21710.84102437
  Solvation  Ediel_sol  =         0.00000000
  ---------------------------------------------------
  free energy    TOTEN  =       -91.63716470 eV

  energy without entropy =      -91.63716470  energy(sigma->0) =      -91.63716470


--------------------------------------------------------------------------------------------------------




--------------------------------------- Iteration      1(   9)  ---------------------------------------


    POTLOK:  cpu time      0.0700: real time      0.1048
    SETDIJ:  cpu time      0.2789: real time      0.2799
    EDDIAG:  cpu time      4.6888: real time      4.7134
  RMM-DIIS:  cpu time     25.7787: real time     25.9149
    ORTHCH:  cpu time      0.6129: real time      0.6157
 BZINTS: Fermi energy:    3.092554;  160.000000 electrons
         Band energy:-0.253711E+04;  BLOECHL correction:   -0.014131
       DOS:  cpu time      0.1623: real time      0.1629
    CHARGE:  cpu time      1.0546: real time      1.0610
    MIXING:  cpu time      0.0016: real time      0.0016
    --------------------------------------------
      LOOP:  cpu time     32.6478: real time     32.8544

 eigenvalue-minimisations  : 50237
 total energy-change (2. order) :-0.1301645E+00  (-0.1043032E+00)
 number of electron     160.0000098 magnetization       0.0000000
 augmentation part       58.7134230 magnetization       0.0000000

 Broyden mixing:
  rms(total) = 0.33881E+00    rms(broyden)= 0.33811E+00
  rms(prec ) = 0.41336E+00
  weight for this iteration     100.00

 eigenvalues of (default mixing * dielectric matrix)
  average eigenvalue GAMMA=   0.7735
  1.0587  1.0587  0.2953  0.6811

 Free energy of the ion-electron system (eV)
  ---------------------------------------------------
  alpha Z        PSCENC =       746.91642729
  Ewald energy   TEWEN  =    -10555.13317955
  -Hartree energ DENC   =     -9404.32549376
  -exchange      EXHF   =         0.00000000
  -V(xc)+E(xc)   XCENC  =       557.71432183
  PAW double counting   =     15559.04246132   -16169.71528032
  entropy T*S    EENTRO =         0.00000000
  eigenvalues    EBANDS =     -2537.10761038
  atomic energy  EATOM  =     21710.84102437
  Solvation  Ediel_sol  =         0.00000000
  ---------------------------------------------------
  free energy    TOTEN  =       -91.76732919 eV

  energy without entropy =      -91.76732919  energy(sigma->0) =      -91.76732919


--------------------------------------------------------------------------------------------------------




--------------------------------------- Iteration      1(  10)  ---------------------------------------


    POTLOK:  cpu time      0.0719: real time      0.0730
    SETDIJ:  cpu time      0.2744: real time      0.2755
    EDDIAG:  cpu time      4.5646: real time      4.5897
  RMM-DIIS:  cpu time     28.8261: real time     28.9718
    ORTHCH:  cpu time      0.6264: real time      0.6292
 BZINTS: Fermi energy:    3.047807;  160.000000 electrons
         Band energy:-0.254020E+04;  BLOECHL correction:   -0.012580
       DOS:  cpu time      0.1584: real time      0.1590
    CHARGE:  cpu time      1.0786: real time      1.0847
    MIXING:  cpu time      0.0020: real time      0.0020
    --------------------------------------------
      LOOP:  cpu time     35.6024: real time     35.7849

 eigenvalue-minimisations  : 52560
 total energy-change (2. order) :-0.3809994E-01  (-0.3174020E-01)
 number of electron     160.0000097 magnetization      -0.0000000
 augmentation part       58.9129144 magnetization      -0.0000000

 Broyden mixing:
  rms(total) = 0.22669E+00    rms(broyden)= 0.22644E+00
  rms(prec ) = 0.26324E+00
  weight for this iteration     100.00

 eigenvalues of (default mixing * dielectric matrix)
  average eigenvalue GAMMA=   1.0062
  1.6069  1.6069  0.2961  0.7606  0.7606

 Free energy of the ion-electron system (eV)
  ---------------------------------------------------
  alpha Z        PSCENC =       746.91642729
  Ewald energy   TEWEN  =    -10555.13317955
  -Hartree energ DENC   =     -9398.34214514
  -exchange      EXHF   =         0.00000000
  -V(xc)+E(xc)   XCENC  =       557.70997580
  PAW double counting   =     15597.86012020   -16211.46211999
  entropy T*S    EENTRO =         0.00000000
  eigenvalues    EBANDS =     -2540.19553211
  atomic energy  EATOM  =     21710.84102437
  Solvation  Ediel_sol  =         0.00000000
  ---------------------------------------------------
  free energy    TOTEN  =       -91.80542913 eV

  energy without entropy =      -91.80542913  energy(sigma->0) =      -91.80542913


--------------------------------------------------------------------------------------------------------




--------------------------------------- Iteration      1(  11)  ---------------------------------------


    POTLOK:  cpu time      0.0566: real time      0.0982
    SETDIJ:  cpu time      0.2743: real time      0.2754
    EDDIAG:  cpu time      4.7037: real time      4.7290
  RMM-DIIS:  cpu time     24.3193: real time     24.4471
    ORTHCH:  cpu time      0.6179: real time      0.6206
 BZINTS: Fermi energy:    3.056918;  160.000000 electrons
         Band energy:-0.253878E+04;  BLOECHL correction:   -0.012302
       DOS:  cpu time      0.1476: real time      0.1481
    CHARGE:  cpu time      1.0320: real time      1.0381
    MIXING:  cpu time      0.0017: real time      0.0017
    --------------------------------------------
      LOOP:  cpu time     31.1531: real time     31.3582

 eigenvalue-minimisations  : 44706
 total energy-change (2. order) : 0.6857815E-02  (-0.9055446E-02)
 number of electron     160.0000097 magnetization      -0.0000000
 augmentation part       58.8633691 magnetization      -0.0000000

 Broyden mixing:
  rms(total) = 0.10679E+00    rms(broyden)= 0.10670E+00
  rms(prec ) = 0.13205E+00
  weight for this iteration     100.00

 eigenvalues of (default mixing * dielectric matrix)
  average eigenvalue GAMMA=   1.0792
  1.8328  1.8328  0.2960  0.9122  0.9122  0.6889

 Free energy of the ion-electron system (eV)
  ---------------------------------------------------
  alpha Z        PSCENC =       746.91642729
  Ewald energy   TEWEN  =    -10555.13317955
  -Hartree energ DENC   =     -9396.19902645
  -exchange      EXHF   =         0.00000000
  -V(xc)+E(xc)   XCENC  =       557.91683950
  PAW double counting   =     15663.40490992   -16280.76230106
  entropy T*S    EENTRO =         0.00000000
  eigenvalues    EBANDS =     -2538.78326534
  atomic energy  EATOM  =     21710.84102437
  Solvation  Ediel_sol  =         0.00000000
  ---------------------------------------------------
  free energy    TOTEN  =       -91.79857131 eV

  energy without entropy =      -91.79857131  energy(sigma->0) =      -91.79857131


--------------------------------------------------------------------------------------------------------




--------------------------------------- Iteration      1(  12)  ---------------------------------------


    POTLOK:  cpu time      0.0637: real time      0.0803
    SETDIJ:  cpu time      0.2752: real time      0.2762
    EDDIAG:  cpu time      4.5739: real time      4.5983
  RMM-DIIS:  cpu time     25.8209: real time     25.9501
    ORTHCH:  cpu time      0.6212: real time      0.6241
 BZINTS: Fermi energy:    3.052993;  160.000000 electrons
         Band energy:-0.254067E+04;  BLOECHL correction:   -0.012668
       DOS:  cpu time      0.1571: real time      0.1577
    CHARGE:  cpu time      1.0790: real time      1.0850
    MIXING:  cpu time      0.0019: real time      0.0019
    --------------------------------------------
      LOOP:  cpu time     32.5930: real time     32.7737

 eigenvalue-minimisations  : 47562
 total energy-change (2. order) :-0.1393803E-01  (-0.3988711E-02)
 number of electron     160.0000097 magnetization       0.0000000
 augmentation part       58.9444554 magnetization       0.0000000

 Broyden mixing:
  rms(total) = 0.55056E-01    rms(broyden)= 0.55051E-01
  rms(prec ) = 0.66741E-01
  weight for this iteration     100.00

 eigenvalues of (default mixing * dielectric matrix)
  average eigenvalue GAMMA=   1.0827
  2.2471  1.3768  1.3768  0.2960  0.8017  0.8017  0.6790

 Free energy of the ion-electron system (eV)
  ---------------------------------------------------
  alpha Z        PSCENC =       746.91642729
  Ewald energy   TEWEN  =    -10555.13317955
  -Hartree energ DENC   =     -9393.51331829
  -exchange      EXHF   =         0.00000000
  -V(xc)+E(xc)   XCENC  =       557.92998410
  PAW double counting   =     15674.24805113   -16292.43304765
  entropy T*S    EENTRO =         0.00000000
  eigenvalues    EBANDS =     -2540.66845073
  atomic energy  EATOM  =     21710.84102437
  Solvation  Ediel_sol  =         0.00000000
  ---------------------------------------------------
  free energy    TOTEN  =       -91.81250934 eV

  energy without entropy =      -91.81250934  energy(sigma->0) =      -91.81250934


--------------------------------------------------------------------------------------------------------




--------------------------------------- Iteration      1(  13)  ---------------------------------------


    POTLOK:  cpu time      0.0589: real time      0.0929
    SETDIJ:  cpu time      0.2712: real time      0.2723
    EDDIAG:  cpu time      4.7037: real time      4.7281
  RMM-DIIS:  cpu time     26.2236: real time     26.3559
    ORTHCH:  cpu time      0.6142: real time      0.6168
 BZINTS: Fermi energy:    3.047374;  160.000000 electrons
         Band energy:-0.254153E+04;  BLOECHL correction:   -0.012547
       DOS:  cpu time      0.1578: real time      0.1585
    CHARGE:  cpu time      0.9861: real time      0.9923
    MIXING:  cpu time      0.0018: real time      0.0018
    --------------------------------------------
      LOOP:  cpu time     33.0174: real time     33.2186

 eigenvalue-minimisations  : 47578
 total energy-change (2. order) : 0.5676631E-03  (-0.1325903E-02)
 number of electron     160.0000097 magnetization       0.0000000
 augmentation part       58.9860132 magnetization       0.0000000

 Broyden mixing:
  rms(total) = 0.19821E-01    rms(broyden)= 0.19807E-01
  rms(prec ) = 0.23551E-01
  weight for this iteration     100.00

 eigenvalues of (default mixing * dielectric matrix)
  average eigenvalue GAMMA=   1.1321
  2.6213  1.4454  1.4454  0.2960  0.9399  0.9399  0.7242  0.6443

 Free energy of the ion-electron system (eV)
  ---------------------------------------------------
  alpha Z        PSCENC =       746.91642729
  Ewald energy   TEWEN  =    -10555.13317955
  -Hartree energ DENC   =     -9392.31918038
  -exchange      EXHF   =         0.00000000
  -V(xc)+E(xc)   XCENC  =       557.97077426
  PAW double counting   =     15677.72954918   -16296.28539241
  entropy T*S    EENTRO =         0.00000000
  eigenvalues    EBANDS =     -2541.53196445
  atomic energy  EATOM  =     21710.84102437
  Solvation  Ediel_sol  =         0.00000000
  ---------------------------------------------------
  free energy    TOTEN  =       -91.81194168 eV

  energy without entropy =      -91.81194168  energy(sigma->0) =      -91.81194168


--------------------------------------------------------------------------------------------------------




--------------------------------------- Iteration      1(  14)  ---------------------------------------


    POTLOK:  cpu time      0.0602: real time      0.0801
    SETDIJ:  cpu time      0.2767: real time      0.2776
    EDDIAG:  cpu time      4.4735: real time      4.4975
  RMM-DIIS:  cpu time     22.1135: real time     22.2268
    ORTHCH:  cpu time      0.6239: real time      0.6267
 BZINTS: Fermi energy:    3.045790;  160.000000 electrons
         Band energy:-0.254178E+04;  BLOECHL correction:   -0.012516
       DOS:  cpu time      0.1671: real time      0.1677
    CHARGE:  cpu time      1.0728: real time      1.0789
    MIXING:  cpu time      0.0020: real time      0.0020
    --------------------------------------------
      LOOP:  cpu time     28.7896: real time     28.9573

 eigenvalue-minimisations  : 41172
 total energy-change (2. order) : 0.1001585E-03  (-0.3440656E-03)
 number of electron     160.0000097 magnetization       0.0000000
 augmentation part       59.0042318 magnetization       0.0000000

 Broyden mixing:
  rms(total) = 0.11434E-01    rms(broyden)= 0.11429E-01
  rms(prec ) = 0.14086E-01
  weight for this iteration     100.00

 eigenvalues of (default mixing * dielectric matrix)
  average eigenvalue GAMMA=   1.1427
  2.6041  1.4030  1.4030  1.4271  0.2960  0.8617  0.8617  0.7997  0.6281

 Free energy of the ion-electron system (eV)
  ---------------------------------------------------
  alpha Z        PSCENC =       746.91642729
  Ewald energy   TEWEN  =    -10555.13317955
  -Hartree energ DENC   =     -9392.02434739
  -exchange      EXHF   =         0.00000000
  -V(xc)+E(xc)   XCENC  =       557.97937233
  PAW double counting   =     15677.35609654   -16295.96550573
  entropy T*S    EENTRO =         0.00000000
  eigenvalues    EBANDS =     -2541.78172938
  atomic energy  EATOM  =     21710.84102437
  Solvation  Ediel_sol  =         0.00000000
  ---------------------------------------------------
  free energy    TOTEN  =       -91.81184152 eV

  energy without entropy =      -91.81184152  energy(sigma->0) =      -91.81184152


--------------------------------------------------------------------------------------------------------




--------------------------------------- Iteration      1(  15)  ---------------------------------------


    POTLOK:  cpu time      0.0572: real time      0.0903
    SETDIJ:  cpu time      0.2782: real time      0.2791
    EDDIAG:  cpu time      4.6850: real time      4.7100
  RMM-DIIS:  cpu time     15.6258: real time     15.7030
    ORTHCH:  cpu time      0.5903: real time      0.5929
 BZINTS: Fermi energy:    3.047792;  160.000000 electrons
         Band energy:-0.254146E+04;  BLOECHL correction:   -0.012533
       DOS:  cpu time      0.1651: real time      0.1657
    --------------------------------------------
      LOOP:  cpu time     21.4016: real time     21.5411

 eigenvalue-minimisations  : 26943
 total energy-change (2. order) :-0.4662555E-04  (-0.6180362E-04)
 number of electron     160.0000097 magnetization       0.0000000
 augmentation part       59.0042318 magnetization       0.0000000

 Free energy of the ion-electron system (eV)
  ---------------------------------------------------
  alpha Z        PSCENC =       746.91642729
  Ewald energy   TEWEN  =    -10555.13317955
  -Hartree energ DENC   =     -9392.41435186
  -exchange      EXHF   =         0.00000000
  -V(xc)+E(xc)   XCENC  =       557.97430503
  PAW double counting   =     15677.83160856   -16296.36620222
  entropy T*S    EENTRO =         0.00000000
  eigenvalues    EBANDS =     -2541.46151977
  atomic energy  EATOM  =     21710.84102437
  Solvation  Ediel_sol  =         0.00000000
  ---------------------------------------------------
[...]
  0.000  -0.000  -0.000  -0.000   0.000   0.000  -0.021  -0.000
 -0.000   0.000  -0.000   0.000  -0.000   0.000  -0.000  -0.104
  0.000  -0.000  -0.000  -0.000   0.000   0.000   0.059  -0.000
  0.000  -0.000  -0.000  -0.000   0.000   0.000  -0.000   0.004
  0.000   0.000  -0.000  -0.000  -0.000   0.000  -0.000  -0.002
 -0.000   0.000   0.000   0.000  -0.000  -0.000   0.004   0.000
  0.000  -0.000   0.000  -0.000   0.000  -0.000   0.000   0.025
 -0.000   0.000   0.000   0.000  -0.000  -0.000   0.000  -0.017
  0.000  -0.000  -0.000  -0.000   0.000   0.000  -0.000   0.003
 pseudopotential strength for first ion, spin component:           2
-53.583   0.109  -0.000  27.132  -0.078   0.000  -0.000  -0.000
  0.109 -53.593   0.000  -0.078  27.136  -0.000   0.000   0.000
 -0.000   0.000 -53.574   0.000  -0.000  27.118   0.000   0.000
 27.132  -0.078   0.000  -9.240   0.058  -0.000   0.000   0.000
 -0.078  27.136  -0.000   0.058  -9.245   0.000  -0.000  -0.000
  0.000  -0.000  27.118  -0.000   0.000  -9.234  -0.000  -0.000
 -0.000   0.000   0.000   0.000  -0.000  -0.000  -7.226   0.000
 -0.000   0.000   0.000   0.000  -0.000  -0.000   0.000  -7.622
 -0.000  -0.000   0.000   0.000   0.000  -0.000   0.000   0.069
  0.000  -0.000  -0.000  -0.000   0.000   0.000   0.122  -0.000
 -0.000   0.000  -0.000   0.000  -0.000   0.000  -0.000   0.001
  0.000  -0.000  -0.000  -0.000   0.000   0.000  -0.457  -0.000
  0.000  -0.000  -0.000  -0.000   0.000   0.000  -0.000  -0.366
  0.000   0.000  -0.000  -0.000  -0.000   0.000  -0.000  -0.015
 -0.000   0.000   0.000   0.000  -0.000  -0.000  -0.026   0.000
  0.000  -0.000   0.000  -0.000   0.000  -0.000   0.000  -0.002
 -0.000   0.000   0.000   0.000  -0.000  -0.000   0.000  -0.013
  0.000  -0.000  -0.000  -0.000   0.000   0.000  -0.000   0.003
 total augmentation occupancy for first ion, spin component:           1
  2.009  -0.020  -0.000   0.055  -0.049  -0.000   0.000  -0.000   0.000   0.000   0.000   0.000  -0.000  -0.000  -0.000   0.000
 -0.020   2.012  -0.000  -0.049   0.062   0.000   0.000   0.000   0.000  -0.000  -0.000   0.000   0.000  -0.000  -0.000  -0.000
 -0.000  -0.000   2.007   0.000   0.000   0.048   0.000  -0.000   0.000   0.000   0.000   0.000  -0.000   0.000  -0.000   0.000
  0.055  -0.049  -0.000   0.194  -0.118  -0.000  -0.000   0.000   0.000   0.000  -0.000  -0.000  -0.000   0.000   0.000   0.000
 -0.049   0.062   0.000  -0.118   0.211  -0.000  -0.000   0.000   0.000  -0.000  -0.000   0.000   0.000   0.000   0.000   0.000
 -0.000  -0.000   0.048  -0.000  -0.000   0.170  -0.000   0.000   0.000   0.000  -0.000  -0.000   0.000   0.000   0.000   0.000
  0.000   0.000  -0.000  -0.000  -0.000  -0.000   1.222   0.000   0.000  -0.094   0.000  -0.094   0.000  -0.000  -0.055   0.000
  0.000  -0.000   0.000   0.000  -0.000  -0.000   0.000   1.489   0.020  -0.000  -0.094  -0.000   0.078  -0.131   0.000   0.109
  0.000  -0.000   0.000   0.000  -0.000   0.000   0.000   0.020   1.304  -0.000  -0.187   0.000  -0.132   0.017   0.000  -0.088
  0.000  -0.000  -0.000   0.000  -0.000  -0.000  -0.094   0.000   0.000   1.178   0.000  -0.057  -0.000   0.000  -0.076  -0.000
 -0.000   0.000   0.000   0.000  -0.000  -0.000   0.000  -0.094  -0.187   0.000   1.503  -0.000   0.112  -0.086  -0.000   0.116
  0.000   0.000  -0.000  -0.000   0.000  -0.000  -0.094  -0.000   0.000  -0.057   0.000   0.156   0.000   0.000  -0.030  -0.000
  0.000   0.000  -0.000  -0.000   0.000   0.000   0.000   0.078  -0.132   0.000   0.112   0.000   0.248  -0.068   0.000   0.090
 -0.000  -0.000   0.000   0.000  -0.000   0.000  -0.000  -0.131   0.017  -0.000  -0.086   0.000  -0.068   0.162  -0.000  -0.004
 -0.000  -0.000   0.000   0.000   0.000  -0.000  -0.055  -0.000  -0.000  -0.076  -0.000  -0.030  -0.000  -0.000   0.155   0.000
 -0.000   0.000   0.000  -0.000   0.000  -0.000  -0.000   0.109  -0.088  -0.000   0.116   0.000   0.090  -0.004   0.000   0.136
 -0.000   0.000   0.000  -0.000   0.000   0.000  -0.000  -0.018  -0.021   0.000   0.086  -0.000  -0.344   0.031   0.000  -0.019
  0.000   0.000  -0.000  -0.000  -0.000   0.000   0.000  -0.004   0.016   0.000  -0.018  -0.000   0.021  -0.004  -0.000   0.004
 total augmentation occupancy for first ion, spin component:           2
 -0.006   0.000  -0.000  -0.003  -0.000  -0.000   0.000   0.000   0.000   0.000   0.000   0.000  -0.000   0.000   0.000   0.000
  0.000  -0.009  -0.000  -0.000  -0.009  -0.000  -0.000   0.000   0.000  -0.000   0.000   0.000   0.000  -0.000  -0.000   0.000
 -0.000   0.000  -0.008   0.000   0.000  -0.006  -0.000   0.000   0.000   0.000   0.000  -0.000   0.000  -0.000  -0.000   0.000
 -0.003  -0.000  -0.000   0.015  -0.002  -0.000   0.000  -0.000   0.000   0.000   0.000   0.000   0.000   0.000   0.000   0.000
 -0.000  -0.009   0.000  -0.002   0.001   0.000   0.000   0.000   0.000  -0.000   0.000  -0.000  -0.000   0.000   0.000   0.000
 -0.000   0.000  -0.006   0.000   0.000   0.008   0.000  -0.000  -0.000  -0.000  -0.000   0.000   0.000  -0.000   0.000  -0.000
  0.000  -0.000   0.000   0.000   0.000   0.000   0.735   0.000  -0.000   0.109   0.000  -0.274   0.000   0.000   0.011   0.000
  0.000  -0.000   0.000   0.000   0.000  -0.000  -0.000   0.366   0.059  -0.000   0.038  -0.000  -0.209   0.003  -0.000  -0.035
  0.000   0.000   0.000  -0.000   0.000  -0.000   0.000   0.059   0.565   0.000   0.241   0.000   0.000  -0.230  -0.000  -0.037
  0.000  -0.000  -0.000   0.000  -0.000   0.000   0.109   0.000  -0.000   0.754   0.000   0.013   0.000   0.000  -0.273  -0.000
 -0.000   0.000   0.000   0.000  -0.000  -0.000  -0.000   0.038   0.241   0.000   0.268   0.000  -0.019  -0.031  -0.000  -0.162
  0.000   0.000  -0.000   0.000  -0.000   0.000  -0.274   0.000   0.000   0.013  -0.000   0.057  -0.000  -0.000   0.004  -0.000
  0.000  -0.000   0.000   0.000   0.000   0.000   0.000  -0.209   0.000  -0.000  -0.019   0.000   0.010   0.021   0.000  -0.002
  0.000  -0.000  -0.000   0.000   0.000  -0.000   0.000   0.003  -0.230   0.000  -0.031  -0.000   0.021   0.023   0.000   0.015
  0.000  -0.000  -0.000   0.000   0.000  -0.000   0.011  -0.000  -0.000  -0.273  -0.000   0.004   0.000  -0.000   0.044  -0.000
  0.000   0.000  -0.000  -0.000  -0.000   0.000   0.000  -0.035  -0.037   0.000  -0.162   0.000  -0.002   0.015   0.000  -0.005
  0.000   0.000   0.000   0.000  -0.000   0.000   0.000   0.131   0.011   0.000  -0.045   0.000  -0.039   0.004  -0.000  -0.029
  0.000  -0.000   0.000   0.000   0.000  -0.000   0.000   0.009   0.017   0.000  -0.022  -0.000  -0.003  -0.001  -0.000   0.001


------------------------ aborting loop because EDIFF is reached ----------------------------------------





 total charge

# of ion       s       p       d       tot
------------------------------------------
    1        0.339   6.289   6.040  12.668
    2        0.339   6.289   6.040  12.668
    3        0.339   6.289   6.040  12.668
    4        0.339   6.289   6.040  12.668
    5        0.339   6.289   6.040  12.668
    6        0.339   6.289   6.040  12.668
    7        0.339   6.289   6.040  12.668
    8        0.339   6.289   6.040  12.668
    9        1.483   2.280   0.046   3.809
   10        1.483   2.280   0.046   3.809
   11        1.483   2.280   0.046   3.809
   12        1.483   2.280   0.046   3.809
   13        1.483   2.280   0.046   3.809
   14        1.483   2.280   0.046   3.809
   15        1.483   2.280   0.046   3.809
   16        1.483   2.280   0.046   3.809
--------------------------------------------------
tot         14.577  68.550  48.688 131.814



 magnetization (x)

# of ion       s       p       d       tot
------------------------------------------
    1        0.030   0.011   2.620   2.662
    2       -0.030  -0.011  -2.620  -2.662
    3       -0.030  -0.011  -2.620  -2.662
    4        0.030   0.011   2.620   2.662
    5        0.030   0.011   2.620   2.662
    6       -0.030  -0.011  -2.620  -2.662
    7       -0.030  -0.011  -2.620  -2.662
    8        0.030   0.011   2.620   2.662
    9        0.000   0.000   0.000   0.000
   10        0.000   0.000   0.000   0.000
   11        0.000   0.000   0.000   0.000
   12        0.000   0.000   0.000   0.000
   13        0.000   0.000   0.000   0.000
   14        0.000   0.000   0.000   0.000
   15        0.000   0.000   0.000   0.000
   16        0.000   0.000   0.000   0.000
--------------------------------------------------
tot          0.000   0.000   0.000   0.000
 
    CHARGE:  cpu time      0.9282: real time      0.9343
    FORLOC:  cpu time      0.0033: real time      0.0033
    FORNL :  cpu time      7.0540: real time      7.0895
    STRESS:  cpu time     20.7731: real time     20.8794
    FORCOR:  cpu time      0.0521: real time      0.0524
    FORHAR:  cpu time      0.0078: real time      0.0079
    MIXING:  cpu time      0.0019: real time      0.0019
    OFIELD:  cpu time      0.0000: real time      0.0000
    FORVDW:  cpu time      0.7006: real time      0.7030

  FORCE on cell =-STRESS in cart. coord.  units (eV):
  Direction    XX          YY          ZZ          XY          YZ          ZX
  --------------------------------------------------------------------------------------
  Alpha Z   746.91643   746.91643   746.91643
  Ewald    -519.18337 -1285.21178 -8750.76423    -0.00000    -0.00000    -0.00000
  Hartree  5872.38015  5104.26233 -1583.20217     0.00000     0.00000    -0.00000
  E(xc)    -896.22382  -897.88217  -897.42951    -0.00000    -0.00000     0.00000
  Local   -7158.56912 -5621.65348  8545.63387    -0.00000    -0.00000     0.00000
  n-local  -272.11029  -245.00846  -237.17939    -1.20855    -0.25315    -0.58185
  augment   531.20065   517.06430   515.99567     0.00000     0.00000     0.00000
  Kinetic  1697.52849  1683.51134  1662.12000     3.64181     0.01593     0.08787
  Fock        0.00000     0.00000     0.00000     0.00000     0.00000     0.00000
  vdW        -5.90612    -6.00636    -6.07658     0.00000    -0.00000     0.00000
  -------------------------------------------------------------------------------------
  Total      -3.96700    -4.00784    -3.98593     0.00000     0.00000     0.00000
  in kB     -18.69365   -18.88607   -18.78284     0.00000     0.00000     0.00000
  external pressure =      -18.79 kB  Pullay stress =        0.00 kB


 VOLUME and BASIS-vectors are now :
 -----------------------------------------------------------------------------
  energy-cutoff  :      550.00
  volume of cell :      340.00
      direct lattice vectors                 reciprocal lattice vectors
     4.895805536 -5.878733708  0.000000000     0.102128239 -0.085052330  0.000000000
     4.895805536  5.878733708  0.000000000     0.102128239  0.085052330  0.000000000
     0.000000000  0.000000000  5.906646419     0.000000000  0.000000000  0.169300806

  length of vectors
     7.650387040  7.650387040  5.906646419     0.132906268  0.132906268  0.169300806


 FORCES acting on ions
    electron-ion (+dipol)            ewald-force                    non-local-force                 convergence-correction
 -----------------------------------------------------------------------------------------------
   0.329E-14 -.969E-13 0.455E-13   -.711E-14 -.675E-13 -.355E-14   0.138E-21 -.454E-22 0.120E-21   0.303E-12 -.256E-12 -.258E-12
   0.707E-12 0.812E-12 0.620E-13   -.272E-13 -.675E-13 -.178E-13   0.121E-21 0.422E-21 0.383E-22   -.443E-13 -.505E-13 -.283E-12
   0.659E-12 -.164E-11 -.120E-10   0.147E-13 -.568E-13 0.000E+00   0.170E-21 0.185E-21 -.539E-21   0.210E-12 0.489E-12 -.171E-12
   -.485E-11 -.965E-11 -.892E-11   -.711E-14 -.568E-13 -.107E-13   0.357E-23 0.213E-21 -.339E-21   -.156E-12 -.288E-12 -.170E-12
   -.260E-11 -.393E-11 -.374E-11   -.102E-13 0.131E-12 0.266E-13   -.116E-21 -.210E-21 -.870E-22   0.282E-12 0.161E-12 -.996E-13
   0.430E-11 0.577E-11 -.441E-11   0.213E-13 0.117E-12 0.249E-13   -.194E-22 -.219E-21 -.276E-21   -.221E-12 0.284E-12 -.946E-13
   -.143E-10 -.296E-10 0.378E-10   -.213E-13 0.110E-12 0.249E-13   -.110E-21 -.401E-21 0.730E-22   0.386E-12 0.595E-12 -.492E-12
   0.100E-11 -.670E-11 0.358E-10   0.158E-13 0.114E-12 0.284E-13   -.126E-21 -.145E-21 0.412E-22   -.181E-12 -.405E-12 -.392E-12
   0.229E-07 0.252E-11 0.358E+03   -.113E-13 -.249E-13 -.359E+03   -.629E-18 0.178E-17 0.109E+01   0.140E-12 0.101E-12 -.144E-01
   0.230E-07 0.936E-12 0.358E+03   -.142E-13 -.216E-13 -.359E+03   0.819E-18 -.242E-17 0.109E+01   -.631E-13 -.157E-12 -.144E-01
   0.230E-07 -.343E-11 0.358E+03   -.142E-13 -.283E-13 -.359E+03   0.235E-18 -.189E-17 0.109E+01   0.713E-13 0.122E-12 -.144E-01
   0.230E-07 0.102E-12 0.358E+03   -.419E-14 0.000E+00 -.359E+03   0.871E-18 -.632E-18 0.109E+01   -.124E-12 0.252E-13 -.144E-01
   -.230E-07 -.346E-12 -.358E+03   0.155E-13 -.322E-13 0.359E+03   -.395E-18 0.210E-17 -.109E+01   0.417E-13 -.826E-13 0.144E-01
   -.230E-07 -.275E-12 -.358E+03   0.213E-13 -.276E-13 0.359E+03   0.472E-18 -.364E-18 -.109E+01   0.295E-14 -.279E-13 0.144E-01
   -.230E-07 -.102E-12 -.358E+03   0.212E-13 -.290E-13 0.359E+03   -.124E-17 0.314E-17 -.109E+01   -.408E-13 0.744E-13 0.144E-01
   -.230E-07 -.465E-12 -.358E+03   0.138E-13 -.282E-13 0.359E+03   -.128E-17 -.309E-17 -.109E+01   -.704E-13 -.536E-13 0.144E-01
 -----------------------------------------------------------------------------------------------
   -.168E-10 -.461E-10 0.391E-10   0.661E-14 0.320E-13 -.227E-12   -.114E-17 -.137E-17 0.222E-15   0.535E-12 0.529E-12 -.183E-11
 
 
 POSITION                                       TOTAL-FORCE (eV/Angst)
 -----------------------------------------------------------------------------------
      0.00000      0.00000      0.00000         0.000000     -0.000000     -0.000000
      2.44790      2.93937      0.00000         0.000000     -0.000000     -0.000000
      2.44790     -2.93937      0.00000         0.000000     -0.000000     -0.000000
      4.89581      0.00000      0.00000         0.000000     -0.000000     -0.000000
      2.44790      0.00000      0.00000         0.000000     -0.000000     -0.000000
      4.89581      2.93937      0.00000         0.000000     -0.000000     -0.000000
      4.89581     -2.93937      0.00000         0.000000     -0.000000     -0.000000
      7.34371      0.00000      0.00000         0.000000     -0.000000     -0.000000
      2.44790     -1.46968      4.14779        -0.000000      0.000000     -0.002589
      4.89581      1.46968      4.14779         0.000000      0.000000     -0.002589
      4.89581     -4.40905      4.14779         0.000000     -0.000000     -0.002589
      7.34371     -1.46968      4.14779        -0.000000      0.000000     -0.002589
      2.44790      1.46968      1.75886         0.000000      0.000000      0.002589
      4.89581      4.40905      1.75886         0.000000      0.000000      0.002589
      4.89581     -1.46968      1.75886        -0.000000     -0.000000      0.002589
      7.34371      1.46968      1.75886        -0.000000     -0.000000      0.002589
 -----------------------------------------------------------------------------------
    total drift:                               -0.000000     -0.000000      0.000000


--------------------------------------------------------------------------------------------------------



  FREE ENERGIE OF THE ION-ELECTRON SYSTEM (eV)
  ---------------------------------------------------
  free  energy   TOTEN  =       -98.04108929 eV

  energy  without entropy=      -98.04108929  energy(sigma->0) =      -98.04108929
 


--------------------------------------------------------------------------------------------------------


    POTLOK:  cpu time      0.3280: real time      0.3427


--------------------------------------------------------------------------------------------------------


     LOOP+:  cpu time    496.9207: real time    501.3325
 -----------------------------------------------------------------------------
|                                                                             |
|           W    W    AA    RRRRR   N    N  II  N    N   GGGG   !!!           |
|           W    W   A  A   R    R  NN   N  II  NN   N  G    G  !!!           |
|           W    W  A    A  R    R  N N  N  II  N N  N  G       !!!           |
|           W WW W  AAAAAA  RRRRR   N  N N  II  N  N N  G  GGG   !            |
|           WW  WW  A    A  R   R   N   NN  II  N   NN  G    G                |
|           W    W  A    A  R    R  N    N  II  N    N   GGGG   !!!           |
|                                                                             |
|     Tetrahedron method does not include variations of the Fermi             |
|     occupations, so forces and stress will be inaccurate. We suggest        |
|     using a different smearing scheme ISMEAR = 1 or 2 for metals in         |
|     relaxations.                                                            |
|                                                                             |
 -----------------------------------------------------------------------------

    4ORBIT:  cpu time      0.0000: real time      0.0000



 total charge

# of ion       s       p       d       tot
------------------------------------------
    1        0.339   6.289   6.040  12.668
    2        0.339   6.289   6.040  12.668
    3        0.339   6.289   6.040  12.668
    4        0.339   6.289   6.040  12.668
    5        0.339   6.289   6.040  12.668
    6        0.339   6.289   6.040  12.668
    7        0.339   6.289   6.040  12.668
    8        0.339   6.289   6.040  12.668
    9        1.483   2.280   0.046   3.809
   10        1.483   2.280   0.046   3.809
   11        1.483   2.280   0.046   3.809
   12        1.483   2.280   0.046   3.809
   13        1.483   2.280   0.046   3.809
   14        1.483   2.280   0.046   3.809
   15        1.483   2.280   0.046   3.809
   16        1.483   2.280   0.046   3.809
--------------------------------------------------
tot         14.577  68.550  48.688 131.814



 magnetization (x)

# of ion       s       p       d       tot
------------------------------------------
    1        0.030   0.011   2.620   2.662
    2       -0.030  -0.011  -2.620  -2.662
    3       -0.030  -0.011  -2.620  -2.662
    4        0.030   0.011   2.620   2.662
    5        0.030   0.011   2.620   2.662
    6       -0.030  -0.011  -2.620  -2.662
    7       -0.030  -0.011  -2.620  -2.662
    8        0.030   0.011   2.620   2.662
    9        0.000   0.000   0.000   0.000
   10        0.000   0.000   0.000   0.000
   11        0.000   0.000   0.000   0.000
   12        0.000   0.000   0.000   0.000
   13        0.000   0.000   0.000   0.000
   14        0.000   0.000   0.000   0.000
   15        0.000   0.000   0.000   0.000
   16        0.000   0.000   0.000   0.000
--------------------------------------------------
tot          0.000   0.000   0.000   0.000
 
 BZINTS: Fermi energy:    3.047792;  160.000000 electrons
         Band energy:-0.254146E+04;  BLOECHL correction:   -0.012533

 total amount of memory used by VASP MPI-rank0   197552. kBytes
=======================================================================

   base      :      30000. kBytes
   nonlr-proj:      12827. kBytes
   fftplans  :       3084. kBytes
   grid      :      19560. kBytes
   one-center:        497. kBytes
   wavefun   :     131584. kBytes
 
  
  
 General timing and accounting informations for this job:
 ========================================================
  
                  Total CPU time used (sec):      524.917
                            User time (sec):      522.561
                          System time (sec):        2.357
                         Elapsed time (sec):      530.481
  
                   Maximum memory used (kb):      484180.
                   Average memory used (kb):          N/A
  
                          Minor page faults:       208428
                          Major page faults:            0
                 Voluntary context switches:        36989
