 vasp.6.4.1 05Apr23 (build Jun 01 2023 13:46:15) complex                        
  
 executed on             LinuxIFC date 2023.12.16  19:28:44
 running   20 mpi-ranks, on    5 nodes
 distrk:  each k-point on   20 cores,    1 groups
 distr:  one band on NCORE=   1 cores,   20 groups


--------------------------------------------------------------------------------------------------------


 INCAR:
   ALGO = Fast
   EDIFF = 0.0002
   ENCUT = 550
   IBRION = 2
   ISIF = 4
   ISMEAR = 0
   ISPIN = 2
   IVDW = 13
   LASPH = True
   LMAXMIX = 4
   LORBIT = 11
   LREAL = Auto
   LWAVE = False
   MAGMOM = 1*2.664 2*-2.664 2*2.664 2*-2.664 1*2.664 8*0.0
   NELM = 100
   NSW = 99
   PREC = Accurate
   SIGMA = 0.05

 POTCAR:   PAW_PBE Fe_pv 06Sep2000                
 POTCAR:   PAW_PBE Se 06Sep2000                   
 -----------------------------------------------------------------------------
|                                                                             |
|           W    W    AA    RRRRR   N    N  II  N    N   GGGG   !!!           |
|           W    W   A  A   R    R  NN   N  II  NN   N  G    G  !!!           |
|           W    W  A    A  R    R  N N  N  II  N N  N  G       !!!           |
|           W WW W  AAAAAA  RRRRR   N  N N  II  N  N N  G  GGG   !            |
|           WW  WW  A    A  R   R   N   NN  II  N   NN  G    G                |
|           W    W  A    A  R    R  N    N  II  N    N   GGGG   !!!           |
|                                                                             |
|     For optimal performance we recommend to set                             |
|       NCORE = 2 up to number-of-cores-per-socket                            |
|     NCORE specifies how many cores store one orbital (NPAR=cpu/NCORE).      |
|     This setting can greatly improve the performance of VASP for DFT.       |
|     The default, NCORE=1 might be grossly inefficient on modern             |
|     multi-core architectures or massively parallel machines. Do your        |
|     own testing! More info at https://www.vasp.at/wiki/index.php/NCORE      |
|     Unfortunately you need to use the default for GW and RPA                |
|     calculations (for HF NCORE is supported but not extensively tested      |
|     yet).                                                                   |
|                                                                             |
 -----------------------------------------------------------------------------

 POTCAR:   PAW_PBE Fe_pv 06Sep2000                
   VRHFIN =Fe:  3pd7s1                                                                              
   LEXCH  = PE                                                                                      
   EATOM  =  2456.8974 eV,  180.5769 Ry                                                             
                                                                                                    
   TITEL  = PAW_PBE Fe_pv 06Sep2000                                                                 
   LULTRA =        F    use ultrasoft PP ?                                                          
   IUNSCR =        1    unscreen: 0-lin 1-nonlin 2-no                                               
   RPACOR =    1.750    partial core radius                                                         
   POMASS =   55.847; ZVAL   =   14.000    mass and valenz                                          
   RCORE  =    2.200    outmost cutoff radius                                                       
   RWIGS  =    2.200; RWIGS  =    1.164    wigner-seitz radius (au A)                               
   ENMAX  =  293.238; ENMIN  =  219.929 eV                                                          
   RCLOC  =    1.701    cutoff for local pot                                                        
   LCOR   =        T    correct aug charges                                                         
   LPAW   =        T    paw PP                                                                      
   EAUG   =  578.342                                                                                
   DEXC   =    -.002                                                                                
   RMAX   =    2.693    core radius for proj-oper                                                   
   RAUG   =    1.300    factor for augmentation sphere                                              
   RDEP   =    2.296    radius for radial grids                                                     
   QCUT   =   -4.642; QGAM   =    9.285    optimization parameters                                  
                                                                                                    
   Description                                                                                      
     l     E      TYP  RCUT    TYP  RCUT                                                            
     1   .000     23  2.000                                                                         
     1  -.400     23  2.000                                                                         
     2   .000     23  2.200                                                                         
     2   .000     23  2.200                                                                         
     0   .000     23  2.000                                                                         
     0  2.000     23  2.000                                                                         
     3   .000      7   .000                                                                         
  local pseudopotential read in
  partial core-charges read in
  atomic valenz-charges read in
  non local Contribution for L=           1  read in
    real space projection operators read in
  non local Contribution for L=           1  read in
    real space projection operators read in
  non local Contribution for L=           2  read in
    real space projection operators read in
  non local Contribution for L=           2  read in
    real space projection operators read in
  non local Contribution for L=           0  read in
    real space projection operators read in
  non local Contribution for L=           0  read in
    real space projection operators read in
    PAW grid and wavefunctions read in
 
   number of l-projection  operators is LMAX  =           6
   number of lm-projection operators is LMMAX =          18
 
 POTCAR:   PAW_PBE Se 06Sep2000                   
   VRHFIN =Se: s2p4                                                                                 
   LEXCH  = PE                                                                                      
   EATOM  =   256.9644 eV,   18.8864 Ry                                                             
                                                                                                    
   TITEL  = PAW_PBE Se 06Sep2000                                                                    
   LULTRA =        F    use ultrasoft PP ?                                                          
   IUNSCR =        1    unscreen: 0-lin 1-nonlin 2-no                                               
   RPACOR =    1.900    partial core radius                                                         
   POMASS =   78.960; ZVAL   =    6.000    mass and valenz                                          
   RCORE  =    2.100    outmost cutoff radius                                                       
   RWIGS  =    2.200; RWIGS  =    1.164    wigner-seitz radius (au A)                               
   ENMAX  =  211.534; ENMIN  =  158.651 eV                                                          
   ICORE  =        3    local potential                                                             
   LCOR   =        T    correct aug charges                                                         
   LPAW   =        T    paw PP                                                                      
   EAUG   =  446.842                                                                                
   DEXC   =    -.031                                                                                
   RMAX   =    3.170    core radius for proj-oper                                                   
   RAUG   =    1.300    factor for augmentation sphere                                              
   RDEP   =    2.177    radius for radial grids                                                     
   QCUT   =   -3.943; QGAM   =    7.886    optimization parameters                                  
                                                                                                    
   Description                                                                                      
     l     E      TYP  RCUT    TYP  RCUT                                                            
     0   .000     23  2.100                                                                         
     0   .000     23  2.100                                                                         
     1   .000     23  2.100                                                                         
     1   .000     23  2.100                                                                         
     2   .000     23  2.100                                                                         
     3  -.100      7  2.100                                                                         
  local pseudopotential read in
  partial core-charges read in
  atomic valenz-charges read in
  non local Contribution for L=           0  read in
    real space projection operators read in
  non local Contribution for L=           0  read in
    real space projection operators read in
  non local Contribution for L=           1  read in
    real space projection operators read in
  non local Contribution for L=           1  read in
    real space projection operators read in
  non local Contribution for L=           2  read in
    real space projection operators read in
    PAW grid and wavefunctions read in
 
   number of l-projection  operators is LMAX  =           5
   number of lm-projection operators is LMMAX =          13
 
 Optimization of the real space projectors (new method)

 maximal supplied QI-value         = 17.01
 optimisation between [QCUT,QGAM] = [ 11.91, 23.98] = [ 39.69,161.04] Ry 
 Optimized for a Real-space Cutoff    1.45 Angstroem

   l    n(q)    QCUT    max X(q) W(low)/X(q) W(high)/X(q)  e(spline) 
   1     10    11.905     4.550    0.27E-05    0.11E-05    0.28E-07
   1     10    11.905     5.234    0.10E-04    0.61E-04    0.17E-06
   2      9    11.905     3.960    0.19E-04    0.73E-05    0.50E-07
   2      9    11.905    29.565    0.24E-03    0.51E-04    0.27E-06
   0     10    11.905    23.582    0.17E-04    0.10E-05    0.14E-07
   0     10    11.905    39.747    0.23E-04    0.68E-05    0.74E-07
 Optimization of the real space projectors (new method)

 maximal supplied QI-value         = 17.95
 optimisation between [QCUT,QGAM] = [ 11.85, 23.88] = [ 39.31,159.64] Ry 
 Optimized for a Real-space Cutoff    1.18 Angstroem

   l    n(q)    QCUT    max X(q) W(low)/X(q) W(high)/X(q)  e(spline) 
   0      8    11.849     6.499    0.17E-04    0.94E-05    0.89E-08
   0      8    11.849    52.623    0.21E-03    0.78E-04    0.81E-07
   1      8    11.849     4.229    0.79E-04    0.83E-04    0.23E-07
   1      8    11.849    29.991    0.12E-03    0.43E-03    0.14E-06
   2      7    11.849     3.719    0.22E-03    0.64E-04    0.38E-07
 PAW_PBE Fe_pv 06Sep2000                :
 energy of atom  1       EATOM=-2456.8974
 kinetic energy error for atom=    0.0060 (will be added to EATOM!!)
 PAW_PBE Se 06Sep2000                   :
 energy of atom  2       EATOM= -256.9644
 kinetic energy error for atom=    0.0007 (will be added to EATOM!!)
 
 
 POSCAR: Fe8 Se8
  positions in direct lattice
  velocities in cartesian coordinates
 exchange correlation table for  LEXCH =        8
   RHO(1)=    0.500       N(1)  =     2000
   RHO(2)=  100.500       N(2)  =     4000
 


--------------------------------------------------------------------------------------------------------


 ion  position               nearest neighbor table
   1  0.000  0.000  0.000-  11 2.29  14 2.29   5 2.44   8 2.44
   2  0.000  0.500  0.000-  12 2.29  13 2.29   6 2.44   7 2.44
   3  0.500  0.000  0.000-   9 2.29  16 2.29   6 2.44   7 2.44
   4  0.500  0.500  0.000-  10 2.29  15 2.29   5 2.44   8 2.44
   5  0.250  0.250  0.000-   9 2.29  13 2.29   1 2.44   4 2.44
   6  0.250  0.750  0.000-  10 2.29  14 2.29   2 2.44   3 2.44
   7  0.750  0.250  0.000-  11 2.29  15 2.29   2 2.44   3 2.44
   8  0.750  0.750  0.000-  12 2.29  16 2.29   1 2.44   4 2.44
   9  0.375  0.125  0.702-   3 2.29   5 2.29
  10  0.375  0.625  0.702-   4 2.29   6 2.29
  11  0.875  0.125  0.702-   1 2.29   7 2.29
  12  0.875  0.625  0.702-   2 2.29   8 2.29
  13  0.125  0.375  0.298-   2 2.29   5 2.29
  14  0.125  0.875  0.298-   1 2.29   6 2.29
  15  0.625  0.375  0.298-   4 2.29   7 2.29
  16  0.625  0.875  0.298-   3 2.29   8 2.29
 
  LATTYP: Found a base centered orthorhombic cell.
 ALAT       =     9.7799704521
 B/A-ratio  =     1.2026024271
 C/A-ratio  =     0.6044692444
  
  Lattice vectors:
  
 A1 = (   4.8899852261,  -5.8807081013,   0.0000000000)
 A2 = (   4.8899852261,   5.8807081013,   0.0000000000)
 A3 = (   0.0000000000,   0.0000000000,   5.9116913492)


Analysis of symmetry for initial positions (statically):
=====================================================================
 Subroutine PRICEL returns following result:
 
  LATTYP: Found a base centered orthorhombic cell.
 ALAT       =     4.8899852261
 B/A-ratio  =     1.2026024271
 C/A-ratio  =     1.2089384888
  
  Lattice vectors:
  
 A1 = (   2.4449926130,  -2.9403540506,   0.0000000000)
 A2 = (   2.4449926130,   2.9403540506,   0.0000000000)
 A3 = (   0.0000000000,   0.0000000000,   5.9116913492)
 
   4 primitive cells build up your supercell.
 

 Routine SETGRP: Setting up the symmetry group for a 
 base centered orthorhombic supercell.


 Subroutine GETGRP returns: Found  8 space group operations
 (whereof  4 operations were pure point group operations)
 out of a pool of  8 trial point group operations.


The static configuration has the point symmetry C_2h.
 The point group associated with its full space group is D_2h.


Analysis of symmetry for dynamics (positions and initial velocities):
=====================================================================
 Subroutine PRICEL returns following result:
 
  LATTYP: Found a base centered orthorhombic cell.
 ALAT       =     4.8899852261
 B/A-ratio  =     1.2026024271
 C/A-ratio  =     1.2089384888
  
  Lattice vectors:
  
 A1 = (   2.4449926130,  -2.9403540506,   0.0000000000)
 A2 = (   2.4449926130,   2.9403540506,   0.0000000000)
 A3 = (   0.0000000000,   0.0000000000,   5.9116913492)
 
   4 primitive cells build up your supercell.
 

 Routine SETGRP: Setting up the symmetry group for a 
 base centered orthorhombic supercell.


 Subroutine GETGRP returns: Found  8 space group operations
 (whereof  4 operations were pure point group operations)
 out of a pool of  8 trial point group operations.


The dynamic configuration has the point symmetry C_2h.
 The point group associated with its full space group is D_2h.


Analysis of structural, dynamic, and magnetic symmetry:
=====================================================================
 Subroutine PRICEL returns following result:
 
  LATTYP: Found a base centered orthorhombic cell.
 ALAT       =     4.8899852261
 B/A-ratio  =     1.2026024271
 C/A-ratio  =     1.2089384888
  
  Lattice vectors:
  
 A1 = (   2.4449926130,  -2.9403540506,   0.0000000000)
 A2 = (   2.4449926130,   2.9403540506,   0.0000000000)
 A3 = (   0.0000000000,   0.0000000000,   5.9116913492)
 
   4 primitive cells build up your supercell.
 

 Routine SETGRP: Setting up the symmetry group for a 
 base centered orthorhombic supercell.


 Subroutine GETGRP returns: Found  8 space group operations
 (whereof  4 operations were pure point group operations)
 out of a pool of  8 trial point group operations.


The overall configuration has the point symmetry C_2h.
 The point group associated with its full space group is D_2h.


 Subroutine INISYM returns: Found  8 space group operations
 (whereof  4 operations are pure point group operations),
 and found     4 'primitive' translations


----------------------------------------------------------------------------------------

                                     Primitive cell                                     

  volume of cell :      85.0000

  direct lattice vectors                    reciprocal lattice vectors
     2.444992613 -2.940354051  0.000000000     0.204499595 -0.170047549  0.000000000
     2.444992613  2.940354051  0.000000000     0.204499595  0.170047549  0.000000000
     0.000000000  0.000000000  5.911691349     0.000000000  0.000000000  0.169156328

  length of vectors
     3.824090849  3.824090849  5.911691349     0.265962880  0.265962880  0.169156328

  position of ions in fractional coordinates (direct lattice)
     0.000000000  0.000000000  0.000000000
     0.500000000  0.500000000  0.000000000
     0.750000000  0.250000000  0.701999406
     0.250000000  0.750000000  0.298000594

  ion indices of the primitive-cell ions
   primitive index   ion index
                 1           1
                 2           5
                 3          11
                 4          14

----------------------------------------------------------------------------------------

 
 
 KPOINTS: KPOINTS                                 

Automatic generation of k-mesh.
 Grid dimensions read from file:
 generate k-points for:    7    7    9

 Generating k-lattice:

  Cartesian coordinates                     Fractional coordinates (reciprocal lattice)
     0.014607114 -0.012146254  0.000000000     0.142857143 -0.000000000  0.000000000
     0.014607114  0.012146254  0.000000000    -0.000000000  0.142857143  0.000000000
     0.000000000  0.000000000  0.018795148     0.000000000  0.000000000  0.111111111

  Length of vectors
     0.018997349  0.018997349  0.018795148

  Shift w.r.t. Gamma in fractional coordinates (k-lattice)
     0.000000000  0.000000000  0.000000000

 
 Subroutine IBZKPT returns following result:
 ===========================================
 
 Found     80 irreducible k-points:
 
 Following reciprocal coordinates:
            Coordinates               Weight
  0.000000  0.000000  0.000000      1.000000
  0.142857  0.000000  0.000000      4.000000
  0.285714  0.000000  0.000000      4.000000
  0.428571 -0.000000  0.000000      4.000000
  0.142857  0.142857  0.000000      2.000000
  0.285714  0.142857  0.000000      4.000000
  0.428571  0.142857  0.000000      4.000000
 -0.428571  0.142857  0.000000      4.000000
 -0.285714  0.142857  0.000000      4.000000
 -0.142857  0.142857  0.000000      2.000000
  0.285714  0.285714  0.000000      2.000000
  0.428571  0.285714  0.000000      4.000000
 -0.428571  0.285714  0.000000      4.000000
 -0.285714  0.285714  0.000000      2.000000
  0.428571  0.428571  0.000000      2.000000
 -0.428571  0.428571  0.000000      2.000000
  0.000000  0.000000  0.111111      2.000000
  0.142857  0.000000  0.111111      8.000000
  0.285714  0.000000  0.111111      8.000000
  0.428571 -0.000000  0.111111      8.000000
  0.142857  0.142857  0.111111      4.000000
  0.285714  0.142857  0.111111      8.000000
  0.428571  0.142857  0.111111      8.000000
 -0.428571  0.142857  0.111111      8.000000
 -0.285714  0.142857  0.111111      8.000000
 -0.142857  0.142857  0.111111      4.000000
  0.285714  0.285714  0.111111      4.000000
  0.428571  0.285714  0.111111      8.000000
 -0.428571  0.285714  0.111111      8.000000
 -0.285714  0.285714  0.111111      4.000000
  0.428571  0.428571  0.111111      4.000000
 -0.428571  0.428571  0.111111      4.000000
  0.000000  0.000000  0.222222      2.000000
  0.142857  0.000000  0.222222      8.000000
  0.285714  0.000000  0.222222      8.000000
  0.428571 -0.000000  0.222222      8.000000
  0.142857  0.142857  0.222222      4.000000
  0.285714  0.142857  0.222222      8.000000
  0.428571  0.142857  0.222222      8.000000
 -0.428571  0.142857  0.222222      8.000000
 -0.285714  0.142857  0.222222      8.000000
 -0.142857  0.142857  0.222222      4.000000
  0.285714  0.285714  0.222222      4.000000
  0.428571  0.285714  0.222222      8.000000
 -0.428571  0.285714  0.222222      8.000000
 -0.285714  0.285714  0.222222      4.000000
  0.428571  0.428571  0.222222      4.000000
 -0.428571  0.428571  0.222222      4.000000
  0.000000  0.000000  0.333333      2.000000
  0.142857  0.000000  0.333333      8.000000
  0.285714  0.000000  0.333333      8.000000
  0.428571 -0.000000  0.333333      8.000000
  0.142857  0.142857  0.333333      4.000000
  0.285714  0.142857  0.333333      8.000000
  0.428571  0.142857  0.333333      8.000000
 -0.428571  0.142857  0.333333      8.000000
 -0.285714  0.142857  0.333333      8.000000
 -0.142857  0.142857  0.333333      4.000000
  0.285714  0.285714  0.333333      4.000000
  0.428571  0.285714  0.333333      8.000000
 -0.428571  0.285714  0.333333      8.000000
 -0.285714  0.285714  0.333333      4.000000
  0.428571  0.428571  0.333333      4.000000
 -0.428571  0.428571  0.333333      4.000000
  0.000000  0.000000  0.444444      2.000000
  0.142857  0.000000  0.444444      8.000000
  0.285714  0.000000  0.444444      8.000000
  0.428571 -0.000000  0.444444      8.000000
  0.142857  0.142857  0.444444      4.000000
  0.285714  0.142857  0.444444      8.000000
  0.428571  0.142857  0.444444      8.000000
 -0.428571  0.142857  0.444444      8.000000
 -0.285714  0.142857  0.444444      8.000000
 -0.142857  0.142857  0.444444      4.000000
  0.285714  0.285714  0.444444      4.000000
  0.428571  0.285714  0.444444      8.000000
 -0.428571  0.285714  0.444444      8.000000
 -0.285714  0.285714  0.444444      4.000000
  0.428571  0.428571  0.444444      4.000000
 -0.428571  0.428571  0.444444      4.000000
 
 Following cartesian coordinates:
            Coordinates               Weight
  0.000000  0.000000  0.000000      1.000000
  0.014607 -0.012146  0.000000      4.000000
  0.029214 -0.024293  0.000000      4.000000
  0.043821 -0.036439  0.000000      4.000000
  0.029214 -0.000000  0.000000      2.000000
  0.043821 -0.012146  0.000000      4.000000
  0.058428 -0.024293  0.000000      4.000000
 -0.029214  0.048585  0.000000      4.000000
 -0.014607  0.036439  0.000000      4.000000
 -0.000000  0.024293  0.000000      2.000000
  0.058428  0.000000  0.000000      2.000000
  0.073036 -0.012146  0.000000      4.000000
 -0.014607  0.060731  0.000000      4.000000
  0.000000  0.048585  0.000000      2.000000
  0.087643 -0.000000  0.000000      2.000000
  0.000000  0.072878  0.000000      2.000000
  0.000000  0.000000  0.018795      2.000000
  0.014607 -0.012146  0.018795      8.000000
  0.029214 -0.024293  0.018795      8.000000
  0.043821 -0.036439  0.018795      8.000000
  0.029214 -0.000000  0.018795      4.000000
  0.043821 -0.012146  0.018795      8.000000
  0.058428 -0.024293  0.018795      8.000000
 -0.029214  0.048585  0.018795      8.000000
 -0.014607  0.036439  0.018795      8.000000
 -0.000000  0.024293  0.018795      4.000000
  0.058428  0.000000  0.018795      4.000000
  0.073036 -0.012146  0.018795      8.000000
 -0.014607  0.060731  0.018795      8.000000
  0.000000  0.048585  0.018795      4.000000
  0.087643 -0.000000  0.018795      4.000000
  0.000000  0.072878  0.018795      4.000000
  0.000000  0.000000  0.037590      2.000000
  0.014607 -0.012146  0.037590      8.000000
  0.029214 -0.024293  0.037590      8.000000
  0.043821 -0.036439  0.037590      8.000000
  0.029214 -0.000000  0.037590      4.000000
  0.043821 -0.012146  0.037590      8.000000
  0.058428 -0.024293  0.037590      8.000000
 -0.029214  0.048585  0.037590      8.000000
 -0.014607  0.036439  0.037590      8.000000
 -0.000000  0.024293  0.037590      4.000000
  0.058428  0.000000  0.037590      4.000000
  0.073036 -0.012146  0.037590      8.000000
 -0.014607  0.060731  0.037590      8.000000
  0.000000  0.048585  0.037590      4.000000
  0.087643 -0.000000  0.037590      4.000000
  0.000000  0.072878  0.037590      4.000000
  0.000000  0.000000  0.056385      2.000000
  0.014607 -0.012146  0.056385      8.000000
  0.029214 -0.024293  0.056385      8.000000
  0.043821 -0.036439  0.056385      8.000000
  0.029214 -0.000000  0.056385      4.000000
  0.043821 -0.012146  0.056385      8.000000
  0.058428 -0.024293  0.056385      8.000000
 -0.029214  0.048585  0.056385      8.000000
 -0.014607  0.036439  0.056385      8.000000
 -0.000000  0.024293  0.056385      4.000000
  0.058428  0.000000  0.056385      4.000000
  0.073036 -0.012146  0.056385      8.000000
 -0.014607  0.060731  0.056385      8.000000
  0.000000  0.048585  0.056385      4.000000
  0.087643 -0.000000  0.056385      4.000000
  0.000000  0.072878  0.056385      4.000000
  0.000000  0.000000  0.075181      2.000000
  0.014607 -0.012146  0.075181      8.000000
  0.029214 -0.024293  0.075181      8.000000
  0.043821 -0.036439  0.075181      8.000000
  0.029214 -0.000000  0.075181      4.000000
  0.043821 -0.012146  0.075181      8.000000
  0.058428 -0.024293  0.075181      8.000000
 -0.029214  0.048585  0.075181      8.000000
 -0.014607  0.036439  0.075181      8.000000
 -0.000000  0.024293  0.075181      4.000000
  0.058428  0.000000  0.075181      4.000000
  0.073036 -0.012146  0.075181      8.000000
 -0.014607  0.060731  0.075181      8.000000
  0.000000  0.048585  0.075181      4.000000
  0.087643 -0.000000  0.075181      4.000000
  0.000000  0.072878  0.075181      4.000000
 


--------------------------------------------------------------------------------------------------------




 Dimension of arrays:
   k-points           NKPTS =     80   k-points in BZ     NKDIM =     80   number of bands    NBANDS=    100
   number of dos      NEDOS =    301   number of ions     NIONS =     16
   non local maximal  LDIM  =      6   non local SUM 2l+1 LMDIM =     18
   total plane-waves  NPLWV = 172800
   max r-space proj   IRMAX =   6512   max aug-charges    IRDMAX=  22361
   dimension x,y,z NGX =    60 NGY =   60 NGZ =   48
   dimension x,y,z NGXF=   120 NGYF=  120 NGZF=   96
   support grid    NGXF=   120 NGYF=  120 NGZF=   96
   ions per type =               8   8
   NGX,Y,Z   is equivalent  to a cutoff of  13.04, 13.04, 13.50 a.u.
   NGXF,Y,Z  is equivalent  to a cutoff of  26.08, 26.08, 27.00 a.u.

 SYSTEM =  unknown system                          
 POSCAR =  Fe8 Se8                                 

 Startparameter for this run:
   NWRITE =      2    write-flag & timer
   PREC   = accura    normal or accurate (medium, high low for compatibility)
   ISTART =      0    job   : 0-new  1-cont  2-samecut
   ICHARG =      2    charge: 1-file 2-atom 10-const
   ISPIN  =      2    spin polarized calculation?
   LNONCOLLINEAR =      F non collinear calculations
   LSORBIT =      F    spin-orbit coupling
   INIWAV =      1    electr: 0-lowe 1-rand  2-diag
   LASPH  =      T    aspherical Exc in radial PAW
 Electronic Relaxation 1
   ENCUT  =  550.0 eV  40.42 Ry    6.36 a.u.  14.63 14.63 11.30*2*pi/ulx,y,z
   ENINI  =  550.0     initial cutoff
   ENAUG  =  578.3 eV  augmentation charge cutoff
   NELM   =    100;   NELMIN=  2; NELMDL=  0     # of ELM steps 
   EDIFF  = 0.2E-03   stopping-criterion for ELM
   LREAL  =      T    real-space projection
   NLSPLINE    = F    spline interpolate recip. space projectors
   LCOMPAT=      F    compatible to vasp.4.4
   GGA_COMPAT  = T    GGA compatible to vasp.4.4-vasp.4.6
   LMAXPAW     = -100 max onsite density
   LMAXMIX     =    4 max onsite mixed and CHGCAR
   VOSKOWN=      0    Vosko Wilk Nusair interpolation
   ROPT   =   -0.00025  -0.00025
 Ionic relaxation
   EDIFFG = 0.2E-02   stopping-criterion for IOM
   NSW    =     99    number of steps for IOM
   NBLOCK =      1;   KBLOCK =     99    inner block; outer block 
   IBRION =      2    ionic relax: 0-MD 1-quasi-New 2-CG
   NFREE  =      1    steps in history (QN), initial steepest desc. (CG)
   ISIF   =      4    stress and relaxation
   IWAVPR =     11    prediction:  0-non 1-charg 2-wave 3-comb
   ISYM   =      2    0-nonsym 1-usesym 2-fastsym
   LCORR  =      T    Harris-Foulkes like correction to forces

   POTIM  = 0.5000    time-step for ionic-motion
   TEIN   =    0.0    initial temperature
   TEBEG  =    0.0;   TEEND  =   0.0 temperature during run
   SMASS  =  -3.00    Nose mass-parameter (am)
   estimated Nose-frequenzy (Omega)   =  0.10E-29 period in steps = 0.13E+47 mass=  -0.134E-26a.u.
   SCALEE = 1.0000    scale energy and forces
   NPACO  =    256;   APACO  = 10.0  distance and # of slots for P.C.
   PSTRESS=    0.0 pullay stress

  Mass of Ions in am
   POMASS =  55.85 78.96
  Ionic Valenz
   ZVAL   =  14.00  6.00
  Atomic Wigner-Seitz radii
   RWIGS  =  -1.00 -1.00
  virtual crystal weights 
   VCA    =   1.00  1.00
   NELECT =     160.0000    total number of electrons
   NUPDOWN=      -1.0000    fix difference up-down

 DOS related values:
   EMIN   =  10.00;   EMAX   =-10.00  energy-range for DOS
   EFERMI =   0.00;   METHOD = LEGACY      
   ISMEAR =     0;   SIGMA  =   0.05  broadening in eV -4-tet -1-fermi 0-gaus

 Electronic relaxation 2 (details)
   IALGO  =     68    algorithm
   LDIAG  =      T    sub-space diagonalisation (order eigenvalues)
   LSUBROT=      F    optimize rotation matrix (better conditioning)
   TURBO    =      0    0=normal 1=particle mesh
   IRESTART =      0    0=no restart 2=restart with 2 vectors
   NREBOOT  =      0    no. of reboots
   NMIN     =      0    reboot dimension
   EREF     =   0.00    reference energy to select bands
   IMIX   =      4    mixing-type and parameters
     AMIX     =   0.40;   BMIX     =  1.00
     AMIX_MAG =   1.60;   BMIX_MAG =  1.00
     AMIN     =   0.10
     WC   =   100.;   INIMIX=   1;  MIXPRE=   1;  MAXMIX= -45

 Intra band minimization:
   WEIMIN = 0.0010     energy-eigenvalue tresh-hold
   EBREAK =  0.50E-06  absolut break condition
   DEPER  =   0.30     relativ break condition  

   TIME   =   0.40     timestep for ELM

  volume/ion in A,a.u.               =      21.25       143.40
  Fermi-wavevector in a.u.,A,eV,Ry     =   1.273372  2.406324 22.061513  1.621475
  Thomas-Fermi vector in A             =   2.406199
 
 Write flags
   LWAVE        =      F    write WAVECAR
   LDOWNSAMPLE  =      F    k-point downsampling of WAVECAR
   LCHARG       =      T    write CHGCAR
   LVTOT        =      F    write LOCPOT, total local potential
   LVHAR        =      F    write LOCPOT, Hartree potential only
   LELF         =      F    write electronic localiz. function (ELF)
   LORBIT       =     11    0 simple, 1 ext, 2 COOP (PROOUT), +10 PAW based schemes


 Dipole corrections
   LMONO  =      F    monopole corrections only (constant potential shift)
   LDIPOL =      F    correct potential (dipole corrections)
   IDIPOL =      0    1-x, 2-y, 3-z, 4-all directions 
   EPSILON=  1.0000000 bulk dielectric constant

 Exchange correlation treatment:
   GGA     =    --    GGA type
   LEXCH   =     8    internal setting for exchange type
   LIBXC   =     F    Libxc                    
   VOSKOWN =     0    Vosko Wilk Nusair interpolation
   LHFCALC =     F    Hartree Fock is set to
   LHFONE  =     F    Hartree Fock one center treatment
   AEXX    =    0.0000 exact exchange contribution

 Linear response parameters
   LEPSILON=     F    determine dielectric tensor
   LRPA    =     F    only Hartree local field effects (RPA)
   LNABLA  =     F    use nabla operator in PAW spheres
   LVEL    =     F    velocity operator in full k-point grid
   CSHIFT  =0.1000    complex shift for real part using Kramers Kronig
   OMEGAMAX=  -1.0    maximum frequency
   DEG_THRESHOLD= 0.2000000E-02 threshold for treating states as degnerate
   RTIME   =   -0.100 relaxation time in fs
  (WPLASMAI=    0.000 imaginary part of plasma frequency in eV, 0.658/RTIME)
   DFIELD  = 0.0000000 0.0000000 0.0000000 field for delta impulse in time
 
  Optional k-point grid parameters
   LKPOINTS_OPT  =     F    use optional k-point grid
   KPOINTS_OPT_MODE=     1    mode for optional k-point grid
 
 Orbital magnetization related:
   ORBITALMAG=     F  switch on orbital magnetization
   LCHIMAG   =     F  perturbation theory with respect to B field
   DQ        =  0.001000  dq finite difference perturbation B field
   LLRAUG    =     F  two centre corrections for induced B field
   LBONE     =     F  B-component reconstruction in AE one-centre
   LVGVCALC  =     T  calculate vGv susceptibility
   LVGVAPPL  =     F  apply vGv susceptibility instead of pGv for G=0

 Random number generation:
   RANDOM_GENERATOR = DEFAULT
   PCG_SEED         = not used


--------------------------------------------------------------------------------------------------------


 conjugate gradient relaxation of ions
 charge density and potential will be updated during run
 spin polarized calculation
 RMM-DIIS sequential band-by-band and
  variant of blocked Davidson during initial phase
 perform sub-space diagonalisation
    before iterative eigenvector-optimisation
 modified Broyden-mixing scheme, WC =      100.0
 initial mixing is a Kerker type mixing with AMIX =  0.4000 and BMIX =      1.0000
 Hartree-type preconditioning will be used
 using additional bands           20
 real space projection scheme for non local part
 use partial core corrections
 calculate Harris-corrections to forces 
   (improved forces if not selfconsistent)
 use gradient corrections 
 use of overlap-Matrix (Vanderbilt PP)
 Gauss-broadening in eV      SIGMA  =   0.05


--------------------------------------------------------------------------------------------------------


  energy-cutoff  :      550.00
  volume of cell :      340.00
      direct lattice vectors                 reciprocal lattice vectors
     4.889985226 -5.880708101  0.000000000     0.102249798 -0.085023775  0.000000000
     4.889985226  5.880708101  0.000000000     0.102249798  0.085023775  0.000000000
     0.000000000  0.000000000  5.911691349     0.000000000  0.000000000  0.169156328

  length of vectors
     7.648181698  7.648181698  5.911691349     0.132981440  0.132981440  0.169156328


 
 k-points in units of 2pi/SCALE and weight: KPOINTS                                 
   0.00000000  0.00000000  0.00000000       0.002
   0.01460711 -0.01214625  0.00000000       0.009
   0.02921423 -0.02429251  0.00000000       0.009
   0.04382134 -0.03643876  0.00000000       0.009
   0.02921423  0.00000000  0.00000000       0.005
   0.04382134 -0.01214625  0.00000000       0.009
   0.05842846 -0.02429251  0.00000000       0.009
  -0.02921423  0.04858501  0.00000000       0.009
  -0.01460711  0.03643876  0.00000000       0.009
   0.00000000  0.02429251  0.00000000       0.005
   0.05842846  0.00000000  0.00000000       0.005
   0.07303557 -0.01214625  0.00000000       0.009
  -0.01460711  0.06073127  0.00000000       0.009
  -0.00000000  0.04858501  0.00000000       0.005
   0.08764268  0.00000000  0.00000000       0.005
  -0.00000000  0.07287752  0.00000000       0.005
   0.00000000  0.00000000  0.01879515       0.005
   0.01460711 -0.01214625  0.01879515       0.018
   0.02921423 -0.02429251  0.01879515       0.018
   0.04382134 -0.03643876  0.01879515       0.018
   0.02921423  0.00000000  0.01879515       0.009
   0.04382134 -0.01214625  0.01879515       0.018
   0.05842846 -0.02429251  0.01879515       0.018
  -0.02921423  0.04858501  0.01879515       0.018
  -0.01460711  0.03643876  0.01879515       0.018
   0.00000000  0.02429251  0.01879515       0.009
   0.05842846  0.00000000  0.01879515       0.009
   0.07303557 -0.01214625  0.01879515       0.018
  -0.01460711  0.06073127  0.01879515       0.018
  -0.00000000  0.04858501  0.01879515       0.009
   0.08764268  0.00000000  0.01879515       0.009
  -0.00000000  0.07287752  0.01879515       0.009
   0.00000000  0.00000000  0.03759030       0.005
   0.01460711 -0.01214625  0.03759030       0.018
   0.02921423 -0.02429251  0.03759030       0.018
   0.04382134 -0.03643876  0.03759030       0.018
   0.02921423  0.00000000  0.03759030       0.009
   0.04382134 -0.01214625  0.03759030       0.018
   0.05842846 -0.02429251  0.03759030       0.018
  -0.02921423  0.04858501  0.03759030       0.018
  -0.01460711  0.03643876  0.03759030       0.018
   0.00000000  0.02429251  0.03759030       0.009
   0.05842846  0.00000000  0.03759030       0.009
   0.07303557 -0.01214625  0.03759030       0.018
  -0.01460711  0.06073127  0.03759030       0.018
  -0.00000000  0.04858501  0.03759030       0.009
   0.08764268  0.00000000  0.03759030       0.009
  -0.00000000  0.07287752  0.03759030       0.009
   0.00000000  0.00000000  0.05638544       0.005
   0.01460711 -0.01214625  0.05638544       0.018
   0.02921423 -0.02429251  0.05638544       0.018
   0.04382134 -0.03643876  0.05638544       0.018
   0.02921423  0.00000000  0.05638544       0.009
   0.04382134 -0.01214625  0.05638544       0.018
   0.05842846 -0.02429251  0.05638544       0.018
  -0.02921423  0.04858501  0.05638544       0.018
  -0.01460711  0.03643876  0.05638544       0.018
   0.00000000  0.02429251  0.05638544       0.009
   0.05842846  0.00000000  0.05638544       0.009
   0.07303557 -0.01214625  0.05638544       0.018
  -0.01460711  0.06073127  0.05638544       0.018
  -0.00000000  0.04858501  0.05638544       0.009
   0.08764268  0.00000000  0.05638544       0.009
  -0.00000000  0.07287752  0.05638544       0.009
   0.00000000  0.00000000  0.07518059       0.005
   0.01460711 -0.01214625  0.07518059       0.018
   0.02921423 -0.02429251  0.07518059       0.018
   0.04382134 -0.03643876  0.07518059       0.018
   0.02921423  0.00000000  0.07518059       0.009
   0.04382134 -0.01214625  0.07518059       0.018
   0.05842846 -0.02429251  0.07518059       0.018
  -0.02921423  0.04858501  0.07518059       0.018
  -0.01460711  0.03643876  0.07518059       0.018
   0.00000000  0.02429251  0.07518059       0.009
   0.05842846  0.00000000  0.07518059       0.009
   0.07303557 -0.01214625  0.07518059       0.018
  -0.01460711  0.06073127  0.07518059       0.018
  -0.00000000  0.04858501  0.07518059       0.009
   0.08764268  0.00000000  0.07518059       0.009
  -0.00000000  0.07287752  0.07518059       0.009
 
 k-points in reciprocal lattice and weights: KPOINTS                                 
   0.00000000  0.00000000  0.00000000       0.002
   0.14285714  0.00000000  0.00000000       0.009
   0.28571429  0.00000000  0.00000000       0.009
   0.42857143 -0.00000000  0.00000000       0.009
   0.14285714  0.14285714  0.00000000       0.005
   0.28571429  0.14285714  0.00000000       0.009
   0.42857143  0.14285714  0.00000000       0.009
  -0.42857143  0.14285714  0.00000000       0.009
  -0.28571429  0.14285714  0.00000000       0.009
  -0.14285714  0.14285714  0.00000000       0.005
   0.28571429  0.28571429  0.00000000       0.005
   0.42857143  0.28571429  0.00000000       0.009
  -0.42857143  0.28571429  0.00000000       0.009
  -0.28571429  0.28571429  0.00000000       0.005
   0.42857143  0.42857143  0.00000000       0.005
  -0.42857143  0.42857143  0.00000000       0.005
   0.00000000  0.00000000  0.11111111       0.005
   0.14285714  0.00000000  0.11111111       0.018
   0.28571429  0.00000000  0.11111111       0.018
   0.42857143 -0.00000000  0.11111111       0.018
   0.14285714  0.14285714  0.11111111       0.009
   0.28571429  0.14285714  0.11111111       0.018
   0.42857143  0.14285714  0.11111111       0.018
  -0.42857143  0.14285714  0.11111111       0.018
  -0.28571429  0.14285714  0.11111111       0.018
  -0.14285714  0.14285714  0.11111111       0.009
   0.28571429  0.28571429  0.11111111       0.009
   0.42857143  0.28571429  0.11111111       0.018
  -0.42857143  0.28571429  0.11111111       0.018
  -0.28571429  0.28571429  0.11111111       0.009
   0.42857143  0.42857143  0.11111111       0.009
  -0.42857143  0.42857143  0.11111111       0.009
   0.00000000  0.00000000  0.22222222       0.005
   0.14285714  0.00000000  0.22222222       0.018
   0.28571429  0.00000000  0.22222222       0.018
   0.42857143 -0.00000000  0.22222222       0.018
   0.14285714  0.14285714  0.22222222       0.009
   0.28571429  0.14285714  0.22222222       0.018
   0.42857143  0.14285714  0.22222222       0.018
  -0.42857143  0.14285714  0.22222222       0.018
  -0.28571429  0.14285714  0.22222222       0.018
  -0.14285714  0.14285714  0.22222222       0.009
   0.28571429  0.28571429  0.22222222       0.009
   0.42857143  0.28571429  0.22222222       0.018
  -0.42857143  0.28571429  0.22222222       0.018
  -0.28571429  0.28571429  0.22222222       0.009
   0.42857143  0.42857143  0.22222222       0.009
  -0.42857143  0.42857143  0.22222222       0.009
   0.00000000  0.00000000  0.33333333       0.005
   0.14285714  0.00000000  0.33333333       0.018
   0.28571429  0.00000000  0.33333333       0.018
   0.42857143 -0.00000000  0.33333333       0.018
   0.14285714  0.14285714  0.33333333       0.009
   0.28571429  0.14285714  0.33333333       0.018
   0.42857143  0.14285714  0.33333333       0.018
  -0.42857143  0.14285714  0.33333333       0.018
  -0.28571429  0.14285714  0.33333333       0.018
  -0.14285714  0.14285714  0.33333333       0.009
   0.28571429  0.28571429  0.33333333       0.009
   0.42857143  0.28571429  0.33333333       0.018
  -0.42857143  0.28571429  0.33333333       0.018
  -0.28571429  0.28571429  0.33333333       0.009
   0.42857143  0.42857143  0.33333333       0.009
  -0.42857143  0.42857143  0.33333333       0.009
   0.00000000  0.00000000  0.44444444       0.005
   0.14285714  0.00000000  0.44444444       0.018
   0.28571429  0.00000000  0.44444444       0.018
   0.42857143 -0.00000000  0.44444444       0.018
   0.14285714  0.14285714  0.44444444       0.009
   0.28571429  0.14285714  0.44444444       0.018
   0.42857143  0.14285714  0.44444444       0.018
  -0.42857143  0.14285714  0.44444444       0.018
  -0.28571429  0.14285714  0.44444444       0.018
  -0.14285714  0.14285714  0.44444444       0.009
   0.28571429  0.28571429  0.44444444       0.009
   0.42857143  0.28571429  0.44444444       0.018
  -0.42857143  0.28571429  0.44444444       0.018
  -0.28571429  0.28571429  0.44444444       0.009
   0.42857143  0.42857143  0.44444444       0.009
  -0.42857143  0.42857143  0.44444444       0.009
 
 position of ions in fractional coordinates (direct lattice) 
   0.00000000  0.00000000  0.00000000
   0.00000000  0.50000000  0.00000000
   0.50000000  0.00000000  0.00000000
   0.50000000  0.50000000  0.00000000
   0.25000000  0.25000000  0.00000000
   0.25000000  0.75000000  0.00000000
   0.75000000  0.25000000  0.00000000
   0.75000000  0.75000000  0.00000000
   0.37500000  0.12500000  0.70199941
   0.37500000  0.62500000  0.70199941
   0.87500000  0.12500000  0.70199941
   0.87500000  0.62500000  0.70199941
   0.12500000  0.37500000  0.29800059
   0.12500000  0.87500000  0.29800059
   0.62500000  0.37500000  0.29800059
   0.62500000  0.87500000  0.29800059
 
 position of ions in cartesian coordinates  (Angst):
   0.00000000  0.00000000  0.00000000
   2.44499261  2.94035405  0.00000000
   2.44499261 -2.94035405  0.00000000
   4.88998523  0.00000000  0.00000000
   2.44499261  0.00000000  0.00000000
   4.88998523  2.94035405  0.00000000
   4.88998523 -2.94035405  0.00000000
   7.33497784  0.00000000  0.00000000
   2.44499261 -1.47017703  4.15000381
   4.88998523  1.47017703  4.15000381
   4.88998523 -4.41053108  4.15000381
   7.33497784 -1.47017703  4.15000381
   2.44499261  1.47017703  1.76168754
   4.88998523  4.41053108  1.76168754
   4.88998523 -1.47017703  1.76168754
   7.33497784  1.47017703  1.76168754
 


--------------------------------------------------------------------------------------------------------


 k-point   1 :   0.0000 0.0000 0.0000  plane waves:   10015
 k-point   2 :   0.1429 0.0000 0.0000  plane waves:    9978
 k-point   3 :   0.2857 0.0000 0.0000  plane waves:    9975
 k-point   4 :   0.4286-0.0000 0.0000  plane waves:    9966
 k-point   5 :   0.1429 0.1429 0.0000  plane waves:    9973
 k-point   6 :   0.2857 0.1429 0.0000  plane waves:    9956
 k-point   7 :   0.4286 0.1429 0.0000  plane waves:    9955
 k-point   8 :  -0.4286 0.1429 0.0000  plane waves:    9946
 k-point   9 :  -0.2857 0.1429 0.0000  plane waves:    9966
 k-point  10 :  -0.1429 0.1429 0.0000  plane waves:    9971
 k-point  11 :   0.2857 0.2857 0.0000  plane waves:    9967
 k-point  12 :   0.4286 0.2857 0.0000  plane waves:    9949
 k-point  13 :  -0.4286 0.2857 0.0000  plane waves:    9945
 k-point  14 :  -0.2857 0.2857 0.0000  plane waves:    9972
 k-point  15 :   0.4286 0.4286 0.0000  plane waves:    9944
 k-point  16 :  -0.4286 0.4286 0.0000  plane waves:    9944
 k-point  17 :   0.0000 0.0000 0.1111  plane waves:    9971
 k-point  18 :   0.1429 0.0000 0.1111  plane waves:    9980
 k-point  19 :   0.2857 0.0000 0.1111  plane waves:    9975
 k-point  20 :   0.4286-0.0000 0.1111  plane waves:    9976
 k-point  21 :   0.1429 0.1429 0.1111  plane waves:    9973
 k-point  22 :   0.2857 0.1429 0.1111  plane waves:    9963
 k-point  23 :   0.4286 0.1429 0.1111  plane waves:    9951
 k-point  24 :  -0.4286 0.1429 0.1111  plane waves:    9951
 k-point  25 :  -0.2857 0.1429 0.1111  plane waves:    9967
 k-point  26 :  -0.1429 0.1429 0.1111  plane waves:    9976
 k-point  27 :   0.2857 0.2857 0.1111  plane waves:    9958
 k-point  28 :   0.4286 0.2857 0.1111  plane waves:    9943
 k-point  29 :  -0.4286 0.2857 0.1111  plane waves:    9955
 k-point  30 :  -0.2857 0.2857 0.1111  plane waves:    9962
 k-point  31 :   0.4286 0.4286 0.1111  plane waves:    9951
 k-point  32 :  -0.4286 0.4286 0.1111  plane waves:    9946
 k-point  33 :   0.0000 0.0000 0.2222  plane waves:    9975
 k-point  34 :   0.1429 0.0000 0.2222  plane waves:    9987
 k-point  35 :   0.2857 0.0000 0.2222  plane waves:    9968
 k-point  36 :   0.4286-0.0000 0.2222  plane waves:    9957
 k-point  37 :   0.1429 0.1429 0.2222  plane waves:    9985
 k-point  38 :   0.2857 0.1429 0.2222  plane waves:    9960
 k-point  39 :   0.4286 0.1429 0.2222  plane waves:    9958
 k-point  40 :  -0.4286 0.1429 0.2222  plane waves:    9952
 k-point  41 :  -0.2857 0.1429 0.2222  plane waves:    9964
 k-point  42 :  -0.1429 0.1429 0.2222  plane waves:    9967
 k-point  43 :   0.2857 0.2857 0.2222  plane waves:    9954
 k-point  44 :   0.4286 0.2857 0.2222  plane waves:    9944
 k-point  45 :  -0.4286 0.2857 0.2222  plane waves:    9937
 k-point  46 :  -0.2857 0.2857 0.2222  plane waves:    9935
 k-point  47 :   0.4286 0.4286 0.2222  plane waves:    9954
 k-point  48 :  -0.4286 0.4286 0.2222  plane waves:    9940
 k-point  49 :   0.0000 0.0000 0.3333  plane waves:    9960
 k-point  50 :   0.1429 0.0000 0.3333  plane waves:    9957
 k-point  51 :   0.2857 0.0000 0.3333  plane waves:    9950
 k-point  52 :   0.4286-0.0000 0.3333  plane waves:    9952
 k-point  53 :   0.1429 0.1429 0.3333  plane waves:    9947
 k-point  54 :   0.2857 0.1429 0.3333  plane waves:    9958
 k-point  55 :   0.4286 0.1429 0.3333  plane waves:    9955
 k-point  56 :  -0.4286 0.1429 0.3333  plane waves:    9944
 k-point  57 :  -0.2857 0.1429 0.3333  plane waves:    9947
 k-point  58 :  -0.1429 0.1429 0.3333  plane waves:    9955
 k-point  59 :   0.2857 0.2857 0.3333  plane waves:    9968
 k-point  60 :   0.4286 0.2857 0.3333  plane waves:    9952
 k-point  61 :  -0.4286 0.2857 0.3333  plane waves:    9955
 k-point  62 :  -0.2857 0.2857 0.3333  plane waves:    9955
 k-point  63 :   0.4286 0.4286 0.3333  plane waves:    9962
 k-point  64 :  -0.4286 0.4286 0.3333  plane waves:    9962
 k-point  65 :   0.0000 0.0000 0.4444  plane waves:    9966
 k-point  66 :   0.1429 0.0000 0.4444  plane waves:    9961
 k-point  67 :   0.2857 0.0000 0.4444  plane waves:    9948
 k-point  68 :   0.4286-0.0000 0.4444  plane waves:    9941
 k-point  69 :   0.1429 0.1429 0.4444  plane waves:    9949
 k-point  70 :   0.2857 0.1429 0.4444  plane waves:    9959
 k-point  71 :   0.4286 0.1429 0.4444  plane waves:    9958
 k-point  72 :  -0.4286 0.1429 0.4444  plane waves:    9949
 k-point  73 :  -0.2857 0.1429 0.4444  plane waves:    9961
 k-point  74 :  -0.1429 0.1429 0.4444  plane waves:    9959
 k-point  75 :   0.2857 0.2857 0.4444  plane waves:    9960
 k-point  76 :   0.4286 0.2857 0.4444  plane waves:    9962
 k-point  77 :  -0.4286 0.2857 0.4444  plane waves:    9967
 k-point  78 :  -0.2857 0.2857 0.4444  plane waves:    9965
 k-point  79 :   0.4286 0.4286 0.4444  plane waves:    9967
 k-point  80 :  -0.4286 0.4286 0.4444  plane waves:    9982

 maximum and minimum number of plane-waves per node :     10015     9935

 maximum number of plane-waves:     10015
 maximum index in each direction: 
   IXMAX=   15   IYMAX=   14   IZMAX=   11
   IXMIN=  -15   IYMIN=  -15   IZMIN=  -11


 serial   3D FFT for wavefunctions
 parallel 3D FFT for charge:
    minimum data exchange during FFTs selected (reduces bandwidth)


 total amount of memory used by VASP MPI-rank0   197584. kBytes
=======================================================================

   base      :      30000. kBytes
   nonlr-proj:      12859. kBytes
   fftplans  :       3084. kBytes
   grid      :      19560. kBytes
   one-center:        497. kBytes
   wavefun   :     131584. kBytes
 
     INWAV:  cpu time      0.0000: real time      0.0002
 Broyden mixing: mesh for mixing (old mesh)
   NGX = 29   NGY = 29   NGZ = 23
  (NGX  =120   NGY  =120   NGZ  = 96)
  gives a total of  19343 points

 initial charge density was supplied:
 charge density of overlapping atoms calculated
 number of electron     160.0000000 magnetization      -0.0000000
 keeping initial charge density in first step


--------------------------------------------------------------------------------------------------------


 Maximum index for non-local projection operator         6313
 Maximum index for augmentation-charges         1085 (set IRDMAX)


--------------------------------------------------------------------------------------------------------


 First call to EWALD:  gamma=   0.254
 Maximum number of real-space cells 3x 3x 3
 Maximum number of reciprocal cells 3x 3x 2

    FEWALD:  cpu time      0.0016: real time      0.0016


--------------------------------------- Ionic step        1  -------------------------------------------




--------------------------------------- Iteration      1(   1)  ---------------------------------------


    POTLOK:  cpu time      0.0656: real time      0.0817
    SETDIJ:  cpu time      0.2725: real time      0.2735
     EDDAV:  cpu time     29.8994: real time     30.0580
       DOS:  cpu time      0.0027: real time      0.0027
    --------------------------------------------
      LOOP:  cpu time     30.2403: real time     30.4160

 eigenvalue-minimisations  : 36300
 total energy-change (2. order) : 0.1980069E+04  (-0.8878792E+04)
 number of electron     160.0000000 magnetization      -0.0000000
 augmentation part      160.0000000 magnetization      -0.0000000

 Free energy of the ion-electron system (eV)
  ---------------------------------------------------
  alpha Z        PSCENC =       746.91642729
  Ewald energy   TEWEN  =    -10551.64120583
  -Hartree energ DENC   =     -9618.81596737
  -exchange      EXHF   =         0.00000000
  -V(xc)+E(xc)   XCENC  =       563.77131143
  PAW double counting   =     15527.83286935   -16123.58730366
  entropy T*S    EENTRO =        -0.00926633
  eigenvalues    EBANDS =      -275.23841594
  atomic energy  EATOM  =     21710.84102437
  Solvation  Ediel_sol  =         0.00000000
  ---------------------------------------------------
  free energy    TOTEN  =      1980.06947333 eV

  energy without entropy =     1980.07873966  energy(sigma->0) =     1980.07410649


--------------------------------------------------------------------------------------------------------




--------------------------------------- Iteration      1(   2)  ---------------------------------------


     EDDAV:  cpu time     27.8253: real time     27.9694
       DOS:  cpu time      0.0021: real time      0.0021
    --------------------------------------------
      LOOP:  cpu time     27.8275: real time     27.9715

 eigenvalue-minimisations  : 32000
 total energy-change (2. order) :-0.1858203E+04  (-0.1805719E+04)
 number of electron     160.0000000 magnetization      -0.0000000
 augmentation part      160.0000000 magnetization      -0.0000000

 Free energy of the ion-electron system (eV)
  ---------------------------------------------------
  alpha Z        PSCENC =       746.91642729
  Ewald energy   TEWEN  =    -10551.64120583
  -Hartree energ DENC   =     -9618.81596737
  -exchange      EXHF   =         0.00000000
  -V(xc)+E(xc)   XCENC  =       563.77131143
  PAW double counting   =     15527.83286935   -16123.58730366
  entropy T*S    EENTRO =        -0.01637962
  eigenvalues    EBANDS =     -2133.43459017
  atomic energy  EATOM  =     21710.84102437
  Solvation  Ediel_sol  =         0.00000000
  ---------------------------------------------------
  free energy    TOTEN  =       121.86618581 eV

  energy without entropy =      121.88256543  energy(sigma->0) =      121.87437562


--------------------------------------------------------------------------------------------------------




--------------------------------------- Iteration      1(   3)  ---------------------------------------


     EDDAV:  cpu time     36.8185: real time     37.0573
       DOS:  cpu time      0.0022: real time      0.0022
    --------------------------------------------
      LOOP:  cpu time     36.8207: real time     37.0595

 eigenvalue-minimisations  : 46360
 total energy-change (2. order) :-0.2074606E+03  (-0.1849795E+03)
 number of electron     160.0000000 magnetization      -0.0000000
 augmentation part      160.0000000 magnetization      -0.0000000

 Free energy of the ion-electron system (eV)
  ---------------------------------------------------
  alpha Z        PSCENC =       746.91642729
  Ewald energy   TEWEN  =    -10551.64120583
  -Hartree energ DENC   =     -9618.81596737
  -exchange      EXHF   =         0.00000000
  -V(xc)+E(xc)   XCENC  =       563.77131143
  PAW double counting   =     15527.83286935   -16123.58730366
  entropy T*S    EENTRO =        -0.02683681
  eigenvalues    EBANDS =     -2340.88475287
  atomic energy  EATOM  =     21710.84102437
  Solvation  Ediel_sol  =         0.00000000
  ---------------------------------------------------
  free energy    TOTEN  =       -85.59443408 eV

  energy without entropy =      -85.56759727  energy(sigma->0) =      -85.58101568


--------------------------------------------------------------------------------------------------------




--------------------------------------- Iteration      1(   4)  ---------------------------------------


     EDDAV:  cpu time     37.3365: real time     37.5327
       DOS:  cpu time      0.0023: real time      0.0023
    --------------------------------------------
      LOOP:  cpu time     37.3387: real time     37.5350

 eigenvalue-minimisations  : 47620
 total energy-change (2. order) :-0.1496497E+02  (-0.1464356E+02)
 number of electron     160.0000000 magnetization      -0.0000000
 augmentation part      160.0000000 magnetization      -0.0000000

 Free energy of the ion-electron system (eV)
  ---------------------------------------------------
  alpha Z        PSCENC =       746.91642729
  Ewald energy   TEWEN  =    -10551.64120583
  -Hartree energ DENC   =     -9618.81596737
  -exchange      EXHF   =         0.00000000
  -V(xc)+E(xc)   XCENC  =       563.77131143
  PAW double counting   =     15527.83286935   -16123.58730366
  entropy T*S    EENTRO =        -0.03106070
  eigenvalues    EBANDS =     -2355.84549498
  atomic energy  EATOM  =     21710.84102437
  Solvation  Ediel_sol  =         0.00000000
  ---------------------------------------------------
  free energy    TOTEN  =      -100.55940008 eV

  energy without entropy =     -100.52833938  energy(sigma->0) =     -100.54386973


--------------------------------------------------------------------------------------------------------




--------------------------------------- Iteration      1(   5)  ---------------------------------------


     EDDAV:  cpu time     35.7958: real time     36.0316
       DOS:  cpu time      0.0022: real time      0.0022
    CHARGE:  cpu time      1.1133: real time      1.1196
    MIXING:  cpu time      0.0015: real time      0.0015
    --------------------------------------------
      LOOP:  cpu time     36.9128: real time     37.1549

 eigenvalue-minimisations  : 43960
 total energy-change (2. order) :-0.3334432E+00  (-0.3325415E+00)
 number of electron     160.0000106 magnetization      -0.0000000
 augmentation part       52.9815984 magnetization      -0.0000000

 Broyden mixing:
  rms(total) = 0.28218E+01    rms(broyden)= 0.28214E+01
  rms(prec ) = 0.44098E+01
  weight for this iteration     100.00

 Free energy of the ion-electron system (eV)
  ---------------------------------------------------
  alpha Z        PSCENC =       746.91642729
  Ewald energy   TEWEN  =    -10551.64120583
  -Hartree energ DENC   =     -9618.81596737
  -exchange      EXHF   =         0.00000000
  -V(xc)+E(xc)   XCENC  =       563.77131143
  PAW double counting   =     15527.83286935   -16123.58730366
  entropy T*S    EENTRO =        -0.03117501
  eigenvalues    EBANDS =     -2356.17882384
  atomic energy  EATOM  =     21710.84102437
  Solvation  Ediel_sol  =         0.00000000
  ---------------------------------------------------
  free energy    TOTEN  =      -100.89284326 eV

  energy without entropy =     -100.86166825  energy(sigma->0) =     -100.87725575


--------------------------------------------------------------------------------------------------------




--------------------------------------- Iteration      1(   6)  ---------------------------------------


    POTLOK:  cpu time      0.0833: real time      0.0839
    SETDIJ:  cpu time      0.2772: real time      0.2782
    EDDIAG:  cpu time      4.7381: real time      4.7613
  RMM-DIIS:  cpu time     17.0549: real time     17.1418
    ORTHCH:  cpu time      0.6097: real time      0.6123
       DOS:  cpu time      0.0021: real time      0.0021
    CHARGE:  cpu time      1.0316: real time      1.0393
    MIXING:  cpu time      0.0017: real time      0.0017
    --------------------------------------------
      LOOP:  cpu time     23.7987: real time     23.9206

 eigenvalue-minimisations  : 32111
 total energy-change (2. order) :-0.1284626E+02  (-0.1830767E+02)
 number of electron     160.0000140 magnetization      -0.0000000
 augmentation part       70.6192164 magnetization      -0.0000000

 Broyden mixing:
  rms(total) = 0.55712E+01    rms(broyden)= 0.55711E+01
  rms(prec ) = 0.86863E+01
  weight for this iteration     100.00

 eigenvalues of (default mixing * dielectric matrix)
  average eigenvalue GAMMA=   0.2888
  0.2888

 Free energy of the ion-electron system (eV)
  ---------------------------------------------------
  alpha Z        PSCENC =       746.91642729
  Ewald energy   TEWEN  =    -10551.64120583
  -Hartree energ DENC   =     -9142.19105554
  -exchange      EXHF   =         0.00000000
  -V(xc)+E(xc)   XCENC  =       551.85739804
  PAW double counting   =     14939.55896059   -15502.84172437
  entropy T*S    EENTRO =        -0.03976112
  eigenvalues    EBANDS =     -2866.19916226
  atomic energy  EATOM  =     21710.84102437
  Solvation  Ediel_sol  =         0.00000000
  ---------------------------------------------------
  free energy    TOTEN  =      -113.73909883 eV

  energy without entropy =     -113.69933771  energy(sigma->0) =     -113.71921827


--------------------------------------------------------------------------------------------------------




--------------------------------------- Iteration      1(   7)  ---------------------------------------


    POTLOK:  cpu time      0.0569: real time      0.1125
    SETDIJ:  cpu time      0.2713: real time      0.2723
    EDDIAG:  cpu time      4.4841: real time      4.5087
  RMM-DIIS:  cpu time     16.4959: real time     16.5799
    ORTHCH:  cpu time      0.6090: real time      0.6116
       DOS:  cpu time      0.0022: real time      0.0022
    CHARGE:  cpu time      1.0767: real time      1.0830
    MIXING:  cpu time      0.0017: real time      0.0017
    --------------------------------------------
      LOOP:  cpu time     22.9976: real time     23.1720

 eigenvalue-minimisations  : 32027
 total energy-change (2. order) : 0.2268853E+02  (-0.4711169E+01)
 number of electron     160.0000113 magnetization      -0.0000000
 augmentation part       57.6603959 magnetization      -0.0000000

 Broyden mixing:
  rms(total) = 0.12399E+01    rms(broyden)= 0.12392E+01
  rms(prec ) = 0.14970E+01
  weight for this iteration     100.00

 eigenvalues of (default mixing * dielectric matrix)
  average eigenvalue GAMMA=   0.4384
  0.6161  0.2608

 Free energy of the ion-electron system (eV)
  ---------------------------------------------------
  alpha Z        PSCENC =       746.91642729
  Ewald energy   TEWEN  =    -10551.64120583
  -Hartree energ DENC   =     -9437.02006444
  -exchange      EXHF   =         0.00000000
  -V(xc)+E(xc)   XCENC  =       556.89893586
  PAW double counting   =     15446.71486164   -16044.28594894
  entropy T*S    EENTRO =        -0.03508652
  eigenvalues    EBANDS =     -2519.43951567
  atomic energy  EATOM  =     21710.84102437
  Solvation  Ediel_sol  =         0.00000000
  ---------------------------------------------------
  free energy    TOTEN  =       -91.05057225 eV

  energy without entropy =      -91.01548572  energy(sigma->0) =      -91.03302898


--------------------------------------------------------------------------------------------------------




--------------------------------------- Iteration      1(   8)  ---------------------------------------


    POTLOK:  cpu time      0.0539: real time      0.0543
    SETDIJ:  cpu time      0.2765: real time      0.2775
    EDDIAG:  cpu time      4.6694: real time      4.6920
  RMM-DIIS:  cpu time     21.6450: real time     21.7563
    ORTHCH:  cpu time      0.6147: real time      0.6174
       DOS:  cpu time      0.0022: real time      0.0022
    CHARGE:  cpu time      1.1184: real time      1.1239
    MIXING:  cpu time      0.0018: real time      0.0018
    --------------------------------------------
      LOOP:  cpu time     28.3819: real time     28.5253

 eigenvalue-minimisations  : 41292
 total energy-change (2. order) :-0.6067340E+00  (-0.3174905E+00)
 number of electron     160.0000111 magnetization      -0.0000000
 augmentation part       58.2469868 magnetization      -0.0000000

 Broyden mixing:
  rms(total) = 0.60595E+00    rms(broyden)= 0.60559E+00
  rms(prec ) = 0.79304E+00
  weight for this iteration     100.00

 eigenvalues of (default mixing * dielectric matrix)
  average eigenvalue GAMMA=   0.6007
  0.7500  0.7500  0.3020

 Free energy of the ion-electron system (eV)
  ---------------------------------------------------
  alpha Z        PSCENC =       746.91642729
  Ewald energy   TEWEN  =    -10551.64120583
  -Hartree energ DENC   =     -9424.47205874
  -exchange      EXHF   =         0.00000000
  -V(xc)+E(xc)   XCENC  =       557.41542575
  PAW double counting   =     15488.82707778   -16093.29068699
  entropy T*S    EENTRO =        -0.02885166
  eigenvalues    EBANDS =     -2526.22445820
  atomic energy  EATOM  =     21710.84102437
  Solvation  Ediel_sol  =         0.00000000
  ---------------------------------------------------
  free energy    TOTEN  =       -91.65730622 eV

  energy without entropy =      -91.62845456  energy(sigma->0) =      -91.64288039


--------------------------------------------------------------------------------------------------------




--------------------------------------- Iteration      1(   9)  ---------------------------------------


    POTLOK:  cpu time      0.0844: real time      0.0850
    SETDIJ:  cpu time      0.2753: real time      0.2764
    EDDIAG:  cpu time      4.6825: real time      4.7077
  RMM-DIIS:  cpu time     21.8825: real time     22.0013
    ORTHCH:  cpu time      0.5972: real time      0.5998
       DOS:  cpu time      0.0022: real time      0.0022
    CHARGE:  cpu time      1.0554: real time      1.0612
    MIXING:  cpu time      0.0017: real time      0.0017
    --------------------------------------------
      LOOP:  cpu time     28.5814: real time     28.7353

 eigenvalue-minimisations  : 44092
 total energy-change (2. order) :-0.1120119E+00  (-0.9933996E-01)
 number of electron     160.0000108 magnetization      -0.0000000
 augmentation part       58.7320565 magnetization      -0.0000000

 Broyden mixing:
  rms(total) = 0.32581E+00    rms(broyden)= 0.32511E+00
  rms(prec ) = 0.39656E+00
  weight for this iteration     100.00

 eigenvalues of (default mixing * dielectric matrix)
  average eigenvalue GAMMA=   0.7824
  1.0783  1.0783  0.2949  0.6781

 Free energy of the ion-electron system (eV)
  ---------------------------------------------------
  alpha Z        PSCENC =       746.91642729
  Ewald energy   TEWEN  =    -10551.64120583
  -Hartree energ DENC   =     -9407.29398233
  -exchange      EXHF   =         0.00000000
  -V(xc)+E(xc)   XCENC  =       557.70262977
  PAW double counting   =     15560.42842573   -16171.27681190
  entropy T*S    EENTRO =        -0.01923127
  eigenvalues    EBANDS =     -2537.42659393
  atomic energy  EATOM  =     21710.84102437
  Solvation  Ediel_sol  =         0.00000000
  ---------------------------------------------------
  free energy    TOTEN  =       -91.76931809 eV

  energy without entropy =      -91.75008683  energy(sigma->0) =      -91.75970246


--------------------------------------------------------------------------------------------------------




--------------------------------------- Iteration      1(  10)  ---------------------------------------


    POTLOK:  cpu time      0.0547: real time      0.0999
    SETDIJ:  cpu time      0.2733: real time      0.2744
    EDDIAG:  cpu time      4.6666: real time      4.6887
  RMM-DIIS:  cpu time     25.0961: real time     25.2258
    ORTHCH:  cpu time      0.6003: real time      0.6032
       DOS:  cpu time      0.0022: real time      0.0022
    CHARGE:  cpu time      1.0880: real time      1.0933
    MIXING:  cpu time      0.0018: real time      0.0018
    --------------------------------------------
      LOOP:  cpu time     31.7831: real time     31.9893

 eigenvalue-minimisations  : 46282
 total energy-change (2. order) :-0.4058228E-01  (-0.3242276E-01)
 number of electron     160.0000108 magnetization      -0.0000000
 augmentation part       58.9288358 magnetization      -0.0000000

 Broyden mixing:
  rms(total) = 0.21526E+00    rms(broyden)= 0.21499E+00
  rms(prec ) = 0.24874E+00
  weight for this iteration     100.00

 eigenvalues of (default mixing * dielectric matrix)
  average eigenvalue GAMMA=   1.0279
  1.6613  1.6613  0.2956  0.7605  0.7605

 Free energy of the ion-electron system (eV)
  ---------------------------------------------------
  alpha Z        PSCENC =       746.91642729
  Ewald energy   TEWEN  =    -10551.64120583
  -Hartree energ DENC   =     -9401.35595074
  -exchange      EXHF   =         0.00000000
  -V(xc)+E(xc)   XCENC  =       557.70708771
  PAW double counting   =     15600.53033797   -16214.47302179
  entropy T*S    EENTRO =        -0.01687313
  eigenvalues    EBANDS =     -2540.31772622
  atomic energy  EATOM  =     21710.84102437
  Solvation  Ediel_sol  =         0.00000000
  ---------------------------------------------------
  free energy    TOTEN  =       -91.80990038 eV

  energy without entropy =      -91.79302724  energy(sigma->0) =      -91.80146381


--------------------------------------------------------------------------------------------------------




--------------------------------------- Iteration      1(  11)  ---------------------------------------


    POTLOK:  cpu time      0.1072: real time      0.1078
    SETDIJ:  cpu time      0.2726: real time      0.2735
    EDDIAG:  cpu time      4.5229: real time      4.5470
  RMM-DIIS:  cpu time     20.4988: real time     20.6091
    ORTHCH:  cpu time      0.6189: real time      0.6217
       DOS:  cpu time      0.0021: real time      0.0021
    CHARGE:  cpu time      1.0712: real time      1.0766
    MIXING:  cpu time      0.0019: real time      0.0019
    --------------------------------------------
      LOOP:  cpu time     27.0956: real time     27.2398

 eigenvalue-minimisations  : 39610
 total energy-change (2. order) : 0.5283452E-02  (-0.9447121E-02)
 number of electron     160.0000108 magnetization      -0.0000000
 augmentation part       58.8851889 magnetization      -0.0000000

 Broyden mixing:
  rms(total) = 0.96231E-01    rms(broyden)= 0.96096E-01
  rms(prec ) = 0.11663E+00
  weight for this iteration     100.00

 eigenvalues of (default mixing * dielectric matrix)
  average eigenvalue GAMMA=   1.0977
  1.8940  1.8940  0.2955  0.9112  0.9112  0.6805

 Free energy of the ion-electron system (eV)
  ---------------------------------------------------
  alpha Z        PSCENC =       746.91642729
  Ewald energy   TEWEN  =    -10551.64120583
  -Hartree energ DENC   =     -9399.22620691
  -exchange      EXHF   =         0.00000000
  -V(xc)+E(xc)   XCENC  =       557.89346624
  PAW double counting   =     15662.41086341   -16279.92226540
  entropy T*S    EENTRO =        -0.01588909
  eigenvalues    EBANDS =     -2539.06083102
  atomic energy  EATOM  =     21710.84102437
  Solvation  Ediel_sol  =         0.00000000
  ---------------------------------------------------
  free energy    TOTEN  =       -91.80461692 eV

  energy without entropy =      -91.78872783  energy(sigma->0) =      -91.79667238


--------------------------------------------------------------------------------------------------------




--------------------------------------- Iteration      1(  12)  ---------------------------------------


    POTLOK:  cpu time      0.0565: real time      0.0569
    SETDIJ:  cpu time      0.2759: real time      0.2770
    EDDIAG:  cpu time      4.7004: real time      4.7226
  RMM-DIIS:  cpu time     22.1177: real time     22.2321
    ORTHCH:  cpu time      0.6159: real time      0.6186
       DOS:  cpu time      0.0022: real time      0.0022
    CHARGE:  cpu time      1.0948: real time      1.1005
    MIXING:  cpu time      0.0020: real time      0.0020
    --------------------------------------------
      LOOP:  cpu time     28.8654: real time     29.0120

 eigenvalue-minimisations  : 42591
 total energy-change (2. order) :-0.1526365E-01  (-0.3782216E-02)
 number of electron     160.0000108 magnetization      -0.0000000
 augmentation part       58.9481942 magnetization      -0.0000000

 Broyden mixing:
  rms(total) = 0.56783E-01    rms(broyden)= 0.56774E-01
  rms(prec ) = 0.68058E-01
  weight for this iteration     100.00

 eigenvalues of (default mixing * dielectric matrix)
  average eigenvalue GAMMA=   1.0844
  2.1238  1.4310  1.4310  0.2955  0.8481  0.7654  0.6960

 Free energy of the ion-electron system (eV)
  ---------------------------------------------------
  alpha Z        PSCENC =       746.91642729
  Ewald energy   TEWEN  =    -10551.64120583
  -Hartree energ DENC   =     -9397.05646645
  -exchange      EXHF   =         0.00000000
  -V(xc)+E(xc)   XCENC  =       557.89956236
  PAW double counting   =     15672.34525992   -16290.56241718
  entropy T*S    EENTRO =        -0.01697962
  eigenvalues    EBANDS =     -2540.54508543
  atomic energy  EATOM  =     21710.84102437
  Solvation  Ediel_sol  =         0.00000000
  ---------------------------------------------------
  free energy    TOTEN  =       -91.81988057 eV

  energy without entropy =      -91.80290095  energy(sigma->0) =      -91.81139076


--------------------------------------------------------------------------------------------------------




--------------------------------------- Iteration      1(  13)  ---------------------------------------


    POTLOK:  cpu time      0.0562: real time      0.1045
    SETDIJ:  cpu time      0.2727: real time      0.2740
    EDDIAG:  cpu time      4.5568: real time      4.5804
  RMM-DIIS:  cpu time     21.6492: real time     21.7625
    ORTHCH:  cpu time      0.6223: real time      0.6251
       DOS:  cpu time      0.0022: real time      0.0022
    CHARGE:  cpu time      1.0749: real time      1.0806
    MIXING:  cpu time      0.0019: real time      0.0019
    --------------------------------------------
      LOOP:  cpu time     28.2362: real time     28.4311

 eigenvalue-minimisations  : 41224
 total energy-change (2. order) : 0.5492639E-03  (-0.1089427E-02)
 number of electron     160.0000108 magnetization       0.0000000
 augmentation part       58.9823282 magnetization       0.0000000

 Broyden mixing:
  rms(total) = 0.20117E-01    rms(broyden)= 0.20105E-01
  rms(prec ) = 0.24459E-01
  weight for this iteration     100.00

 eigenvalues of (default mixing * dielectric matrix)
  average eigenvalue GAMMA=   1.1354
  2.6525  1.4332  1.4332  0.2955  0.9613  0.9613  0.6861  0.6602

 Free energy of the ion-electron system (eV)
  ---------------------------------------------------
  alpha Z        PSCENC =       746.91642729
  Ewald energy   TEWEN  =    -10551.64120583
  -Hartree energ DENC   =     -9396.18302031
  -exchange      EXHF   =         0.00000000
  -V(xc)+E(xc)   XCENC  =       557.94834094
  PAW double counting   =     15674.85515185   -16293.36172612
  entropy T*S    EENTRO =        -0.01667717
  eigenvalues    EBANDS =     -2541.17764633
  atomic energy  EATOM  =     21710.84102437
  Solvation  Ediel_sol  =         0.00000000
  ---------------------------------------------------
  free energy    TOTEN  =       -91.81933131 eV

  energy without entropy =      -91.80265414  energy(sigma->0) =      -91.81099272


--------------------------------------------------------------------------------------------------------




--------------------------------------- Iteration      1(  14)  ---------------------------------------


    POTLOK:  cpu time      0.0811: real time      0.0816
    SETDIJ:  cpu time      0.2738: real time      0.2747
    EDDIAG:  cpu time      4.7068: real time      4.7298
  RMM-DIIS:  cpu time     18.2687: real time     18.3636
    ORTHCH:  cpu time      0.6142: real time      0.6167
       DOS:  cpu time      0.0022: real time      0.0022
    CHARGE:  cpu time      1.0898: real time      1.0956
    MIXING:  cpu time      0.0019: real time      0.0020
    --------------------------------------------
      LOOP:  cpu time     25.0385: real time     25.1663

 eigenvalue-minimisations  : 35125
 total energy-change (2. order) : 0.9735494E-04  (-0.3217679E-03)
 number of electron     160.0000108 magnetization      -0.0000000
 augmentation part       59.0029201 magnetization      -0.0000000

 Broyden mixing:
  rms(total) = 0.10877E-01    rms(broyden)= 0.10866E-01
  rms(prec ) = 0.13074E-01
  weight for this iteration     100.00

 eigenvalues of (default mixing * dielectric matrix)
  average eigenvalue GAMMA=   1.1437
  2.6225  1.3751  1.3751  1.4676  0.2955  0.8882  0.8882  0.7483  0.6328

 Free energy of the ion-electron system (eV)
  ---------------------------------------------------
  alpha Z        PSCENC =       746.91642729
  Ewald energy   TEWEN  =    -10551.64120583
  -Hartree energ DENC   =     -9395.84053699
  -exchange      EXHF   =         0.00000000
  -V(xc)+E(xc)   XCENC  =       557.96197657
  PAW double counting   =     15675.16349374   -16293.74477865
  entropy T*S    EENTRO =        -0.01650935
  eigenvalues    EBANDS =     -2541.45912510
  atomic energy  EATOM  =     21710.84102437
  Solvation  Ediel_sol  =         0.00000000
  ---------------------------------------------------
  free energy    TOTEN  =       -91.81923395 eV

  energy without entropy =      -91.80272460  energy(sigma->0) =      -91.81097928


--------------------------------------------------------------------------------------------------------




--------------------------------------- Iteration      1(  15)  ---------------------------------------


    POTLOK:  cpu time      0.0545: real time      0.0549
    SETDIJ:  cpu time      0.2740: real time      0.2750
    EDDIAG:  cpu time      4.6348: real time      4.6597
  RMM-DIIS:  cpu time     11.5663: real time     11.6273
    ORTHCH:  cpu time      0.6194: real time      0.6222
       DOS:  cpu time      0.0021: real time      0.0021
    --------------------------------------------
      LOOP:  cpu time     17.1511: real time     17.2412

 eigenvalue-minimisations  : 21509
 total energy-change (2. order) :-0.4188128E-04  (-0.5765840E-04)
 number of electron     160.0000108 magnetization      -0.0000000
 augmentation part       59.0029201 magnetization      -0.0000000

 Free energy of the ion-electron system (eV)
  ---------------------------------------------------
  alpha Z        PSCENC =       746.91642729
  Ewald energy   TEWEN  =    -10551.64120583
  -Hartree energ DENC   =     -9396.15061047
  -exchange      EXHF   =         0.00000000
  -V(xc)+E(xc)   XCENC  =       557.95574935
  PAW double counting   =     15675.86585612   -16294.37813465
  entropy T*S    EENTRO =        -0.01654111
  eigenvalues    EBANDS =     -2541.21184091
  atomic energy  EATOM  =     21710.84102437
  Solvation  Ediel_sol  =         0.00000000
  ---------------------------------------------------
  free energy    TOTEN  =       -91.81927583 eV

  energy without entropy =      -91.80273472  energy(sigma->0) =      -91.81100528


--------------------------------------------------------------------------------------------------------




 average (electrostatic) potential at core
  the test charge radii are     0.9500  1.0808
  (the norm of the test charge is              1.0000)
       1 -48.1961       2 -48.1961       3 -48.1961       4 -48.1961       5 -48.1961
       6 -48.1961       7 -48.1961       8 -48.1961       9 -55.5543      10 -55.5543
      11 -55.5543      12 -55.5543      13 -55.5543      14 -55.5543      15 -55.5543
      16 -55.5543
 
 
 
 E-fermi :   3.0485     XC(G=0):  -9.9401     alpha+bet : -8.5580

 Fermi energy:         3.0484749751

 spin component 1

 k-point     1 :       0.0000    0.0000    0.0000
  band No.  band energies     occupation 
      1     -51.8903      1.00000
      2     -51.8855      1.00000
      3     -51.8855      1.00000
      4     -51.8825      1.00000
      5     -51.7156      1.00000
      6     -51.6691      1.00000
      7     -51.6660      1.00000
      8     -51.6660      1.00000
      9     -51.6612      1.00000
     10     -51.5724      1.00000
     11     -51.5724      1.00000
     12     -51.4272      1.00000
     13     -48.9363      1.00000
     14     -48.9351      1.00000
     15     -48.9351      1.00000
     16     -48.9351      1.00000
     17     -48.8980      1.00000
     18     -48.7384      1.00000
     19     -48.7384      1.00000
     20     -48.5851      1.00000
     21     -48.5851      1.00000
     22     -48.5848      1.00000
     23     -48.5837      1.00000
     24     -48.5761      1.00000
     25     -10.8314      1.00000
     26      -9.9186      1.00000
     27      -9.9186      1.00000
     28      -9.9020      1.00000
     29      -9.9020      1.00000
     30      -9.6359      1.00000
     31      -9.6030      1.00000
[...]
         0         1         2         3         4         5         6         7         8         9
 total charge-density along one line
 
 soft charge-density along one line, spin component           2
         0         1         2         3         4         5         6         7         8         9
 total charge-density along one line
 
 pseudopotential strength for first ion, spin component:           1
-55.842   0.073  -0.000  28.858  -0.057   0.000  -0.000   0.000
  0.073 -55.889  -0.000  -0.057  28.893   0.000  -0.000   0.000
 -0.000  -0.000 -55.722   0.000   0.000  28.763   0.000  -0.000
 28.858  -0.057   0.000 -10.461   0.041  -0.000   0.000  -0.000
 -0.057  28.893   0.000   0.041 -10.486  -0.000   0.000  -0.000
  0.000   0.000  28.763  -0.000  -0.000 -10.398  -0.000   0.000
 -0.000  -0.000   0.000   0.000   0.000  -0.000  -9.440  -0.000
  0.000   0.000  -0.000  -0.000  -0.000   0.000  -0.000  -9.210
 -0.000   0.000   0.000   0.000  -0.000  -0.000   0.000   0.009
 -0.000  -0.000   0.000   0.000   0.000  -0.000  -0.021  -0.000
 -0.000  -0.000  -0.000   0.000   0.000   0.000  -0.000  -0.104
  0.000   0.000  -0.000  -0.000  -0.000   0.000   0.059   0.000
 -0.000  -0.000   0.000   0.000   0.000  -0.000   0.000   0.004
  0.000  -0.000  -0.000  -0.000   0.000   0.000  -0.000  -0.002
  0.000   0.000  -0.000  -0.000  -0.000   0.000   0.004   0.000
  0.000   0.000   0.000  -0.000  -0.000  -0.000   0.000   0.025
 -0.000  -0.000   0.000   0.000   0.000  -0.000   0.000  -0.017
  0.000   0.000  -0.000  -0.000  -0.000   0.000  -0.000   0.003
 pseudopotential strength for first ion, spin component:           2
-53.583   0.109  -0.000  27.132  -0.078   0.000  -0.000   0.000
  0.109 -53.590  -0.000  -0.078  27.135   0.000  -0.000   0.000
 -0.000  -0.000 -53.571   0.000   0.000  27.115   0.000  -0.000
 27.132  -0.078   0.000  -9.240   0.058  -0.000   0.000  -0.000
 -0.078  27.135   0.000   0.058  -9.244  -0.000   0.000  -0.000
  0.000   0.000  27.115  -0.000  -0.000  -9.232  -0.000   0.000
 -0.000  -0.000   0.000   0.000   0.000  -0.000  -7.224  -0.000
  0.000   0.000  -0.000  -0.000  -0.000   0.000  -0.000  -7.621
 -0.000   0.000   0.000   0.000  -0.000  -0.000   0.000   0.068
 -0.000  -0.000   0.000   0.000   0.000  -0.000   0.122  -0.000
 -0.000  -0.000  -0.000   0.000   0.000   0.000  -0.000   0.001
  0.000   0.000  -0.000  -0.000  -0.000   0.000  -0.457   0.000
 -0.000  -0.000   0.000   0.000   0.000  -0.000   0.000  -0.366
  0.000  -0.000  -0.000  -0.000   0.000   0.000  -0.000  -0.014
  0.000   0.000  -0.000  -0.000  -0.000   0.000  -0.026   0.000
  0.000   0.000   0.000  -0.000  -0.000  -0.000   0.000  -0.002
 -0.000  -0.000   0.000   0.000   0.000  -0.000   0.000  -0.012
  0.000   0.000  -0.000  -0.000  -0.000   0.000  -0.000   0.003
 total augmentation occupancy for first ion, spin component:           1
  2.009  -0.020  -0.000   0.055  -0.049  -0.000  -0.000   0.000  -0.000   0.000   0.000  -0.000  -0.000   0.000   0.000   0.000
 -0.020   2.012   0.000  -0.049   0.062  -0.000  -0.000   0.000   0.000   0.000   0.000  -0.000   0.000   0.000  -0.000   0.000
  0.000  -0.000   2.007  -0.000   0.000   0.048   0.000  -0.000  -0.000   0.000  -0.000  -0.000   0.000  -0.000   0.000   0.000
  0.055  -0.049   0.000   0.194  -0.118  -0.000   0.000  -0.000   0.000  -0.000   0.000  -0.000  -0.000  -0.000  -0.000  -0.000
 -0.049   0.062  -0.000  -0.118   0.211  -0.000   0.000   0.000  -0.000  -0.000   0.000   0.000   0.000  -0.000  -0.000   0.000
 -0.000   0.000   0.048   0.000   0.000   0.170  -0.000  -0.000   0.000  -0.000   0.000  -0.000  -0.000   0.000  -0.000   0.000
 -0.000  -0.000   0.000   0.000   0.000  -0.000   1.221   0.000  -0.000  -0.094   0.000  -0.093   0.000  -0.000  -0.055   0.000
 -0.000  -0.000  -0.000   0.000  -0.000  -0.000  -0.000   1.488   0.021   0.000  -0.093   0.000   0.079  -0.131   0.000   0.108
  0.000   0.000  -0.000   0.000   0.000   0.000   0.000   0.021   1.305   0.000  -0.188   0.000  -0.133   0.017   0.000  -0.088
  0.000   0.000  -0.000  -0.000  -0.000   0.000  -0.094  -0.000   0.000   1.180  -0.000  -0.057  -0.000  -0.000  -0.075  -0.000
  0.000   0.000  -0.000  -0.000  -0.000   0.000   0.000  -0.093  -0.188  -0.000   1.502   0.000   0.112  -0.086  -0.000   0.116
 -0.000  -0.000  -0.000  -0.000   0.000   0.000  -0.093  -0.000  -0.000  -0.057   0.000   0.156   0.000   0.000  -0.030  -0.000
  0.000  -0.000   0.000  -0.000   0.000  -0.000   0.000   0.079  -0.133   0.000   0.112   0.000   0.248  -0.068   0.000   0.091
  0.000  -0.000   0.000   0.000   0.000   0.000   0.000  -0.131   0.017  -0.000  -0.086   0.000  -0.068   0.162   0.000  -0.004
  0.000  -0.000   0.000  -0.000  -0.000  -0.000  -0.055  -0.000   0.000  -0.075  -0.000  -0.030   0.000   0.000   0.155   0.000
  0.000  -0.000   0.000  -0.000   0.000   0.000  -0.000   0.108  -0.088  -0.000   0.116  -0.000   0.091  -0.004   0.000   0.137
  0.000  -0.000   0.000   0.000  -0.000   0.000  -0.000  -0.019  -0.021   0.000   0.086   0.000  -0.344   0.031  -0.000  -0.019
  0.000   0.000  -0.000  -0.000   0.000   0.000  -0.000  -0.003   0.016   0.000  -0.020   0.000   0.021  -0.004  -0.000   0.004
 total augmentation occupancy for first ion, spin component:           2
 -0.006   0.000  -0.000  -0.003  -0.000   0.000   0.000   0.000   0.000   0.000   0.000   0.000   0.000   0.000   0.000   0.000
  0.000  -0.009   0.000  -0.000  -0.009  -0.000   0.000   0.000   0.000   0.000  -0.000  -0.000   0.000   0.000  -0.000  -0.000
  0.000  -0.000  -0.008   0.000   0.000  -0.006  -0.000  -0.000  -0.000   0.000   0.000  -0.000   0.000   0.000  -0.000   0.000
 -0.003  -0.000   0.000   0.015  -0.002   0.000   0.000  -0.000  -0.000   0.000   0.000   0.000   0.000   0.000   0.000  -0.000
 -0.000  -0.009  -0.000  -0.002   0.000   0.000   0.000   0.000   0.000  -0.000   0.000   0.000   0.000  -0.000   0.000   0.000
 -0.000   0.000  -0.006   0.000   0.000   0.008   0.000  -0.000   0.000   0.000   0.000   0.000   0.000  -0.000   0.000   0.000
  0.000   0.000   0.000   0.000   0.000  -0.000   0.736   0.000  -0.000   0.109   0.000  -0.273  -0.000  -0.000   0.011  -0.000
  0.000   0.000  -0.000   0.000   0.000  -0.000   0.000   0.367   0.058   0.000   0.037   0.000  -0.209   0.003  -0.000  -0.035
  0.000  -0.000  -0.000   0.000   0.000   0.000  -0.000   0.058   0.565  -0.000   0.242   0.000   0.000  -0.229  -0.000  -0.037
  0.000   0.000   0.000   0.000  -0.000   0.000   0.109   0.000  -0.000   0.752  -0.000   0.013  -0.000   0.000  -0.273   0.000
  0.000   0.000   0.000   0.000   0.000   0.000  -0.000   0.037   0.242  -0.000   0.269  -0.000  -0.019  -0.031  -0.000  -0.161
  0.000  -0.000   0.000   0.000   0.000   0.000  -0.273   0.000   0.000   0.013   0.000   0.057   0.000   0.000   0.004   0.000
 -0.000   0.000  -0.000   0.000  -0.000   0.000  -0.000  -0.209   0.000   0.000  -0.019  -0.000   0.010   0.021   0.000  -0.002
 -0.000  -0.000   0.000   0.000   0.000  -0.000   0.000   0.003  -0.229  -0.000  -0.031  -0.000   0.021   0.023  -0.000   0.015
  0.000  -0.000   0.000   0.000   0.000  -0.000   0.011   0.000   0.000  -0.273  -0.000   0.004  -0.000  -0.000   0.044  -0.000
  0.000   0.000   0.000  -0.000   0.000   0.000  -0.000  -0.035  -0.037   0.000  -0.161  -0.000  -0.002   0.015  -0.000  -0.005
  0.000   0.000   0.000  -0.000   0.000   0.000  -0.000   0.132   0.010   0.000  -0.046  -0.000  -0.040   0.004   0.000  -0.029
 -0.000   0.000   0.000   0.000   0.000   0.000   0.000   0.009   0.017  -0.000  -0.022   0.000  -0.003  -0.001   0.000   0.001


------------------------ aborting loop because EDIFF is reached ----------------------------------------





 total charge

# of ion       s       p       d       tot
------------------------------------------
    1        0.339   6.289   6.040  12.668
    2        0.339   6.289   6.040  12.668
    3        0.339   6.289   6.040  12.668
    4        0.339   6.289   6.040  12.668
    5        0.339   6.289   6.040  12.668
    6        0.339   6.289   6.040  12.668
    7        0.339   6.289   6.040  12.668
    8        0.339   6.289   6.040  12.668
    9        1.483   2.280   0.046   3.809
   10        1.483   2.280   0.046   3.809
   11        1.483   2.280   0.046   3.809
   12        1.483   2.280   0.046   3.809
   13        1.483   2.280   0.046   3.809
   14        1.483   2.280   0.046   3.809
   15        1.483   2.280   0.046   3.809
   16        1.483   2.280   0.046   3.809
--------------------------------------------------
tot         14.576  68.551  48.688 131.815



 magnetization (x)

# of ion       s       p       d       tot
------------------------------------------
    1        0.030   0.011   2.621   2.662
    2       -0.030  -0.011  -2.621  -2.662
    3       -0.030  -0.011  -2.621  -2.662
    4        0.030   0.011   2.621   2.662
    5        0.030   0.011   2.621   2.662
    6       -0.030  -0.011  -2.621  -2.662
    7       -0.030  -0.011  -2.621  -2.662
    8        0.030   0.011   2.621   2.662
    9        0.000   0.000   0.000   0.000
   10        0.000   0.000   0.000   0.000
   11        0.000   0.000   0.000   0.000
   12        0.000   0.000   0.000   0.000
   13        0.000   0.000   0.000   0.000
   14        0.000   0.000   0.000   0.000
   15        0.000   0.000   0.000   0.000
   16        0.000   0.000   0.000   0.000
--------------------------------------------------
tot         -0.000   0.000   0.000   0.000
 
    CHARGE:  cpu time      1.0590: real time      1.0655
    FORLOC:  cpu time      0.0031: real time      0.0031
    FORNL :  cpu time      6.7762: real time      6.8108
    STRESS:  cpu time     20.8744: real time     20.9832
    FORCOR:  cpu time      0.0535: real time      0.0538
    FORHAR:  cpu time      0.0071: real time      0.0072
    MIXING:  cpu time      0.0014: real time      0.0015
    OFIELD:  cpu time      0.0000: real time      0.0000
    FORVDW:  cpu time      0.7038: real time      0.7062

  FORCE on cell =-STRESS in cart. coord.  units (eV):
  Direction    XX          YY          ZZ          XY          YZ          ZX
  --------------------------------------------------------------------------------------
  Alpha Z   746.91643   746.91643   746.91643
  Ewald    -519.18337 -1285.21178 -8750.76423    -0.00000    -0.00000    -0.00000
  Hartree  5872.58030  5103.76942 -1582.93523     0.00000     0.00000    -0.00000
  E(xc)    -896.24255  -897.90605  -897.45343    -0.00000     0.00000     0.00000
  Local   -7159.02102 -5620.79592  8545.29098     0.00000    -0.00000     0.00000
  n-local  -272.11897  -244.77706  -237.14456    -1.19672    -0.20999    -0.55797
  augment   531.36292   516.72160   516.00586     0.00000    -0.00000     0.00000
  Kinetic  1697.75290  1683.32920  1662.20793     3.64050    -0.10216     0.04267
  Fock        0.00000     0.00000     0.00000     0.00000     0.00000     0.00000
  vdW        -5.90612    -6.00636    -6.07658    -0.00000    -0.00000     0.00000
  -------------------------------------------------------------------------------------
  Total      -3.85948    -3.96052    -3.95282     0.00000     0.00000     0.00000
  in kB     -18.18698   -18.66312   -18.62683     0.00000     0.00000     0.00000
  external pressure =      -18.49 kB  Pullay stress =        0.00 kB


 VOLUME and BASIS-vectors are now :
 -----------------------------------------------------------------------------
  energy-cutoff  :      550.00
  volume of cell :      340.00
      direct lattice vectors                 reciprocal lattice vectors
     4.895805536 -5.878733708  0.000000000     0.102128239 -0.085052330 -0.000000000
     4.895805536  5.878733708  0.000000000     0.102128239  0.085052330  0.000000000
     0.000000000 -0.000000000  5.906646419     0.000000000  0.000000000  0.169300806

  length of vectors
     7.650387040  7.650387040  5.906646419     0.132906268  0.132906268  0.169300806


 FORCES acting on ions
    electron-ion (+dipol)            ewald-force                    non-local-force                 convergence-correction
 -----------------------------------------------------------------------------------------------
   0.984E-13 -.155E-12 0.577E-13   -.711E-14 -.675E-13 0.711E-14   0.143E-21 0.457E-22 0.134E-21   -.127E-11 0.396E-12 0.244E-11
   0.833E-12 0.737E-12 0.866E-13   -.270E-13 -.675E-13 -.213E-13   0.462E-22 0.190E-21 -.897E-24   0.153E-12 0.288E-11 0.218E-12
   0.613E-12 -.158E-11 -.120E-10   0.146E-13 -.568E-13 0.000E+00   0.141E-21 0.146E-21 -.878E-23   0.926E-12 -.442E-11 0.103E-11
   -.487E-11 -.959E-11 -.888E-11   -.711E-14 -.568E-13 -.355E-14   0.550E-22 -.135E-21 0.317E-23   0.120E-11 -.367E-11 0.273E-11
   -.264E-11 -.388E-11 -.371E-11   -.103E-13 0.131E-12 0.373E-13   -.115E-21 0.309E-22 -.486E-23   0.402E-12 0.153E-11 0.107E-11
   0.427E-11 0.581E-11 -.437E-11   0.213E-13 0.117E-12 0.391E-13   -.208E-21 -.820E-22 -.324E-23   0.239E-14 0.131E-11 0.789E-12
   -.142E-10 -.296E-10 0.378E-10   -.213E-13 0.110E-12 0.320E-13   -.424E-22 -.226E-21 0.151E-22   -.791E-12 0.225E-11 -.125E-11
   0.105E-11 -.669E-11 0.358E-10   0.157E-13 0.114E-12 0.284E-13   -.222E-21 -.936E-22 0.639E-22   0.394E-13 0.529E-12 0.318E-11
   0.229E-07 0.275E-11 0.358E+03   -.112E-13 -.249E-13 -.359E+03   0.255E-17 0.210E-18 0.109E+01   -.383E-13 0.633E-13 -.170E-01
   0.229E-07 0.207E-12 0.358E+03   -.142E-13 -.216E-13 -.359E+03   -.347E-17 0.747E-18 0.109E+01   -.376E-12 0.125E-12 -.170E-01
   0.229E-07 -.333E-11 0.358E+03   -.142E-13 -.284E-13 -.359E+03   0.172E-17 0.110E-17 0.109E+01   0.665E-12 0.546E-12 -.170E-01
   0.229E-07 0.293E-11 0.358E+03   -.408E-14 0.000E+00 -.359E+03   -.170E-17 -.105E-17 0.109E+01   0.731E-14 -.526E-12 -.170E-01
   -.229E-07 -.432E-12 -.358E+03   0.154E-13 -.322E-13 0.359E+03   0.658E-18 -.274E-17 -.109E+01   0.273E-12 -.185E-12 0.170E-01
   -.229E-07 -.348E-12 -.358E+03   0.213E-13 -.277E-13 0.359E+03   -.168E-18 -.982E-18 -.109E+01   0.805E-13 0.176E-12 0.170E-01
   -.229E-07 -.123E-12 -.358E+03   0.212E-13 -.289E-13 0.359E+03   -.236E-18 0.163E-17 -.109E+01   -.144E-12 0.410E-12 0.170E-01
   -.229E-07 0.155E-12 -.358E+03   0.137E-13 -.282E-13 0.359E+03   0.507E-19 0.178E-17 -.109E+01   -.676E-13 -.250E-12 0.170E-01
 -----------------------------------------------------------------------------------------------
   -.190E-10 -.432E-10 0.319E-10   0.661E-14 0.320E-13 -.171E-12   -.601E-18 0.691E-18 0.000E+00   0.106E-11 0.117E-11 0.705E-11
 
 
 POSITION                                       TOTAL-FORCE (eV/Angst)
 -----------------------------------------------------------------------------------
      0.00000     -0.00000      0.00000        -0.000000     -0.000000      0.000000
      2.44790      2.93937      0.00000        -0.000000     -0.000000      0.000000
      2.44790     -2.93937      0.00000        -0.000000     -0.000000      0.000000
      4.89581     -0.00000      0.00000        -0.000000     -0.000000      0.000000
      2.44790     -0.00000      0.00000        -0.000000     -0.000000      0.000000
      4.89581      2.93937      0.00000        -0.000000     -0.000000      0.000000
      4.89581     -2.93937      0.00000        -0.000000     -0.000000      0.000000
      7.34371      0.00000      0.00000        -0.000000     -0.000000      0.000000
      2.44790     -1.46968      4.14779         0.000000      0.000000     -0.006652
      4.89581      1.46968      4.14779        -0.000000      0.000000     -0.006652
      4.89581     -4.40905      4.14779         0.000000      0.000000     -0.006652
      7.34371     -1.46968      4.14779        -0.000000      0.000000     -0.006652
      2.44790      1.46968      1.75886        -0.000000     -0.000000      0.006652
      4.89581      4.40905      1.75886        -0.000000     -0.000000      0.006652
      4.89581     -1.46968      1.75886         0.000000     -0.000000      0.006652
      7.34371      1.46968      1.75886         0.000000     -0.000000      0.006652
 -----------------------------------------------------------------------------------
    total drift:                               -0.000000     -0.000000      0.000000


--------------------------------------------------------------------------------------------------------



  FREE ENERGIE OF THE ION-ELECTRON SYSTEM (eV)
  ---------------------------------------------------
  free  energy   TOTEN  =       -98.04893990 eV

  energy  without entropy=      -98.03281032  energy(sigma->0) =      -98.04087511
 
 d Force =-0.3300102E-05[-0.372E-05,-0.288E-05]  d Energy =-0.1385351E-04 0.106E-04
 d Force =-0.2005997E+00[-0.201E+00,-0.201E+00]  d Ewald  = 0.1828009E+00-0.383E+00


--------------------------------------------------------------------------------------------------------


    POTLOK:  cpu time      0.3345: real time      0.3358


--------------------------------------------------------------------------------------------------------




--------------------------------------------------------------------------------------------------------


  
 reached required accuracy - stopping structural energy minimisation
     LOOP+:  cpu time     70.3057: real time     71.1472
    4ORBIT:  cpu time      0.0000: real time      0.0000



 total charge

# of ion       s       p       d       tot
------------------------------------------
    1        0.339   6.289   6.040  12.668
    2        0.339   6.289   6.040  12.668
    3        0.339   6.289   6.040  12.668
    4        0.339   6.289   6.040  12.668
    5        0.339   6.289   6.040  12.668
    6        0.339   6.289   6.040  12.668
    7        0.339   6.289   6.040  12.668
    8        0.339   6.289   6.040  12.668
    9        1.483   2.280   0.046   3.809
   10        1.483   2.280   0.046   3.809
   11        1.483   2.280   0.046   3.809
   12        1.483   2.280   0.046   3.809
   13        1.483   2.280   0.046   3.809
   14        1.483   2.280   0.046   3.809
   15        1.483   2.280   0.046   3.809
   16        1.483   2.280   0.046   3.809
--------------------------------------------------
tot         14.576  68.551  48.688 131.815



 magnetization (x)

# of ion       s       p       d       tot
------------------------------------------
    1        0.030   0.011   2.621   2.662
    2       -0.030  -0.011  -2.621  -2.662
    3       -0.030  -0.011  -2.621  -2.662
    4        0.030   0.011   2.621   2.662
    5        0.030   0.011   2.621   2.662
    6       -0.030  -0.011  -2.621  -2.662
    7       -0.030  -0.011  -2.621  -2.662
    8        0.030   0.011   2.621   2.662
    9        0.000   0.000   0.000   0.000
   10        0.000   0.000   0.000   0.000
   11        0.000   0.000   0.000   0.000
   12        0.000   0.000   0.000   0.000
   13        0.000   0.000   0.000   0.000
   14        0.000   0.000   0.000   0.000
   15        0.000   0.000   0.000   0.000
   16        0.000   0.000   0.000   0.000
--------------------------------------------------
tot         -0.000   0.000   0.000   0.000
 

 total amount of memory used by VASP MPI-rank0   197584. kBytes
=======================================================================

   base      :      30000. kBytes
   nonlr-proj:      12859. kBytes
   fftplans  :       3084. kBytes
   grid      :      19560. kBytes
   one-center:        497. kBytes
   wavefun   :     131584. kBytes
 
  
  
 General timing and accounting informations for this job:
 ========================================================
  
                  Total CPU time used (sec):      710.286
                            User time (sec):      707.559
                          System time (sec):        2.727
                         Elapsed time (sec):      715.889
  
                   Maximum memory used (kb):      482120.
                   Average memory used (kb):          N/A
  
                          Minor page faults:       227980
                          Major page faults:            0
                 Voluntary context switches:        38075
