unknown system                          
           1
     4.895806   -5.878734    0.000000
     4.895806    5.878734    0.000000
     0.000000    0.000000    5.906646
   Fe   Se
     8     8
unknown system                          
           1
     4.895806   -5.878734    0.000000
     4.895806    5.878734    0.000000
     0.000000    0.000000    5.906646
   Fe   Se
     8     8
Direct configuration=     1
   0.00000000  0.00000000  0.00000000
   0.00000000  0.50000000  0.00000000
   0.50000000  0.00000000  0.00000000
   0.50000000  0.50000000  0.00000000
   0.25000000  0.25000000  0.00000000
   0.25000000  0.75000000  0.00000000
   0.75000000  0.25000000  0.00000000
   0.75000000  0.75000000  0.00000000
   0.37500000  0.12500000  0.70222405
   0.37500000  0.62500000  0.70222405
   0.87500000  0.12500000  0.70222405
   0.87500000  0.62500000  0.70222405
   0.12500000  0.37500000  0.29777595
   0.12500000  0.87500000  0.29777595
   0.62500000  0.37500000  0.29777595
   0.62500000  0.87500000  0.29777595
