       N       E                     dE             d eps       ncg     rms          rms(c)
DAV:   1     0.173066490469E+04    0.17307E+04   -0.92119E+04 32256   0.234E+03
DAV:   2     0.129362514146E+02   -0.17177E+04   -0.16892E+04 32384   0.596E+02
DAV:   3    -0.101746989860E+03   -0.11468E+03   -0.11337E+03 43072   0.157E+02
DAV:   4    -0.104298271468E+03   -0.25513E+01   -0.25494E+01 32544   0.245E+01
DAV:   5    -0.104356663216E+03   -0.58392E-01   -0.58386E-01 41056   0.391E+00    0.355E+01
DAV:   6    -0.113420721788E+03   -0.90641E+01   -0.25743E+02 38432   0.887E+01    0.730E+01
DAV:   7    -0.107113991518E+03    0.63067E+01   -0.45088E+02 43424   0.751E+01    0.550E+01
DAV:   8    -0.939385916419E+02    0.13175E+02   -0.69943E+01 44192   0.521E+01    0.210E+01
DAV:   9    -0.101451148322E+03   -0.75126E+01   -0.12958E+02 43680   0.355E+01    0.478E+01
DAV:  10    -0.925212231445E+02    0.89299E+01   -0.51074E+01 45568   0.310E+01    0.120E+01
DAV:  11    -0.929787398331E+02   -0.45752E+00   -0.93279E+00 42912   0.129E+01    0.121E+01
DAV:  12    -0.927667123726E+02    0.21203E+00   -0.65651E+00 43264   0.111E+01    0.675E+00
DAV:  13    -0.931375428202E+02   -0.37083E+00   -0.59275E+00 43200   0.107E+01    0.106E+01
DAV:  14    -0.926898257890E+02    0.44772E+00   -0.54299E+00 43968   0.981E+00    0.304E+00
DAV:  15    -0.927419387338E+02   -0.52113E-01   -0.62161E-01 41632   0.360E+00    0.341E+00
DAV:  16    -0.927642686214E+02   -0.22330E-01   -0.11254E+00 43392   0.532E+00    0.359E+00
DAV:  17    -0.927389083070E+02    0.25360E-01   -0.41442E-01 43328   0.324E+00    0.104E+00
DAV:  18    -0.927461547314E+02   -0.72464E-02   -0.28406E-02 39520   0.735E-01    0.108E+00
DAV:  19    -0.927457771868E+02    0.37754E-03   -0.17486E-02 42144   0.673E-01    0.547E-01
DAV:  20    -0.927463874282E+02   -0.61024E-03   -0.50489E-03 40096   0.359E-01    0.275E-01
DAV:  21    -0.927467684054E+02   -0.38098E-03   -0.85507E-04 41888   0.121E-01    0.223E-01
DAV:  22    -0.927468316375E+02   -0.63232E-04   -0.95171E-04 45056   0.159E-01    0.649E-02
DAV:  23    -0.927468612909E+02   -0.29653E-04   -0.24562E-04 42432   0.720E-02    0.457E-02
DAV:  24    -0.927468656678E+02   -0.43768E-05   -0.33329E-05 39424   0.314E-02    0.353E-02
DAV:  25    -0.927468679172E+02   -0.22494E-05   -0.77527E-06 35264   0.173E-02    0.227E-02
DAV:  26    -0.927468587140E+02    0.92032E-05   -0.92316E-06 35360   0.168E-02    0.629E-03
DAV:  27    -0.927468596471E+02   -0.93315E-06   -0.80046E-07 16800   0.489E-03
   1 F= -.92746860E+02 E0= -.92746860E+02  d E =0.000000E+00  mag=     2.9099
