 vasp.6.4.3 19Mar24 (build Mar 26 2024 14:05:37) complex                        
  
 executed on             LinuxIFC date 2024.12.16  12:11:21
 running  128 mpi-ranks, on    1 nodes
 distrk:  each k-point on   32 cores,    4 groups
 distr:  one band on NCORE=   1 cores,   32 groups


--------------------------------------------------------------------------------------------------------


 INCAR:
   ALGO = Normal
   EDIFF = 1e-06
   EDIFFG = -0.01
   ENCUT = 520
   GGA = Pe
   IBRION = -1
   ISIF = 4
   ISMEAR = -5
   ISPIN = 2
   KPAR = 4
   LCHARG = True
   LORBIT = 11
   LREAL = False
   LWAVE = False
   MAGMOM = 1*-2.761 1*2.778 1*2.777 2*-2.797 1*2.917 1*-2.761 1*2.778 1*2.777 1*-0.078 1*-0.079 1*0.251
   NELM = 200
   NSW = 0
   PREC = Accurate
   SIGMA = 0.2

 POTCAR:    PAW_PBE Fe_pv 02Aug2007               
 POTCAR:    PAW_PBE Pt 04Feb2005                  
 -----------------------------------------------------------------------------
|                                                                             |
|           W    W    AA    RRRRR   N    N  II  N    N   GGGG   !!!           |
|           W    W   A  A   R    R  NN   N  II  NN   N  G    G  !!!           |
|           W    W  A    A  R    R  N N  N  II  N N  N  G       !!!           |
|           W WW W  AAAAAA  RRRRR   N  N N  II  N  N N  G  GGG   !            |
|           WW  WW  A    A  R   R   N   NN  II  N   NN  G    G                |
|           W    W  A    A  R    R  N    N  II  N    N   GGGG   !!!           |
|                                                                             |
|     For optimal performance we recommend to set                             |
|       NCORE = 2 up to number-of-cores-per-socket                            |
|     NCORE specifies how many cores store one orbital (NPAR=cpu/NCORE).      |
|     This setting can greatly improve the performance of VASP for DFT.       |
|     The default, NCORE=1 might be grossly inefficient on modern             |
|     multi-core architectures or massively parallel machines. Do your        |
|     own testing! More info at https://www.vasp.at/wiki/index.php/NCORE      |
|     Unfortunately you need to use the default for GW and RPA                |
|     calculations (for HF NCORE is supported but not extensively tested      |
|     yet).                                                                   |
|                                                                             |
 -----------------------------------------------------------------------------

 POTCAR:    PAW_PBE Fe_pv 02Aug2007               
   SHA256 =  5d22e414b1f82158bf2c7ecb8b97b28fd0923e48cadc1c3bf74d524558f5dd32 Fe_pv/POTCAR          
   COPYR  = (c) Copyright 02Aug2007 Georg Kresse                                                    
   COPYR  = This file is part of the software VASP. Any use, copying, and all other rights are regul
   COPYR  = If you do not have a valid VASP license, you may not use, copy or distribute this file. 
   VRHFIN =Fe:  3pd7s1                                                                              
   LEXCH  = PE                                                                                      
   EATOM  =  2457.4239 eV,  180.6156 Ry                                                             
                                                                                                    
   TITEL  = PAW_PBE Fe_pv 02Aug2007                                                                 
   LULTRA =        F    use ultrasoft PP ?                                                          
   IUNSCR =        1    unscreen: 0-lin 1-nonlin 2-no                                               
   RPACOR =    1.750    partial core radius                                                         
   POMASS =   55.847; ZVAL   =   14.000    mass and valenz                                          
   RCORE  =    2.200    outmost cutoff radius                                                       
   RWIGS  =    2.200; RWIGS  =    1.164    wigner-seitz radius (au A)                               
   ENMAX  =  293.238; ENMIN  =  219.928 eV                                                          
   ICORE  =        3    local potential                                                             
   LCOR   =        T    correct aug charges                                                         
   LPAW   =        T    paw PP                                                                      
   EAUG   =  578.342                                                                                
   DEXC   =    0.000                                                                                
   RMAX   =    2.249    core radius for proj-oper                                                   
   RAUG   =    1.300    factor for augmentation sphere                                              
   RDEP   =    2.296    radius for radial grids                                                     
   RDEPT  =    1.766    core radius for aug-charge                                                  
                                                                                                    
   Atomic configuration                                                                             
    8 entries                                                                                       
     n  l   j            E        occ.                                                              
     1  0  0.50     -6993.8440   2.0000                                                             
     2  0  0.50      -814.6047   2.0000                                                             
     2  1  1.50      -693.3689   6.0000                                                             
     3  0  0.50       -89.4732   2.0000                                                             
     3  1  1.50       -55.6373   6.0000                                                             
     3  2  2.50        -3.8151   7.0000                                                             
     4  0  0.50        -4.2551   1.0000                                                             
     4  3  2.50        -1.3606   0.0000                                                             
   Description                                                                                      
     l       E           TYP  RCUT    TYP  RCUT                                                     
     1    -55.6372668     23  2.000                                                                 
     1     -5.4423304     23  2.000                                                                 
     2     -3.8151096     23  2.200                                                                 
     2     -5.1756922     23  2.200                                                                 
     0     -4.2550951     23  2.200                                                                 
     0     27.2116520     23  2.200                                                                 
     3     -1.3605826     23  2.200                                                                 
  local pseudopotential read in
  partial core-charges read in
  partial kinetic energy density read in
  atomic valenz-charges read in
  non local Contribution for L=           1  read in
    real space projection operators read in
  non local Contribution for L=           1  read in
    real space projection operators read in
  non local Contribution for L=           2  read in
    real space projection operators read in
  non local Contribution for L=           2  read in
    real space projection operators read in
  non local Contribution for L=           0  read in
    real space projection operators read in
  non local Contribution for L=           0  read in
    real space projection operators read in
    PAW grid and wavefunctions read in
 
   number of l-projection  operators is LMAX  =           6
   number of lm-projection operators is LMMAX =          18
 
 POTCAR:    PAW_PBE Pt 04Feb2005                  
   SHA256 =  3ed90460adef76debcff1cfb73ee1349b515b1a3db03439735b44de3a8db7dc8 Pt/POTCAR             
   COPYR  = (c) Copyright 04Feb2005 Georg Kresse                                                    
   COPYR  = This file is part of the software VASP. Any use, copying, and all other rights are regul
   COPYR  = If you do not have a valid VASP license, you may not use, copy or distribute this file. 
   VRHFIN =Pt: s1d9                                                                                 
   LEXCH  = PE                                                                                      
   EATOM  =   729.1176 eV,   53.5886 Ry                                                             
                                                                                                    
   TITEL  = PAW_PBE Pt 04Feb2005                                                                    
   LULTRA =        F    use ultrasoft PP ?                                                          
   IUNSCR =        1    unscreen: 0-lin 1-nonlin 2-no                                               
   RPACOR =    2.330    partial core radius                                                         
   POMASS =  195.080; ZVAL   =   10.000    mass and valenz                                          
   RCORE  =    2.600    outmost cutoff radius                                                       
   RWIGS  =    2.750; RWIGS  =    1.455    wigner-seitz radius (au A)                               
   ENMAX  =  230.283; ENMIN  =  172.712 eV                                                          
   ICORE  =        3    local potential                                                             
   LCOR   =        T    correct aug charges                                                         
   LPAW   =        T    paw PP                                                                      
   EAUG   =  358.966                                                                                
   DEXC   =    0.000                                                                                
   RMAX   =    2.658    core radius for proj-oper                                                   
   RAUG   =    1.300    factor for augmentation sphere                                              
   RDEP   =    2.761    radius for radial grids                                                     
   RDEPT  =    2.203    core radius for aug-charge                                                  
                                                                                                    
   Atomic configuration                                                                             
   16 entries                                                                                       
     n  l   j            E        occ.                                                              
     1  0  0.50    -78401.1885   2.0000                                                             
     2  0  0.50    -13770.7750   2.0000                                                             
     2  1  1.50    -11931.0468   6.0000                                                             
     3  0  0.50     -3234.7234   2.0000                                                             
     3  1  1.50     -2699.2216   6.0000                                                             
     3  2  2.50     -2119.5714  10.0000                                                             
     4  0  0.50      -695.1528   2.0000                                                             
     4  1  1.50      -519.6034   6.0000                                                             
     4  2  2.50      -306.6786  10.0000                                                             
     4  3  3.50       -70.1041  14.0000                                                             
     5  0  0.50      -101.7747   2.0000                                                             
     5  1  1.50       -55.9873   6.0000                                                             
     5  2  2.50        -6.1423   9.0000                                                             
     6  0  0.50        -5.6573   1.0000                                                             
     6  1  1.50        -6.8029   0.0000                                                             
     5  3  2.50        -1.3606   0.0000                                                             
   Description                                                                                      
     l       E           TYP  RCUT    TYP  RCUT                                                     
     2     -6.1423404     23  2.500                                                                 
     2     -7.5029230     23  2.500                                                                 
     0     -5.6573207     23  2.500                                                                 
     0      0.7416693     23  2.500                                                                 
     1     -2.7211652     23  2.600                                                                 
     1     20.4087390     23  2.600                                                                 
     3     -1.3605826     23  2.500                                                                 
  local pseudopotential read in
  partial core-charges read in
  partial kinetic energy density read in
  atomic valenz-charges read in
  non local Contribution for L=           2  read in
    real space projection operators read in
  non local Contribution for L=           2  read in
    real space projection operators read in
  non local Contribution for L=           0  read in
    real space projection operators read in
  non local Contribution for L=           0  read in
    real space projection operators read in
  non local Contribution for L=           1  read in
    real space projection operators read in
  non local Contribution for L=           1  read in
    real space projection operators read in
    PAW grid and wavefunctions read in
 
   number of l-projection  operators is LMAX  =           6
   number of lm-projection operators is LMMAX =          18
 
  PAW_PBE Fe_pv 02Aug2007               :
 energy of atom  1       EATOM=-2457.4239
 kinetic energy error for atom=    0.0062 (will be added to EATOM!!)
  PAW_PBE Pt 04Feb2005                  :
 energy of atom  2       EATOM= -729.1176
 kinetic energy error for atom=    0.0032 (will be added to EATOM!!)
 
 
 POSCAR: Fe9 Pt3
  positions in direct lattice
  velocities in cartesian coordinates


 exchange-correlation table for PE
   RHO(1)=    0.500       N(1)  =     2000
   RHO(2)=  100.500       N(2)  =     4000
 


--------------------------------------------------------------------------------------------------------


 ion  position               nearest neighbor table
   1  0.000  0.500  0.167-   4 2.63   4 2.63   5 2.63   5 2.63   7 2.69   7 2.69   7 2.69   7 2.69
                            10 2.75  10 2.75  11 2.75  11 2.75
   2  0.000  0.500  0.500-  11 2.69  11 2.69   8 2.69   8 2.69   8 2.69   8 2.69  12 2.72  12 2.72
                             6 2.72   6 2.72
   3  0.000  0.500  0.833-  10 2.69  10 2.69   9 2.69   9 2.69   9 2.69   9 2.69   6 2.72   6 2.72
                            12 2.72  12 2.72
   4  0.500  0.500  0.012-   1 2.63   7 2.63   7 2.63   1 2.63  10 2.70  10 2.70  10 2.70  10 2.70

   5  0.500  0.500  0.322-   1 2.63   7 2.63   7 2.63   1 2.63  11 2.70  11 2.70  11 2.70  11 2.70

   6  0.500  0.500  0.667-  12 2.69  12 2.69  12 2.69  12 2.69   9 2.72   3 2.72   3 2.72   9 2.72
                             2 2.72   8 2.72   2 2.72   8 2.72
   7  0.500  0.000  0.167-   4 2.63   4 2.63   5 2.63   5 2.63   1 2.69   1 2.69   1 2.69   1 2.69
                            10 2.75  10 2.75  11 2.75  11 2.75
   8  0.500  0.000  0.500-  11 2.69  11 2.69   2 2.69   2 2.69   2 2.69   2 2.69  12 2.72  12 2.72
                             6 2.72   6 2.72
   9  0.500  0.000  0.833-  10 2.69  10 2.69   3 2.69   3 2.69   3 2.69   3 2.69   6 2.72   6 2.72
                            12 2.72  12 2.72
  10  0.000  0.000  0.996-   3 2.69   9 2.69   3 2.69   9 2.69   4 2.70   4 2.70   4 2.70   4 2.70
                             1 2.75   7 2.75   7 2.75   1 2.75
  11  0.000  0.000  0.337-   2 2.69   8 2.69   2 2.69   8 2.69   5 2.70   5 2.70   5 2.70   5 2.70
                             1 2.75   7 2.75   7 2.75   1 2.75
  12  0.000  0.000  0.667-   6 2.69   6 2.69   6 2.69   6 2.69   3 2.72   9 2.72   9 2.72   3 2.72
                             2 2.72   8 2.72   8 2.72   2 2.72
 
  LATTYP: Found a simple tetragonal cell.
 ALAT       =     3.8073879752
 C/A-ratio  =     3.0620008208
  
  Lattice vectors:
  
 A1 = (   3.8073879752,   0.0000000000,   0.0000000000)
 A2 = (   0.0000000000,   3.8073879752,   0.0000000000)
 A3 = (   0.0000000000,   0.0000000000,  11.6582251051)


Analysis of symmetry for initial positions (statically):
=====================================================================
 Subroutine PRICEL returns:
 Original cell was already a primitive cell.
 

 Routine SETGRP: Setting up the symmetry group for a 
 simple tetragonal supercell.


 Subroutine GETGRP returns: Found  8 space group operations
 (whereof  8 operations were pure point group operations)
 out of a pool of 16 trial point group operations.


The static configuration has the point symmetry C_4v.


Analysis of symmetry for dynamics (positions and initial velocities):
=====================================================================
 Subroutine PRICEL returns:
 Original cell was already a primitive cell.
 

 Routine SETGRP: Setting up the symmetry group for a 
 simple tetragonal supercell.


 Subroutine GETGRP returns: Found  8 space group operations
 (whereof  8 operations were pure point group operations)
 out of a pool of 16 trial point group operations.


The dynamic configuration has the point symmetry C_4v.


Analysis of structural, dynamic, and magnetic symmetry:
=====================================================================
 Subroutine PRICEL returns:
 Original cell was already a primitive cell.
 

 Routine SETGRP: Setting up the symmetry group for a 
 simple tetragonal supercell.


 Subroutine GETGRP returns: Found  8 space group operations
 (whereof  8 operations were pure point group operations)
 out of a pool of 16 trial point group operations.


The overall configuration has the point symmetry C_4v.


 Subroutine INISYM returns: Found  8 space group operations
 (whereof  8 operations are pure point group operations),
 and found     1 'primitive' translations


----------------------------------------------------------------------------------------

                                     Primitive cell                                     

  volume of cell :     169.0000

  direct lattice vectors                    reciprocal lattice vectors
     3.807387975  0.000000000  0.000000000     0.262647255  0.000000000  0.000000000
     0.000000000  3.807387975  0.000000000     0.000000000  0.262647255  0.000000000
     0.000000000  0.000000000 11.658225105     0.000000000  0.000000000  0.085776350

  length of vectors
     3.807387975  3.807387975 11.658225105     0.262647255  0.262647255  0.085776350

  position of ions in fractional coordinates (direct lattice)
     0.000000000  0.500000000  0.166655268
     0.000000000  0.500000000  0.499915480
     0.000000000  0.500000000  0.833426130
     0.500000000  0.500000000  0.011620954
     0.500000000  0.500000000  0.321702085
     0.500000000  0.500000000  0.666686765
     0.500000000  0.000000000  0.166655268
     0.500000000  0.000000000  0.499915480
     0.500000000  0.000000000  0.833426130
     0.000000000  0.000000000  0.996427801
     0.000000000  0.000000000  0.336884515
     0.000000000  0.000000000  0.666684125

  ion indices of the primitive-cell ions
   primitive index   ion index
                 1           1
                 2           2
                 3           3
                 4           4
                 5           5
                 6           6
                 7           7
                 8           8
                 9           9
                10          10
                11          11
                12          12

----------------------------------------------------------------------------------------

 
 
 KPOINTS: pymatgen with grid density = 8800 / numb

Automatic generation of k-mesh.
 Grid dimensions read from file:
 generate k-points for:   13   13    4

 Generating k-lattice:

  Cartesian coordinates                     Fractional coordinates (reciprocal lattice)
     0.020203635  0.000000000  0.000000000     0.076923077  0.000000000  0.000000000
     0.000000000  0.020203635  0.000000000     0.000000000  0.076923077  0.000000000
     0.000000000  0.000000000  0.021444088     0.000000000  0.000000000  0.250000000

  Length of vectors
     0.020203635  0.020203635  0.021444088

  Shift w.r.t. Gamma in fractional coordinates (k-lattice)
     0.000000000  0.000000000  0.000000000

 TETIRR: Found   1010 inequivalent tetrahedra from     4056
 
 Subroutine IBZKPT returns following result:
 ===========================================
 
 Found     84 irreducible k-points:
 
 Following reciprocal coordinates:
            Coordinates               Weight
  0.000000  0.000000  0.000000      1.000000
  0.076923  0.000000  0.000000      4.000000
  0.153846  0.000000  0.000000      4.000000
  0.230769  0.000000  0.000000      4.000000
  0.307692  0.000000  0.000000      4.000000
  0.384615  0.000000  0.000000      4.000000
  0.461538  0.000000  0.000000      4.000000
  0.076923  0.076923  0.000000      4.000000
  0.153846  0.076923  0.000000      8.000000
  0.230769  0.076923  0.000000      8.000000
  0.307692  0.076923  0.000000      8.000000
  0.384615  0.076923  0.000000      8.000000
  0.461538  0.076923  0.000000      8.000000
  0.153846  0.153846  0.000000      4.000000
  0.230769  0.153846  0.000000      8.000000
  0.307692  0.153846  0.000000      8.000000
  0.384615  0.153846  0.000000      8.000000
  0.461538  0.153846  0.000000      8.000000
  0.230769  0.230769  0.000000      4.000000
  0.307692  0.230769  0.000000      8.000000
  0.384615  0.230769  0.000000      8.000000
  0.461538  0.230769  0.000000      8.000000
  0.307692  0.307692  0.000000      4.000000
  0.384615  0.307692  0.000000      8.000000
  0.461538  0.307692  0.000000      8.000000
  0.384615  0.384615  0.000000      4.000000
  0.461538  0.384615  0.000000      8.000000
  0.461538  0.461538  0.000000      4.000000
  0.000000  0.000000  0.250000      2.000000
  0.076923  0.000000  0.250000      8.000000
  0.153846  0.000000  0.250000      8.000000
  0.230769  0.000000  0.250000      8.000000
  0.307692  0.000000  0.250000      8.000000
  0.384615  0.000000  0.250000      8.000000
  0.461538  0.000000  0.250000      8.000000
  0.076923  0.076923  0.250000      8.000000
  0.153846  0.076923  0.250000     16.000000
  0.230769  0.076923  0.250000     16.000000
  0.307692  0.076923  0.250000     16.000000
  0.384615  0.076923  0.250000     16.000000
  0.461538  0.076923  0.250000     16.000000
  0.153846  0.153846  0.250000      8.000000
  0.230769  0.153846  0.250000     16.000000
  0.307692  0.153846  0.250000     16.000000
  0.384615  0.153846  0.250000     16.000000
  0.461538  0.153846  0.250000     16.000000
  0.230769  0.230769  0.250000      8.000000
  0.307692  0.230769  0.250000     16.000000
  0.384615  0.230769  0.250000     16.000000
  0.461538  0.230769  0.250000     16.000000
  0.307692  0.307692  0.250000      8.000000
  0.384615  0.307692  0.250000     16.000000
  0.461538  0.307692  0.250000     16.000000
  0.384615  0.384615  0.250000      8.000000
  0.461538  0.384615  0.250000     16.000000
  0.461538  0.461538  0.250000      8.000000
  0.000000  0.000000  0.500000      1.000000
  0.076923  0.000000  0.500000      4.000000
  0.153846  0.000000  0.500000      4.000000
  0.230769  0.000000  0.500000      4.000000
  0.307692  0.000000  0.500000      4.000000
  0.384615  0.000000  0.500000      4.000000
  0.461538  0.000000  0.500000      4.000000
  0.076923  0.076923  0.500000      4.000000
  0.153846  0.076923  0.500000      8.000000
  0.230769  0.076923  0.500000      8.000000
  0.307692  0.076923  0.500000      8.000000
  0.384615  0.076923  0.500000      8.000000
  0.461538  0.076923  0.500000      8.000000
  0.153846  0.153846  0.500000      4.000000
  0.230769  0.153846  0.500000      8.000000
  0.307692  0.153846  0.500000      8.000000
  0.384615  0.153846  0.500000      8.000000
  0.461538  0.153846  0.500000      8.000000
  0.230769  0.230769  0.500000      4.000000
  0.307692  0.230769  0.500000      8.000000
  0.384615  0.230769  0.500000      8.000000
  0.461538  0.230769  0.500000      8.000000
  0.307692  0.307692  0.500000      4.000000
  0.384615  0.307692  0.500000      8.000000
  0.461538  0.307692  0.500000      8.000000
  0.384615  0.384615  0.500000      4.000000
  0.461538  0.384615  0.500000      8.000000
  0.461538  0.461538  0.500000      4.000000
 
 Following cartesian coordinates:
            Coordinates               Weight
  0.000000  0.000000  0.000000      1.000000
  0.020204  0.000000  0.000000      4.000000
  0.040407  0.000000  0.000000      4.000000
  0.060611  0.000000  0.000000      4.000000
  0.080815  0.000000  0.000000      4.000000
  0.101018  0.000000  0.000000      4.000000
  0.121222  0.000000  0.000000      4.000000
  0.020204  0.020204  0.000000      4.000000
  0.040407  0.020204  0.000000      8.000000
  0.060611  0.020204  0.000000      8.000000
  0.080815  0.020204  0.000000      8.000000
  0.101018  0.020204  0.000000      8.000000
  0.121222  0.020204  0.000000      8.000000
  0.040407  0.040407  0.000000      4.000000
  0.060611  0.040407  0.000000      8.000000
  0.080815  0.040407  0.000000      8.000000
  0.101018  0.040407  0.000000      8.000000
  0.121222  0.040407  0.000000      8.000000
  0.060611  0.060611  0.000000      4.000000
  0.080815  0.060611  0.000000      8.000000
  0.101018  0.060611  0.000000      8.000000
  0.121222  0.060611  0.000000      8.000000
  0.080815  0.080815  0.000000      4.000000
  0.101018  0.080815  0.000000      8.000000
  0.121222  0.080815  0.000000      8.000000
  0.101018  0.101018  0.000000      4.000000
  0.121222  0.101018  0.000000      8.000000
  0.121222  0.121222  0.000000      4.000000
  0.000000  0.000000  0.021444      2.000000
  0.020204  0.000000  0.021444      8.000000
  0.040407  0.000000  0.021444      8.000000
  0.060611  0.000000  0.021444      8.000000
  0.080815  0.000000  0.021444      8.000000
  0.101018  0.000000  0.021444      8.000000
  0.121222  0.000000  0.021444      8.000000
  0.020204  0.020204  0.021444      8.000000
  0.040407  0.020204  0.021444     16.000000
  0.060611  0.020204  0.021444     16.000000
  0.080815  0.020204  0.021444     16.000000
  0.101018  0.020204  0.021444     16.000000
  0.121222  0.020204  0.021444     16.000000
  0.040407  0.040407  0.021444      8.000000
  0.060611  0.040407  0.021444     16.000000
  0.080815  0.040407  0.021444     16.000000
  0.101018  0.040407  0.021444     16.000000
  0.121222  0.040407  0.021444     16.000000
  0.060611  0.060611  0.021444      8.000000
  0.080815  0.060611  0.021444     16.000000
  0.101018  0.060611  0.021444     16.000000
  0.121222  0.060611  0.021444     16.000000
  0.080815  0.080815  0.021444      8.000000
  0.101018  0.080815  0.021444     16.000000
  0.121222  0.080815  0.021444     16.000000
  0.101018  0.101018  0.021444      8.000000
  0.121222  0.101018  0.021444     16.000000
  0.121222  0.121222  0.021444      8.000000
  0.000000  0.000000  0.042888      1.000000
  0.020204  0.000000  0.042888      4.000000
  0.040407  0.000000  0.042888      4.000000
  0.060611  0.000000  0.042888      4.000000
  0.080815  0.000000  0.042888      4.000000
  0.101018  0.000000  0.042888      4.000000
  0.121222  0.000000  0.042888      4.000000
  0.020204  0.020204  0.042888      4.000000
  0.040407  0.020204  0.042888      8.000000
  0.060611  0.020204  0.042888      8.000000
  0.080815  0.020204  0.042888      8.000000
  0.101018  0.020204  0.042888      8.000000
  0.121222  0.020204  0.042888      8.000000
  0.040407  0.040407  0.042888      4.000000
  0.060611  0.040407  0.042888      8.000000
  0.080815  0.040407  0.042888      8.000000
  0.101018  0.040407  0.042888      8.000000
  0.121222  0.040407  0.042888      8.000000
  0.060611  0.060611  0.042888      4.000000
  0.080815  0.060611  0.042888      8.000000
  0.101018  0.060611  0.042888      8.000000
  0.121222  0.060611  0.042888      8.000000
  0.080815  0.080815  0.042888      4.000000
  0.101018  0.080815  0.042888      8.000000
  0.121222  0.080815  0.042888      8.000000
  0.101018  0.101018  0.042888      4.000000
  0.121222  0.101018  0.042888      8.000000
  0.121222  0.121222  0.042888      4.000000
 


--------------------------------------------------------------------------------------------------------




 Dimension of arrays:
   k-points           NKPTS =     84   k-points in BZ     NKDIM =     84   number of bands    NBANDS=     96
   number of dos      NEDOS =    301   number of ions     NIONS =     12
   non local maximal  LDIM  =      6   non local SUM 2l+1 LMDIM =     18
   total plane-waves  NPLWV =  70560
   max r-space proj   IRMAX =      1   max aug-charges    IRDMAX=  25484
   dimension x,y,z NGX =    28 NGY =   28 NGZ =   90
   dimension x,y,z NGXF=    56 NGYF=   56 NGZF=  180
   support grid    NGXF=    56 NGYF=   56 NGZF=  180
   ions per type =               9   3
   NGX,Y,Z   is equivalent  to a cutoff of  12.23, 12.23, 12.83 a.u.
   NGXF,Y,Z  is equivalent  to a cutoff of  24.45, 24.45, 25.67 a.u.

 SYSTEM =  unknown system                          
 POSCAR =  Fe9 Pt3                                 

 Startparameter for this run:
   NWRITE =      2    write-flag & timer
   PREC   = accura    normal or accurate (medium, high low for compatibility)
   ISTART =      0    job   : 0-new  1-cont  2-samecut
   ICHARG =      2    charge: 1-file 2-atom 10-const
   ISPIN  =      2    spin polarized calculation?
   LNONCOLLINEAR =      F non collinear calculations
   LSORBIT =      F    spin-orbit coupling
   INIWAV =      1    electr: 0-lowe 1-rand  2-diag
   LASPH  =      F    aspherical Exc in radial PAW
 Electronic Relaxation 1
   ENCUT  =  520.0 eV  38.22 Ry    6.18 a.u.   7.08  7.08 21.68*2*pi/ulx,y,z
   ENINI  =  520.0     initial cutoff
   ENAUG  =  578.3 eV  augmentation charge cutoff
   NELM   =    200;   NELMIN=  2; NELMDL=  0     # of ELM steps 
   EDIFF  = 0.1E-05   stopping-criterion for ELM
   LREAL  =      F    real-space projection
   NLSPLINE    = F    spline interpolate recip. space projectors
   LCOMPAT=      F    compatible to vasp.4.4
   GGA_COMPAT  = T    GGA compatible to vasp.4.4-vasp.4.6
   LMAXPAW     = -100 max onsite density
   LMAXMIX     =    2 max onsite mixed and CHGCAR
   VOSKOWN=      0    Vosko Wilk Nusair interpolation
   ROPT   =    0.00000   0.00000
 Ionic relaxation
   EDIFFG = -.1E-01   stopping-criterion for IOM
   NSW    =      0    number of steps for IOM
   NBLOCK =      1;   KBLOCK =      1    inner block; outer block 
   IBRION =     -1    ionic relax: 0-MD 1-quasi-New 2-CG
   NFREE  =      0    steps in history (QN), initial steepest desc. (CG)
   ISIF   =      4    stress and relaxation
   IWAVPR =     10    prediction:  0-non 1-charg 2-wave 3-comb
   ISYM   =      2    0-nonsym 1-usesym 2-fastsym
   LCORR  =      T    Harris-Foulkes like correction to forces

   POTIM  = 0.5000    time-step for ionic-motion
   TEIN   =    0.0    initial temperature
   TEBEG  =    0.0;   TEEND  =   0.0 temperature during run
   SMASS  =  -3.00    Nose mass-parameter (am)
   estimated Nose-frequenzy (Omega)   =  0.10E-29 period in steps = 0.13E+47 mass=  -0.331E-27a.u.
   SCALEE = 1.0000    scale energy and forces
   NPACO  =    256;   APACO  = 10.0  distance and # of slots for P.C.
   PSTRESS=    0.0 pullay stress

  Mass of Ions in am
   POMASS =  55.85195.08
  Ionic Valenz
   ZVAL   =  14.00 10.00
  Atomic Wigner-Seitz radii
   RWIGS  =  -1.00 -1.00
  virtual crystal weights 
   VCA    =   1.00  1.00
   NELECT =     156.0000    total number of electrons
   NUPDOWN=      -1.0000    fix difference up-down

 DOS related values:
   EMIN   =  10.00;   EMAX   =-10.00  energy-range for DOS
   EFERMI =   0.00;   METHOD = LEGACY      
   ISMEAR =    -5;   SIGMA  =   0.20  broadening in eV -4-tet -1-fermi 0-gaus

 Electronic relaxation 2 (details)
   IALGO  =     38    algorithm
   LDIAG  =      T    sub-space diagonalisation (order eigenvalues)
   LSUBROT=      F    optimize rotation matrix (better conditioning)
   TURBO    =      0    0=normal 1=particle mesh
   IRESTART =      0    0=no restart 2=restart with 2 vectors
   NREBOOT  =      0    no. of reboots
   NMIN     =      0    reboot dimension
   EREF     =   0.00    reference energy to select bands
   IMIX   =      4    mixing-type and parameters
     AMIX     =   0.40;   BMIX     =  1.00
     AMIX_MAG =   1.60;   BMIX_MAG =  1.00
     AMIN     =   0.10
     WC   =   100.;   INIMIX=   1;  MIXPRE=   1;  MAXMIX= -45

 Intra band minimization:
   WEIMIN = 0.0000     energy-eigenvalue tresh-hold
   EBREAK =  0.26E-08  absolut break condition
   DEPER  =   0.30     relativ break condition  

   TIME   =   0.40     timestep for ELM

  volume/ion in A,a.u.               =      14.08        95.04
  Fermi-wavevector in a.u.,A,eV,Ry     =   1.593997  3.012217 34.570036  2.540826
  Thomas-Fermi vector in A             =   2.692140
 
 Write flags
   LWAVE        =      F    write WAVECAR
   LDOWNSAMPLE  =      F    k-point downsampling of WAVECAR
   LCHARG       =      T    write CHGCAR
   LVTOT        =      F    write LOCPOT, total local potential
   LVHAR        =      F    write LOCPOT, Hartree potential only
   WRT_POTENTIAL= false  ! write potential to hdf5 file
   LELF         =      F    write electronic localiz. function (ELF)
   LORBIT       =     11    0 simple, 1 ext, 2 COOP (PROOUT), +10 PAW based schemes


 Dipole corrections
   LMONO      =      F    monopole corrections only (constant potential shift)
   LDIPOL     =      F    correct potential (dipole corrections)
   IDIPOL     =      0    1-x, 2-y, 3-z, 4-all directions 
   EPSILON    =  1.0000000 bulk dielectric constant
   LVACPOTAV  =      F  vacuum potentials using an averaging scheme for the charge density
   VACPOTFLAT =  0.1000000 required flatness to determine vacuum potential
 Exchange correlation treatment:
   GGA     = PE    functional components
   XC_C    = 1    coefficients multiplying the functional components
   LIBXC   =     F    Libxc                    
   VOSKOWN =     0    Vosko Wilk Nusair interpolation
   LHFCALC =     F    Hartree Fock is set to
   LHFONE  =     F    Hartree Fock one center treatment
   AEXX    =    0.0000 exact exchange contribution

 Parameters of functionals:
   PE:
     No parameter
 
 Van der Waals corrections
   IVDW    =     0    specifies the selected vdW correction

 Linear response parameters
   LEPSILON=     F    determine dielectric tensor
   LRPA    =     F    only Hartree local field effects (RPA)
   LNABLA  =     F    use nabla operator in PAW spheres
   LVEL    =     F    velocity operator in full k-point grid
   CSHIFT  =0.1000    complex shift for real part using Kramers Kronig
   OMEGAMAX=  -1.0    maximum frequency
   DEG_THRESHOLD= 0.2000000E-02 threshold for treating states as degnerate
   RTIME   =   -0.100 relaxation time in fs
  (WPLASMAI=    0.000 imaginary part of plasma frequency in eV, 0.658/RTIME)
   DFIELD  = 0.0000000 0.0000000 0.0000000 field for delta impulse in time
 
  Optional k-point grid parameters
   LKPOINTS_OPT  =     F    use optional k-point grid
   KPOINTS_OPT_MODE=     1    mode for optional k-point grid
 
 Orbital magnetization related:
   ORBITALMAG=     F  switch on orbital magnetization
   LCHIMAG   =     F  perturbation theory with respect to B field
   DQ        =  0.001000  dq finite difference perturbation B field
   LLRAUG    =     F  two centre corrections for induced B field
   LBONE     =     F  B-component reconstruction in AE one-centre
   LVGVCALC  =     T  calculate vGv susceptibility
   LVGVAPPL  =     F  apply vGv susceptibility instead of pGv for G=0

 Random number generation:
   RANDOM_GENERATOR = DEFAULT
   PCG_SEED         = not used


--------------------------------------------------------------------------------------------------------


 Static calculation
 charge density and potential will be updated during run
 spin polarized calculation
 Variant of blocked Davidson
 Davidson routine will perform the subspace rotation
 perform sub-space diagonalisation
    after iterative eigenvector-optimisation
 modified Broyden-mixing scheme, WC =      100.0
 initial mixing is a Kerker type mixing with AMIX =  0.4000 and BMIX =      1.0000
 Hartree-type preconditioning will be used
 using additional bands           18
 reciprocal scheme for non local part
 use partial core corrections
 calculate Harris-corrections to forces 
   (improved forces if not selfconsistent)
 use gradient corrections 
 use of overlap-Matrix (Vanderbilt PP)
 Fermi weights with tetrahedron method with Bloechl corrections


--------------------------------------------------------------------------------------------------------


  energy-cutoff  :      520.00
  volume of cell :      169.00
      direct lattice vectors                 reciprocal lattice vectors
     3.807387975  0.000000000  0.000000000     0.262647255  0.000000000  0.000000000
     0.000000000  3.807387975  0.000000000     0.000000000  0.262647255  0.000000000
     0.000000000  0.000000000 11.658225105     0.000000000  0.000000000  0.085776350

  length of vectors
     3.807387975  3.807387975 11.658225105     0.262647255  0.262647255  0.085776350


 
 k-points in units of 2pi/SCALE and weight: pymatgen with grid density = 8800 / numb
   0.00000000  0.00000000  0.00000000       0.001
   0.02020363  0.00000000  0.00000000       0.006
   0.04040727  0.00000000  0.00000000       0.006
   0.06061090  0.00000000  0.00000000       0.006
   0.08081454  0.00000000  0.00000000       0.006
   0.10101817  0.00000000  0.00000000       0.006
   0.12122181  0.00000000  0.00000000       0.006
   0.02020363  0.02020363  0.00000000       0.006
   0.04040727  0.02020363  0.00000000       0.012
   0.06061090  0.02020363  0.00000000       0.012
   0.08081454  0.02020363  0.00000000       0.012
   0.10101817  0.02020363  0.00000000       0.012
   0.12122181  0.02020363  0.00000000       0.012
   0.04040727  0.04040727  0.00000000       0.006
   0.06061090  0.04040727  0.00000000       0.012
   0.08081454  0.04040727  0.00000000       0.012
   0.10101817  0.04040727  0.00000000       0.012
   0.12122181  0.04040727  0.00000000       0.012
   0.06061090  0.06061090  0.00000000       0.006
   0.08081454  0.06061090  0.00000000       0.012
   0.10101817  0.06061090  0.00000000       0.012
   0.12122181  0.06061090  0.00000000       0.012
   0.08081454  0.08081454  0.00000000       0.006
   0.10101817  0.08081454  0.00000000       0.012
   0.12122181  0.08081454  0.00000000       0.012
   0.10101817  0.10101817  0.00000000       0.006
   0.12122181  0.10101817  0.00000000       0.012
   0.12122181  0.12122181  0.00000000       0.006
   0.00000000  0.00000000  0.02144409       0.003
   0.02020363  0.00000000  0.02144409       0.012
   0.04040727  0.00000000  0.02144409       0.012
   0.06061090  0.00000000  0.02144409       0.012
   0.08081454  0.00000000  0.02144409       0.012
   0.10101817  0.00000000  0.02144409       0.012
   0.12122181  0.00000000  0.02144409       0.012
   0.02020363  0.02020363  0.02144409       0.012
   0.04040727  0.02020363  0.02144409       0.024
   0.06061090  0.02020363  0.02144409       0.024
   0.08081454  0.02020363  0.02144409       0.024
   0.10101817  0.02020363  0.02144409       0.024
   0.12122181  0.02020363  0.02144409       0.024
   0.04040727  0.04040727  0.02144409       0.012
   0.06061090  0.04040727  0.02144409       0.024
   0.08081454  0.04040727  0.02144409       0.024
   0.10101817  0.04040727  0.02144409       0.024
   0.12122181  0.04040727  0.02144409       0.024
   0.06061090  0.06061090  0.02144409       0.012
   0.08081454  0.06061090  0.02144409       0.024
   0.10101817  0.06061090  0.02144409       0.024
   0.12122181  0.06061090  0.02144409       0.024
   0.08081454  0.08081454  0.02144409       0.012
   0.10101817  0.08081454  0.02144409       0.024
   0.12122181  0.08081454  0.02144409       0.024
   0.10101817  0.10101817  0.02144409       0.012
   0.12122181  0.10101817  0.02144409       0.024
   0.12122181  0.12122181  0.02144409       0.012
   0.00000000  0.00000000  0.04288818       0.001
   0.02020363  0.00000000  0.04288818       0.006
   0.04040727  0.00000000  0.04288818       0.006
   0.06061090  0.00000000  0.04288818       0.006
   0.08081454  0.00000000  0.04288818       0.006
   0.10101817  0.00000000  0.04288818       0.006
   0.12122181  0.00000000  0.04288818       0.006
   0.02020363  0.02020363  0.04288818       0.006
   0.04040727  0.02020363  0.04288818       0.012
   0.06061090  0.02020363  0.04288818       0.012
   0.08081454  0.02020363  0.04288818       0.012
   0.10101817  0.02020363  0.04288818       0.012
   0.12122181  0.02020363  0.04288818       0.012
   0.04040727  0.04040727  0.04288818       0.006
   0.06061090  0.04040727  0.04288818       0.012
   0.08081454  0.04040727  0.04288818       0.012
   0.10101817  0.04040727  0.04288818       0.012
   0.12122181  0.04040727  0.04288818       0.012
   0.06061090  0.06061090  0.04288818       0.006
   0.08081454  0.06061090  0.04288818       0.012
   0.10101817  0.06061090  0.04288818       0.012
   0.12122181  0.06061090  0.04288818       0.012
   0.08081454  0.08081454  0.04288818       0.006
   0.10101817  0.08081454  0.04288818       0.012
   0.12122181  0.08081454  0.04288818       0.012
   0.10101817  0.10101817  0.04288818       0.006
   0.12122181  0.10101817  0.04288818       0.012
   0.12122181  0.12122181  0.04288818       0.006
 
 k-points in reciprocal lattice and weights: pymatgen with grid density = 8800 / numb
   0.00000000  0.00000000  0.00000000       0.001
   0.07692308  0.00000000  0.00000000       0.006
   0.15384615  0.00000000  0.00000000       0.006
   0.23076923  0.00000000  0.00000000       0.006
   0.30769231  0.00000000  0.00000000       0.006
   0.38461538  0.00000000  0.00000000       0.006
   0.46153846  0.00000000  0.00000000       0.006
   0.07692308  0.07692308  0.00000000       0.006
   0.15384615  0.07692308  0.00000000       0.012
   0.23076923  0.07692308  0.00000000       0.012
   0.30769231  0.07692308  0.00000000       0.012
   0.38461538  0.07692308  0.00000000       0.012
   0.46153846  0.07692308  0.00000000       0.012
   0.15384615  0.15384615  0.00000000       0.006
   0.23076923  0.15384615  0.00000000       0.012
   0.30769231  0.15384615  0.00000000       0.012
   0.38461538  0.15384615  0.00000000       0.012
   0.46153846  0.15384615  0.00000000       0.012
   0.23076923  0.23076923  0.00000000       0.006
   0.30769231  0.23076923  0.00000000       0.012
   0.38461538  0.23076923  0.00000000       0.012
   0.46153846  0.23076923  0.00000000       0.012
   0.30769231  0.30769231  0.00000000       0.006
   0.38461538  0.30769231  0.00000000       0.012
   0.46153846  0.30769231  0.00000000       0.012
   0.38461538  0.38461538  0.00000000       0.006
   0.46153846  0.38461538  0.00000000       0.012
   0.46153846  0.46153846  0.00000000       0.006
   0.00000000  0.00000000  0.25000000       0.003
   0.07692308  0.00000000  0.25000000       0.012
   0.15384615  0.00000000  0.25000000       0.012
   0.23076923  0.00000000  0.25000000       0.012
   0.30769231  0.00000000  0.25000000       0.012
   0.38461538  0.00000000  0.25000000       0.012
   0.46153846  0.00000000  0.25000000       0.012
   0.07692308  0.07692308  0.25000000       0.012
   0.15384615  0.07692308  0.25000000       0.024
   0.23076923  0.07692308  0.25000000       0.024
   0.30769231  0.07692308  0.25000000       0.024
   0.38461538  0.07692308  0.25000000       0.024
   0.46153846  0.07692308  0.25000000       0.024
   0.15384615  0.15384615  0.25000000       0.012
   0.23076923  0.15384615  0.25000000       0.024
   0.30769231  0.15384615  0.25000000       0.024
   0.38461538  0.15384615  0.25000000       0.024
   0.46153846  0.15384615  0.25000000       0.024
   0.23076923  0.23076923  0.25000000       0.012
   0.30769231  0.23076923  0.25000000       0.024
   0.38461538  0.23076923  0.25000000       0.024
   0.46153846  0.23076923  0.25000000       0.024
   0.30769231  0.30769231  0.25000000       0.012
   0.38461538  0.30769231  0.25000000       0.024
   0.46153846  0.30769231  0.25000000       0.024
   0.38461538  0.38461538  0.25000000       0.012
   0.46153846  0.38461538  0.25000000       0.024
   0.46153846  0.46153846  0.25000000       0.012
   0.00000000  0.00000000  0.50000000       0.001
   0.07692308  0.00000000  0.50000000       0.006
   0.15384615  0.00000000  0.50000000       0.006
   0.23076923  0.00000000  0.50000000       0.006
   0.30769231  0.00000000  0.50000000       0.006
   0.38461538  0.00000000  0.50000000       0.006
   0.46153846  0.00000000  0.50000000       0.006
   0.07692308  0.07692308  0.50000000       0.006
   0.15384615  0.07692308  0.50000000       0.012
   0.23076923  0.07692308  0.50000000       0.012
   0.30769231  0.07692308  0.50000000       0.012
   0.38461538  0.07692308  0.50000000       0.012
   0.46153846  0.07692308  0.50000000       0.012
   0.15384615  0.15384615  0.50000000       0.006
   0.23076923  0.15384615  0.50000000       0.012
   0.30769231  0.15384615  0.50000000       0.012
   0.38461538  0.15384615  0.50000000       0.012
   0.46153846  0.15384615  0.50000000       0.012
   0.23076923  0.23076923  0.50000000       0.006
   0.30769231  0.23076923  0.50000000       0.012
   0.38461538  0.23076923  0.50000000       0.012
   0.46153846  0.23076923  0.50000000       0.012
   0.30769231  0.30769231  0.50000000       0.006
   0.38461538  0.30769231  0.50000000       0.012
   0.46153846  0.30769231  0.50000000       0.012
   0.38461538  0.38461538  0.50000000       0.006
   0.46153846  0.38461538  0.50000000       0.012
   0.46153846  0.46153846  0.50000000       0.006
 
 position of ions in fractional coordinates (direct lattice) 
   0.00000000  0.50000000  0.16665527
   0.00000000  0.50000000  0.49991548
   0.00000000  0.50000000  0.83342613
   0.50000000  0.50000000  0.01162095
   0.50000000  0.50000000  0.32170209
   0.50000000  0.50000000  0.66668677
   0.50000000  0.00000000  0.16665527
   0.50000000  0.00000000  0.49991548
   0.50000000  0.00000000  0.83342613
   0.00000000  0.00000000  0.99642780
   0.00000000  0.00000000  0.33688451
   0.00000000  0.00000000  0.66668413
 
 position of ions in cartesian coordinates  (Angst):
   0.00000000  1.90369399  1.94290463
   0.00000000  1.90369399  5.82812719
   0.00000000  1.90369399  9.71626943
   1.90369399  1.90369399  0.13547969
   1.90369399  1.90369399  3.75047533
   1.90369399  1.90369399  7.77238438
   1.90369399  0.00000000  1.94290463
   1.90369399  0.00000000  5.82812719
   1.90369399  0.00000000  9.71626943
   0.00000000  0.00000000 11.61657961
   0.00000000  0.00000000  3.92747551
   0.00000000  0.00000000  7.77235361
 


--------------------------------------------------------------------------------------------------------


 k-point     1 :   0.0000 0.0000 0.0000  plane waves:    4531
 k-point     2 :   0.0769 0.0000 0.0000  plane waves:    4499
 k-point     3 :   0.1538 0.0000 0.0000  plane waves:    4502
 k-point     4 :   0.2308 0.0000 0.0000  plane waves:    4534
 k-point     5 :   0.3077 0.0000 0.0000  plane waves:    4572
 k-point     6 :   0.3846 0.0000 0.0000  plane waves:    4562
 k-point     7 :   0.4615 0.0000 0.0000  plane waves:    4566
 k-point     8 :   0.0769 0.0769 0.0000  plane waves:    4512
 k-point     9 :   0.1538 0.0769 0.0000  plane waves:    4514
 k-point    10 :   0.2308 0.0769 0.0000  plane waves:    4547
 k-point    11 :   0.3077 0.0769 0.0000  plane waves:    4558
 k-point    12 :   0.3846 0.0769 0.0000  plane waves:    4554
 k-point    13 :   0.4615 0.0769 0.0000  plane waves:    4555
 k-point    14 :   0.1538 0.1538 0.0000  plane waves:    4538
 k-point    15 :   0.2308 0.1538 0.0000  plane waves:    4559
 k-point    16 :   0.3077 0.1538 0.0000  plane waves:    4569
 k-point    17 :   0.3846 0.1538 0.0000  plane waves:    4564
 k-point    18 :   0.4615 0.1538 0.0000  plane waves:    4558
 k-point    19 :   0.2308 0.2308 0.0000  plane waves:    4544
 k-point    20 :   0.3077 0.2308 0.0000  plane waves:    4553
 k-point    21 :   0.3846 0.2308 0.0000  plane waves:    4561
 k-point    22 :   0.4615 0.2308 0.0000  plane waves:    4559
 k-point    23 :   0.3077 0.3077 0.0000  plane waves:    4542
 k-point    24 :   0.3846 0.3077 0.0000  plane waves:    4559
 k-point    25 :   0.4615 0.3077 0.0000  plane waves:    4568
 k-point    26 :   0.3846 0.3846 0.0000  plane waves:    4560
 k-point    27 :   0.4615 0.3846 0.0000  plane waves:    4571
 k-point    28 :   0.4615 0.4615 0.0000  plane waves:    4562
 k-point    29 :   0.0000 0.0000 0.2500  plane waves:    4503
 k-point    30 :   0.0769 0.0000 0.2500  plane waves:    4508
 k-point    31 :   0.1538 0.0000 0.2500  plane waves:    4518
 k-point    32 :   0.2308 0.0000 0.2500  plane waves:    4545
 k-point    33 :   0.3077 0.0000 0.2500  plane waves:    4564
 k-point    34 :   0.3846 0.0000 0.2500  plane waves:    4558
 k-point    35 :   0.4615 0.0000 0.2500  plane waves:    4564
 k-point    36 :   0.0769 0.0769 0.2500  plane waves:    4506
 k-point    37 :   0.1538 0.0769 0.2500  plane waves:    4522
 k-point    38 :   0.2308 0.0769 0.2500  plane waves:    4536
 k-point    39 :   0.3077 0.0769 0.2500  plane waves:    4551
 k-point    40 :   0.3846 0.0769 0.2500  plane waves:    4562
 k-point    41 :   0.4615 0.0769 0.2500  plane waves:    4552
 k-point    42 :   0.1538 0.1538 0.2500  plane waves:    4532
 k-point    43 :   0.2308 0.1538 0.2500  plane waves:    4546
 k-point    44 :   0.3077 0.1538 0.2500  plane waves:    4557
 k-point    45 :   0.3846 0.1538 0.2500  plane waves:    4562
 k-point    46 :   0.4615 0.1538 0.2500  plane waves:    4564
 k-point    47 :   0.2308 0.2308 0.2500  plane waves:    4550
 k-point    48 :   0.3077 0.2308 0.2500  plane waves:    4557
 k-point    49 :   0.3846 0.2308 0.2500  plane waves:    4563
 k-point    50 :   0.4615 0.2308 0.2500  plane waves:    4564
 k-point    51 :   0.3077 0.3077 0.2500  plane waves:    4545
 k-point    52 :   0.3846 0.3077 0.2500  plane waves:    4549
 k-point    53 :   0.4615 0.3077 0.2500  plane waves:    4568
 k-point    54 :   0.3846 0.3846 0.2500  plane waves:    4554
 k-point    55 :   0.4615 0.3846 0.2500  plane waves:    4560
 k-point    56 :   0.4615 0.4615 0.2500  plane waves:    4547
 k-point    57 :   0.0000 0.0000 0.5000  plane waves:    4508
 k-point    58 :   0.0769 0.0000 0.5000  plane waves:    4524
 k-point    59 :   0.1538 0.0000 0.5000  plane waves:    4532
 k-point    60 :   0.2308 0.0000 0.5000  plane waves:    4534
 k-point    61 :   0.3077 0.0000 0.5000  plane waves:    4544
 k-point    62 :   0.3846 0.0000 0.5000  plane waves:    4558
 k-point    63 :   0.4615 0.0000 0.5000  plane waves:    4550
 k-point    64 :   0.0769 0.0769 0.5000  plane waves:    4518
 k-point    65 :   0.1538 0.0769 0.5000  plane waves:    4532
 k-point    66 :   0.2308 0.0769 0.5000  plane waves:    4544
 k-point    67 :   0.3077 0.0769 0.5000  plane waves:    4548
 k-point    68 :   0.3846 0.0769 0.5000  plane waves:    4548
 k-point    69 :   0.4615 0.0769 0.5000  plane waves:    4538
 k-point    70 :   0.1538 0.1538 0.5000  plane waves:    4528
 k-point    71 :   0.2308 0.1538 0.5000  plane waves:    4536
 k-point    72 :   0.3077 0.1538 0.5000  plane waves:    4558
 k-point    73 :   0.3846 0.1538 0.5000  plane waves:    4554
 k-point    74 :   0.4615 0.1538 0.5000  plane waves:    4566
 k-point    75 :   0.2308 0.2308 0.5000  plane waves:    4554
 k-point    76 :   0.3077 0.2308 0.5000  plane waves:    4544
 k-point    77 :   0.3846 0.2308 0.5000  plane waves:    4564
 k-point    78 :   0.4615 0.2308 0.5000  plane waves:    4568
 k-point    79 :   0.3077 0.3077 0.5000  plane waves:    4542
 k-point    80 :   0.3846 0.3077 0.5000  plane waves:    4554
 k-point    81 :   0.4615 0.3077 0.5000  plane waves:    4562
 k-point    82 :   0.3846 0.3846 0.5000  plane waves:    4544
 k-point    83 :   0.4615 0.3846 0.5000  plane waves:    4566
 k-point    84 :   0.4615 0.4615 0.5000  plane waves:    4568

 maximum and minimum number of plane-waves per node :      4572     4499

 maximum number of plane-waves:      4572
 maximum index in each direction: 
   IXMAX=    7   IYMAX=    7   IZMAX=   21
   IXMIN=   -7   IYMIN=   -7   IZMIN=  -22


 serial   3D FFT for wavefunctions
 parallel 3D FFT for charge:
    minimum data exchange during FFTs selected (reduces bandwidth)


 total amount of memory used by VASP MPI-rank0   188913. kBytes
=======================================================================

   base      :      30000. kBytes
   nonl-proj :     111581. kBytes
   fftplans  :        955. kBytes
   grid      :       7297. kBytes
   one-center:        373. kBytes
   wavefun   :      38707. kBytes
 
     INWAV:  cpu time      0.0000: real time      0.0004
 Broyden mixing: mesh for mixing (old mesh)
   NGX = 15   NGY = 15   NGZ = 43
  (NGX  = 56   NGY  = 56   NGZ  =180)
  gives a total of   9675 points

 initial charge density was supplied:
 charge density of overlapping atoms calculated
 number of electron     156.0000000 magnetization       3.0050000
 keeping initial charge density in first step


--------------------------------------------------------------------------------------------------------


 Maximum index for augmentation-charges         1039 (set IRDMAX)


--------------------------------------------------------------------------------------------------------


 First call to EWALD:  gamma=   0.321
 Maximum number of real-space cells 4x 4x 2
 Maximum number of reciprocal cells 2x 2x 5

    FEWALD:  cpu time      0.0014: real time      0.0014


--------------------------------------- Ionic step        1  -------------------------------------------




--------------------------------------- Iteration      1(   1)  ---------------------------------------


    POTLOK:  cpu time      0.0272: real time      0.2266
    SETDIJ:  cpu time      0.0103: real time      0.0109
     EDDAV:  cpu time      4.6238: real time      4.6587
 BZINTS: Fermi energy:   23.165319;  156.000000 electrons
         Band energy: 0.341952E+03;  BLOECHL correction:   -0.067324
       DOS:  cpu time      0.1015: real time      0.1026
    --------------------------------------------
      LOOP:  cpu time      4.7630: real time      4.9989

 eigenvalue-minimisations  : 32256
 total energy-change (2. order) : 0.1730665E+04  (-0.9211850E+04)
 number of electron     156.0000000 magnetization       3.0050000
 augmentation part      156.0000000 magnetization       3.0050000

 Free energy of the ion-electron system (eV)
  ---------------------------------------------------
  alpha Z        PSCENC =      1007.04218677
  Ewald energy   TEWEN  =    -17595.64809176
  -Hartree energ DENC   =     -6257.13548456
  -exchange      EXHF   =         0.00000000
  -V(xc)+E(xc)   XCENC  =       654.23438455
  PAW double counting   =     20093.52335003   -20817.40606994
  entropy T*S    EENTRO =         0.00000000
  eigenvalues    EBANDS =       341.95168527
  atomic energy  EATOM  =     24304.10294433
  Solvation  Ediel_sol  =         0.00000000
  ---------------------------------------------------
  free energy    TOTEN  =      1730.66490469 eV

  energy without entropy =     1730.66490469  energy(sigma->0) =     1730.66490469


--------------------------------------------------------------------------------------------------------




--------------------------------------- Iteration      1(   2)  ---------------------------------------


     EDDAV:  cpu time      4.6834: real time      4.7325
 BZINTS: Fermi energy:   11.582828;  156.000000 electrons
         Band energy:-0.137578E+04;  BLOECHL correction:   -0.045178
       DOS:  cpu time      0.1003: real time      0.1010
    --------------------------------------------
      LOOP:  cpu time      4.7835: real time      4.8332

 eigenvalue-minimisations  : 32384
 total energy-change (2. order) :-0.1717729E+04  (-0.1689187E+04)
 number of electron     156.0000000 magnetization       3.0050000
 augmentation part      156.0000000 magnetization       3.0050000

 Free energy of the ion-electron system (eV)
  ---------------------------------------------------
  alpha Z        PSCENC =      1007.04218677
  Ewald energy   TEWEN  =    -17595.64809176
  -Hartree energ DENC   =     -6257.13548456
  -exchange      EXHF   =         0.00000000
  -V(xc)+E(xc)   XCENC  =       654.23438455
  PAW double counting   =     20093.52335003   -20817.40606994
  entropy T*S    EENTRO =         0.00000000
  eigenvalues    EBANDS =     -1375.77696800
  atomic energy  EATOM  =     24304.10294433
  Solvation  Ediel_sol  =         0.00000000
  ---------------------------------------------------
  free energy    TOTEN  =        12.93625141 eV

  energy without entropy =       12.93625141  energy(sigma->0) =       12.93625141


--------------------------------------------------------------------------------------------------------




--------------------------------------- Iteration      1(   3)  ---------------------------------------


     EDDAV:  cpu time      6.3151: real time      6.3579
 BZINTS: Fermi energy:   10.607072;  156.000000 electrons
         Band energy:-0.149046E+04;  BLOECHL correction:   -0.026411
       DOS:  cpu time      0.0998: real time      0.1006
    --------------------------------------------
      LOOP:  cpu time      6.4148: real time      6.4585

 eigenvalue-minimisations  : 43072
 total energy-change (2. order) :-0.1146832E+03  (-0.1133707E+03)
 number of electron     156.0000000 magnetization       3.0050000
 augmentation part      156.0000000 magnetization       3.0050000

 Free energy of the ion-electron system (eV)
  ---------------------------------------------------
  alpha Z        PSCENC =      1007.04218677
  Ewald energy   TEWEN  =    -17595.64809176
  -Hartree energ DENC   =     -6257.13548456
  -exchange      EXHF   =         0.00000000
  -V(xc)+E(xc)   XCENC  =       654.23438455
  PAW double counting   =     20093.52335003   -20817.40606994
  entropy T*S    EENTRO =         0.00000000
  eigenvalues    EBANDS =     -1490.46020928
  atomic energy  EATOM  =     24304.10294433
  Solvation  Ediel_sol  =         0.00000000
  ---------------------------------------------------
  free energy    TOTEN  =      -101.74698986 eV

  energy without entropy =     -101.74698986  energy(sigma->0) =     -101.74698986


--------------------------------------------------------------------------------------------------------




--------------------------------------- Iteration      1(   4)  ---------------------------------------


     EDDAV:  cpu time      4.6923: real time      4.7255
 BZINTS: Fermi energy:   10.595123;  156.000000 electrons
         Band energy:-0.149301E+04;  BLOECHL correction:   -0.026759
       DOS:  cpu time      0.1003: real time      0.1010
    --------------------------------------------
      LOOP:  cpu time      4.7926: real time      4.8265

 eigenvalue-minimisations  : 32544
 total energy-change (2. order) :-0.2551282E+01  (-0.2549354E+01)
 number of electron     156.0000000 magnetization       3.0050000
 augmentation part      156.0000000 magnetization       3.0050000

 Free energy of the ion-electron system (eV)
  ---------------------------------------------------
  alpha Z        PSCENC =      1007.04218677
  Ewald energy   TEWEN  =    -17595.64809176
  -Hartree energ DENC   =     -6257.13548456
  -exchange      EXHF   =         0.00000000
  -V(xc)+E(xc)   XCENC  =       654.23438455
  PAW double counting   =     20093.52335003   -20817.40606994
  entropy T*S    EENTRO =         0.00000000
  eigenvalues    EBANDS =     -1493.01149089
  atomic energy  EATOM  =     24304.10294433
  Solvation  Ediel_sol  =         0.00000000
  ---------------------------------------------------
  free energy    TOTEN  =      -104.29827147 eV

  energy without entropy =     -104.29827147  energy(sigma->0) =     -104.29827147


--------------------------------------------------------------------------------------------------------




--------------------------------------- Iteration      1(   5)  ---------------------------------------


     EDDAV:  cpu time      6.1592: real time      6.2154
 BZINTS: Fermi energy:   10.594911;  156.000000 electrons
         Band energy:-0.149307E+04;  BLOECHL correction:   -0.026768
       DOS:  cpu time      0.1007: real time      0.1013
    CHARGE:  cpu time      0.1593: real time      0.1605
    MIXING:  cpu time      0.0054: real time      0.0055
    --------------------------------------------
      LOOP:  cpu time      6.4245: real time      6.4827

 eigenvalue-minimisations  : 41056
 total energy-change (2. order) :-0.5839175E-01  (-0.5838646E-01)
 number of electron     155.9999913 magnetization       3.0113397
 augmentation part       79.2844003 magnetization       2.0620182

 Broyden mixing:
  rms(total) = 0.35475E+01    rms(broyden)= 0.35473E+01
  rms(prec ) = 0.40906E+01
  weight for this iteration     100.00

 Free energy of the ion-electron system (eV)
  ---------------------------------------------------
  alpha Z        PSCENC =      1007.04218677
  Ewald energy   TEWEN  =    -17595.64809176
  -Hartree energ DENC   =     -6257.13548456
  -exchange      EXHF   =         0.00000000
  -V(xc)+E(xc)   XCENC  =       654.23438455
  PAW double counting   =     20093.52335003   -20817.40606994
  entropy T*S    EENTRO =         0.00000000
  eigenvalues    EBANDS =     -1493.06988263
  atomic energy  EATOM  =     24304.10294433
  Solvation  Ediel_sol  =         0.00000000
  ---------------------------------------------------
  free energy    TOTEN  =      -104.35666322 eV

  energy without entropy =     -104.35666322  energy(sigma->0) =     -104.35666322


--------------------------------------------------------------------------------------------------------




--------------------------------------- Iteration      1(   6)  ---------------------------------------


    POTLOK:  cpu time      0.0456: real time      0.0466
    SETDIJ:  cpu time      0.0071: real time      0.0071
     EDDAV:  cpu time      5.5508: real time      5.5877
 BZINTS: Fermi energy:    7.880431;  156.000000 electrons
         Band energy:-0.194800E+04;  BLOECHL correction:   -0.029661
       DOS:  cpu time      0.1086: real time      0.1097
    CHARGE:  cpu time      0.1568: real time      0.1576
    MIXING:  cpu time      0.0037: real time      0.0037
    --------------------------------------------
      LOOP:  cpu time      5.8726: real time      5.9124

 eigenvalue-minimisations  : 38432
 total energy-change (2. order) :-0.9064059E+01  (-0.2574271E+02)
 number of electron     155.9999904 magnetization       2.9522222
 augmentation part       89.3220283 magnetization       2.6144423

 Broyden mixing:
  rms(total) = 0.73032E+01    rms(broyden)= 0.73030E+01
  rms(prec ) = 0.97149E+01
  weight for this iteration     100.00

 eigenvalues of (default mixing * dielectric matrix)
  average eigenvalue GAMMA=   0.1884
  0.1884

 Free energy of the ion-electron system (eV)
  ---------------------------------------------------
  alpha Z        PSCENC =      1007.04218677
  Ewald energy   TEWEN  =    -17595.64809176
  -Hartree energ DENC   =     -5820.06970197
  -exchange      EXHF   =         0.00000000
  -V(xc)+E(xc)   XCENC  =       636.59871924
  PAW double counting   =     20168.18205059   -20865.63206553
  entropy T*S    EENTRO =         0.00000000
  eigenvalues    EBANDS =     -1947.99676346
  atomic energy  EATOM  =     24304.10294433
  Solvation  Ediel_sol  =         0.00000000
  ---------------------------------------------------
  free energy    TOTEN  =      -113.42072179 eV

  energy without entropy =     -113.42072179  energy(sigma->0) =     -113.42072179


--------------------------------------------------------------------------------------------------------




--------------------------------------- Iteration      1(   7)  ---------------------------------------


    POTLOK:  cpu time      0.0450: real time      0.0458
    SETDIJ:  cpu time      0.0074: real time      0.0074
     EDDAV:  cpu time      6.3605: real time      6.4024
 BZINTS: Fermi energy:    8.686621;  156.000000 electrons
         Band energy:-0.183822E+04;  BLOECHL correction:   -0.014801
       DOS:  cpu time      0.1086: real time      0.1093
    CHARGE:  cpu time      0.1566: real time      0.1575
    MIXING:  cpu time      0.0029: real time      0.0031
    --------------------------------------------
      LOOP:  cpu time      6.6810: real time      6.7255

 eigenvalue-minimisations  : 43424
 total energy-change (2. order) : 0.6306730E+01  (-0.4508829E+02)
 number of electron     155.9999907 magnetization       3.3708080
 augmentation part       86.2379424 magnetization       1.1840082

 Broyden mixing:
  rms(total) = 0.54980E+01    rms(broyden)= 0.54978E+01
  rms(prec ) = 0.75827E+01
  weight for this iteration     100.00

 eigenvalues of (default mixing * dielectric matrix)
  average eigenvalue GAMMA=   0.2668
  0.3976  0.1360

 Free energy of the ion-electron system (eV)
  ---------------------------------------------------
  alpha Z        PSCENC =      1007.04218677
  Ewald energy   TEWEN  =    -17595.64809176
  -Hartree energ DENC   =     -5908.31135361
  -exchange      EXHF   =         0.00000000
  -V(xc)+E(xc)   XCENC  =       638.66143659
  PAW double counting   =     20486.58104699   -21201.32090560
  entropy T*S    EENTRO =         0.00000000
  eigenvalues    EBANDS =     -1838.22125522
  atomic energy  EATOM  =     24304.10294433
  Solvation  Ediel_sol  =         0.00000000
  ---------------------------------------------------
  free energy    TOTEN  =      -107.11399152 eV

  energy without entropy =     -107.11399152  energy(sigma->0) =     -107.11399152


--------------------------------------------------------------------------------------------------------




--------------------------------------- Iteration      1(   8)  ---------------------------------------


    POTLOK:  cpu time      0.0450: real time      0.0463
    SETDIJ:  cpu time      0.0079: real time      0.0080
     EDDAV:  cpu time      6.3614: real time      6.4020
 BZINTS: Fermi energy:    9.097794;  156.000000 electrons
         Band energy:-0.173560E+04;  BLOECHL correction:   -0.017450
       DOS:  cpu time      0.1079: real time      0.1086
    CHARGE:  cpu time      0.1530: real time      0.1538
    MIXING:  cpu time      0.0018: real time      0.0018
    --------------------------------------------
      LOOP:  cpu time      6.6770: real time      6.7205

 eigenvalue-minimisations  : 44192
 total energy-change (2. order) : 0.1317540E+02  (-0.6994331E+01)
 number of electron     155.9999909 magnetization       3.2385910
 augmentation part       84.1526157 magnetization       3.5414333

 Broyden mixing:
  rms(total) = 0.21032E+01    rms(broyden)= 0.21029E+01
  rms(prec ) = 0.29631E+01
  weight for this iteration     100.00

 eigenvalues of (default mixing * dielectric matrix)
  average eigenvalue GAMMA=   0.4431
  0.8848  0.3164  0.1282

 Free energy of the ion-electron system (eV)
  ---------------------------------------------------
  alpha Z        PSCENC =      1007.04218677
  Ewald energy   TEWEN  =    -17595.64809176
  -Hartree energ DENC   =     -5981.49839515
  -exchange      EXHF   =         0.00000000
  -V(xc)+E(xc)   XCENC  =       641.05572661
  PAW double counting   =     20882.06252291   -21615.45916186
  entropy T*S    EENTRO =         0.00000000
  eigenvalues    EBANDS =     -1735.59632349
  atomic energy  EATOM  =     24304.10294433
  Solvation  Ediel_sol  =         0.00000000
  ---------------------------------------------------
  free energy    TOTEN  =       -93.93859164 eV

  energy without entropy =      -93.93859164  energy(sigma->0) =      -93.93859164


--------------------------------------------------------------------------------------------------------




--------------------------------------- Iteration      1(   9)  ---------------------------------------


    POTLOK:  cpu time      0.0312: real time      0.0467
    SETDIJ:  cpu time      0.0072: real time      0.0073
     EDDAV:  cpu time      6.3244: real time      6.3651
 BZINTS: Fermi energy:    8.956369;  156.000000 electrons
         Band energy:-0.176133E+04;  BLOECHL correction:   -0.018568
       DOS:  cpu time      0.1074: real time      0.1083
    CHARGE:  cpu time      0.1535: real time      0.1543
    MIXING:  cpu time      0.0019: real time      0.0019
    --------------------------------------------
      LOOP:  cpu time      6.6256: real time      6.6836

 eigenvalue-minimisations  : 43680
 total energy-change (2. order) :-0.7512557E+01  (-0.1295818E+02)
 number of electron     155.9999905 magnetization       3.5229477
 augmentation part       84.7620237 magnetization       0.2844150

 Broyden mixing:
  rms(total) = 0.47843E+01    rms(broyden)= 0.47841E+01
  rms(prec ) = 0.70044E+01
  weight for this iteration     100.00

 eigenvalues of (default mixing * dielectric matrix)
  average eigenvalue GAMMA=   0.4023
  1.0429  0.3277  0.1382  0.1003

 Free energy of the ion-electron system (eV)
  ---------------------------------------------------
  alpha Z        PSCENC =      1007.04218677
  Ewald energy   TEWEN  =    -17595.64809176
  -Hartree energ DENC   =     -5956.43055843
  -exchange      EXHF   =         0.00000000
  -V(xc)+E(xc)   XCENC  =       640.89367524
  PAW double counting   =     21115.06175855   -21855.13976288
  entropy T*S    EENTRO =         0.00000000
  eigenvalues    EBANDS =     -1761.33330015
  atomic energy  EATOM  =     24304.10294433
  Solvation  Ediel_sol  =         0.00000000
  ---------------------------------------------------
  free energy    TOTEN  =      -101.45114832 eV

  energy without entropy =     -101.45114832  energy(sigma->0) =     -101.45114832


--------------------------------------------------------------------------------------------------------




--------------------------------------- Iteration      1(  10)  ---------------------------------------


    POTLOK:  cpu time      0.0450: real time      0.0459
    SETDIJ:  cpu time      0.0081: real time      0.0082
     EDDAV:  cpu time      6.6521: real time      6.6950
 BZINTS: Fermi energy:    8.778793;  156.000000 electrons
         Band energy:-0.176882E+04;  BLOECHL correction:   -0.025300
       DOS:  cpu time      0.1082: real time      0.1089
    CHARGE:  cpu time      0.1558: real time      0.1566
    MIXING:  cpu time      0.0020: real time      0.0020
    --------------------------------------------
      LOOP:  cpu time      6.9713: real time      7.0166

 eigenvalue-minimisations  : 45568
 total energy-change (2. order) : 0.8929925E+01  (-0.5107388E+01)
 number of electron     155.9999908 magnetization       3.5280770
 augmentation part       84.8753267 magnetization       2.7336051

 Broyden mixing:
  rms(total) = 0.11996E+01    rms(broyden)= 0.11990E+01
  rms(prec ) = 0.14538E+01
  weight for this iteration     100.00

 eigenvalues of (default mixing * dielectric matrix)
  average eigenvalue GAMMA=   0.3890
  1.0143  0.3496  0.3496  0.1221  0.1094

 Free energy of the ion-electron system (eV)
  ---------------------------------------------------
  alpha Z        PSCENC =      1007.04218677
  Ewald energy   TEWEN  =    -17595.64809176
  -Hartree energ DENC   =     -5936.44547945
  -exchange      EXHF   =         0.00000000
  -V(xc)+E(xc)   XCENC  =       640.31822140
  PAW double counting   =     21238.04933647   -21981.11585881
  entropy T*S    EENTRO =         0.00000000
  eigenvalues    EBANDS =     -1768.82448210
  atomic energy  EATOM  =     24304.10294433
  Solvation  Ediel_sol  =         0.00000000
  ---------------------------------------------------
  free energy    TOTEN  =       -92.52122314 eV

  energy without entropy =      -92.52122314  energy(sigma->0) =      -92.52122314


--------------------------------------------------------------------------------------------------------




--------------------------------------- Iteration      1(  11)  ---------------------------------------


    POTLOK:  cpu time      0.0447: real time      0.0456
    SETDIJ:  cpu time      0.0082: real time      0.0082
     EDDAV:  cpu time      6.2426: real time      6.2840
 BZINTS: Fermi energy:    8.810475;  156.000000 electrons
         Band energy:-0.176807E+04;  BLOECHL correction:   -0.024223
       DOS:  cpu time      0.1089: real time      0.1096
    CHARGE:  cpu time      0.1535: real time      0.1545
    MIXING:  cpu time      0.0019: real time      0.0019
    --------------------------------------------
      LOOP:  cpu time      6.5597: real time      6.6038

 eigenvalue-minimisations  : 42912
 total energy-change (2. order) :-0.4575167E+00  (-0.9327916E+00)
 number of electron     155.9999907 magnetization       3.5144308
 augmentation part       84.8220140 magnetization       2.7975519

 Broyden mixing:
  rms(total) = 0.12056E+01    rms(broyden)= 0.12055E+01
  rms(prec ) = 0.15256E+01
  weight for this iteration     100.00

 eigenvalues of (default mixing * dielectric matrix)
  average eigenvalue GAMMA=   0.3976
  1.0148  0.4673  0.4673  0.1935  0.1334  0.1091

 Free energy of the ion-electron system (eV)
  ---------------------------------------------------
  alpha Z        PSCENC =      1007.04218677
  Ewald energy   TEWEN  =    -17595.64809176
  -Hartree energ DENC   =     -5935.50386306
  -exchange      EXHF   =         0.00000000
  -V(xc)+E(xc)   XCENC  =       640.76718553
  PAW double counting   =     21307.55404346   -22053.22362880
  entropy T*S    EENTRO =         0.00000000
  eigenvalues    EBANDS =     -1768.06951631
  atomic energy  EATOM  =     24304.10294433
  Solvation  Ediel_sol  =         0.00000000
  ---------------------------------------------------
  free energy    TOTEN  =       -92.97873983 eV

  energy without entropy =      -92.97873983  energy(sigma->0) =      -92.97873983


--------------------------------------------------------------------------------------------------------




--------------------------------------- Iteration      1(  12)  ---------------------------------------


    POTLOK:  cpu time      0.0452: real time      0.0464
    SETDIJ:  cpu time      0.0075: real time      0.0076
     EDDAV:  cpu time      6.2385: real time      6.2795
 BZINTS: Fermi energy:    8.835788;  156.000000 electrons
         Band energy:-0.176877E+04;  BLOECHL correction:   -0.025178
       DOS:  cpu time      0.1075: real time      0.1082
    CHARGE:  cpu time      0.1545: real time      0.1553
    MIXING:  cpu time      0.0020: real time      0.0020
    --------------------------------------------
      LOOP:  cpu time      6.5552: real time      6.5991

 eigenvalue-minimisations  : 43264
 total energy-change (2. order) : 0.2120275E+00  (-0.6565114E+00)
 number of electron     155.9999909 magnetization       3.3953610
 augmentation part       84.7793310 magnetization       2.8444185

 Broyden mixing:
  rms(total) = 0.67473E+00    rms(broyden)= 0.67464E+00
  rms(prec ) = 0.81830E+00
  weight for this iteration     100.00

 eigenvalues of (default mixing * dielectric matrix)
  average eigenvalue GAMMA=   0.5745
  1.5578  0.8705  0.8705  0.3372  0.1062  0.1305  0.1492

 Free energy of the ion-electron system (eV)
  ---------------------------------------------------
  alpha Z        PSCENC =      1007.04218677
  Ewald energy   TEWEN  =    -17595.64809176
  -Hartree energ DENC   =     -5932.21644604
  -exchange      EXHF   =         0.00000000
  -V(xc)+E(xc)   XCENC  =       641.28474877
  PAW double counting   =     21389.46364695   -22138.02747309
  entropy T*S    EENTRO =         0.00000000
  eigenvalues    EBANDS =     -1768.76822830
  atomic energy  EATOM  =     24304.10294433
  Solvation  Ediel_sol  =         0.00000000
  ---------------------------------------------------
  free energy    TOTEN  =       -92.76671237 eV

  energy without entropy =      -92.76671237  energy(sigma->0) =      -92.76671237


--------------------------------------------------------------------------------------------------------




--------------------------------------- Iteration      1(  13)  ---------------------------------------


    POTLOK:  cpu time      0.0452: real time      0.0462
    SETDIJ:  cpu time      0.0079: real time      0.0079
     EDDAV:  cpu time      6.3669: real time      6.4080
 BZINTS: Fermi energy:    8.805397;  156.000000 electrons
         Band energy:-0.177946E+04;  BLOECHL correction:   -0.019711
       DOS:  cpu time      0.1070: real time      0.1085
    CHARGE:  cpu time      0.1556: real time      0.1564
    MIXING:  cpu time      0.0020: real time      0.0021
    --------------------------------------------
      LOOP:  cpu time      6.6847: real time      6.7291

 eigenvalue-minimisations  : 43200
 total energy-change (2. order) :-0.3708304E+00  (-0.5927468E+00)
 number of electron     155.9999909 magnetization       3.3350443
 augmentation part       84.9981535 magnetization       2.7282488

 Broyden mixing:
  rms(total) = 0.10590E+01    rms(broyden)= 0.10590E+01
  rms(prec ) = 0.16945E+01
  weight for this iteration     100.00

 eigenvalues of (default mixing * dielectric matrix)
  average eigenvalue GAMMA=   0.5492
  1.8098  0.8601  0.8601  0.3383  0.1069  0.1284  0.1450  0.1450

 Free energy of the ion-electron system (eV)
  ---------------------------------------------------
  alpha Z        PSCENC =      1007.04218677
  Ewald energy   TEWEN  =    -17595.64809176
  -Hartree energ DENC   =     -5917.58950677
  -exchange      EXHF   =         0.00000000
  -V(xc)+E(xc)   XCENC  =       641.81606932
  PAW double counting   =     21547.42993448   -22300.83204479
  entropy T*S    EENTRO =         0.00000000
  eigenvalues    EBANDS =     -1779.45903439
  atomic energy  EATOM  =     24304.10294433
  Solvation  Ediel_sol  =         0.00000000
  ---------------------------------------------------
  free energy    TOTEN  =       -93.13754282 eV

  energy without entropy =      -93.13754282  energy(sigma->0) =      -93.13754282


--------------------------------------------------------------------------------------------------------




--------------------------------------- Iteration      1(  14)  ---------------------------------------


    POTLOK:  cpu time      0.0451: real time      0.0460
    SETDIJ:  cpu time      0.0081: real time      0.0082
     EDDAV:  cpu time      6.5430: real time      6.5867
 BZINTS: Fermi energy:    8.808116;  156.000000 electrons
         Band energy:-0.178238E+04;  BLOECHL correction:   -0.023955
       DOS:  cpu time      0.1080: real time      0.1092
[...]
     81       8.9499      0.00000
     82       9.0422      0.00000
     83       9.2209      0.00000
     84       9.5525      0.00000
     85       9.5882      0.00000
     86       9.5922      0.00000
     87       9.7671      0.00000
     88       9.7933      0.00000
     89      10.0543      0.00000
     90      10.1163      0.00000
     91      10.2173      0.00000
     92      10.3206      0.00000
     93      10.3582      0.00000
     94      10.7534      0.00000
     95      10.8080      0.00000
     96      10.9115      0.00000


--------------------------------------------------------------------------------------------------------


 soft charge-density along one line, spin component           1
         0         1         2         3         4         5         6         7         8         9
 total charge-density along one line
 
 soft charge-density along one line, spin component           2
         0         1         2         3         4         5         6         7         8         9
 total charge-density along one line
 
 pseudopotential strength for first ion, spin component:           1
-43.481   0.000   0.000   6.977  -0.000  -0.000  -0.000   0.000
  0.000 -43.481   0.000  -0.000   6.976  -0.000  -0.000   0.000
  0.000   0.000 -43.413  -0.000  -0.000   6.948   0.000  -0.000
  6.977  -0.000  -0.000   5.834  -0.000  -0.000   0.000  -0.000
 -0.000   6.976  -0.000  -0.000   5.835  -0.000   0.000  -0.000
 -0.000  -0.000   6.948  -0.000  -0.000   5.842  -0.000   0.000
 -0.000  -0.000   0.000   0.000   0.000  -0.000  -0.873   0.000
  0.000   0.000  -0.000  -0.000  -0.000   0.000   0.000  -0.862
 -0.000   0.000   0.000   0.000  -0.000   0.000  -0.000   0.000
 -0.000  -0.000   0.000   0.000   0.000  -0.000   0.000   0.000
 -0.000   0.000  -0.000   0.000   0.000   0.000  -0.000  -0.000
  0.000  -0.000   0.000   0.000   0.000  -0.000  -1.407   0.000
  0.000   0.000  -0.000  -0.000  -0.000   0.000   0.000  -1.395
 -0.000   0.000   0.000   0.000  -0.000   0.000  -0.000   0.000
 -0.000  -0.000   0.000   0.000  -0.000  -0.000   0.000   0.000
 -0.000   0.000  -0.000   0.000   0.000   0.000  -0.000  -0.000
 -0.000  -0.000   0.000  -0.000  -0.000  -0.000  -0.000  -0.000
 -0.000  -0.000  -0.000  -0.000  -0.000   0.000  -0.000  -0.000
 pseudopotential strength for first ion, spin component:           2
-45.886   0.000   0.000   7.987  -0.000  -0.000  -0.000   0.000
  0.000 -45.851   0.000  -0.000   7.972  -0.000   0.000   0.000
  0.000   0.000 -45.686  -0.000  -0.000   7.906   0.000   0.000
  7.987  -0.000  -0.000   5.549  -0.000  -0.000   0.000  -0.000
 -0.000   7.972  -0.000  -0.000   5.551  -0.000  -0.000  -0.000
 -0.000  -0.000   7.906  -0.000  -0.000   5.565  -0.000  -0.000
 -0.000   0.000   0.000   0.000  -0.000  -0.000  -2.757   0.000
  0.000   0.000   0.000  -0.000  -0.000  -0.000   0.000  -2.926
 -0.000   0.000   0.000   0.000  -0.000   0.000  -0.000   0.000
  0.000  -0.000   0.000  -0.000   0.000  -0.000   0.000   0.000
 -0.000   0.000  -0.000   0.000  -0.000   0.000   0.000  -0.000
  0.000   0.000   0.000   0.000  -0.000  -0.000  -3.260   0.000
  0.000   0.000   0.000  -0.000  -0.000  -0.000   0.000  -3.427
 -0.000   0.000   0.000   0.000  -0.000  -0.000  -0.000   0.000
  0.000  -0.000   0.000  -0.000   0.000  -0.000   0.000   0.000
 -0.000   0.000  -0.000   0.000  -0.000   0.000   0.000  -0.000
 -0.000  -0.000   0.000  -0.000   0.000   0.000  -0.000  -0.000
 -0.000  -0.000   0.000  -0.000   0.000   0.000  -0.000  -0.000
 total augmentation occupancy for first ion, spin component:           1
  1.992  -0.000   0.000  -0.028   0.000   0.000   0.000   0.000  -0.000  -0.000  -0.000   0.000  -0.000   0.000   0.000  -0.000
 -0.000   1.992  -0.000   0.000  -0.027   0.000  -0.000   0.000   0.000  -0.000   0.000   0.000   0.000  -0.000   0.000  -0.000
  0.000  -0.000   1.992   0.000   0.000  -0.026   0.000   0.000   0.000   0.000   0.000   0.000  -0.000   0.000  -0.000   0.000
 -0.028   0.000   0.000   0.151   0.000  -0.000   0.000   0.000   0.000   0.000   0.000   0.000  -0.000   0.000   0.000  -0.000
  0.000  -0.027   0.000   0.000   0.155   0.000   0.000   0.000   0.000   0.000   0.000   0.000   0.000  -0.000   0.000  -0.000
  0.000   0.000  -0.026  -0.000   0.000   0.159   0.000   0.000   0.000   0.000   0.000   0.000   0.000   0.000  -0.000   0.000
  0.000  -0.000   0.000   0.000   0.000   0.000   2.875   0.000   0.000   0.000   0.000  -1.508  -0.000   0.000   0.000  -0.000
  0.000   0.000   0.000   0.000   0.000   0.000   0.000   2.986   0.000  -0.000   0.000   0.000  -1.855   0.000   0.000  -0.000
 -0.000   0.000   0.000   0.000   0.000   0.000   0.000   0.000   3.324   0.000   0.130   0.000   0.000  -1.819  -0.000  -0.006
 -0.000  -0.000   0.000   0.000   0.000   0.000   0.000  -0.000   0.000   2.708   0.000   0.000   0.000   0.000  -1.391   0.000
 -0.000   0.000   0.000   0.000   0.000   0.000   0.000   0.000   0.130   0.000   3.096   0.000   0.000  -0.007   0.000  -1.695
  0.000   0.000   0.000   0.000   0.000   0.000  -1.508   0.000   0.000   0.000   0.000   1.547   0.000   0.000   0.000   0.000
 -0.000   0.000  -0.000  -0.000   0.000   0.000  -0.000  -1.855   0.000   0.000   0.000   0.000   1.932   0.000   0.000   0.000
  0.000  -0.000   0.000   0.000  -0.000   0.000   0.000   0.000  -1.819   0.000  -0.007   0.000   0.000   1.610  -0.000  -0.070
  0.000   0.000  -0.000   0.000   0.000  -0.000   0.000   0.000  -0.000  -1.391   0.000   0.000   0.000  -0.000   1.543  -0.000
 -0.000  -0.000   0.000  -0.000  -0.000   0.000  -0.000  -0.000  -0.006   0.000  -1.695   0.000   0.000  -0.070  -0.000   1.571
 -0.000   0.000   0.000  -0.000  -0.000   0.000   0.000   0.000  -0.071   0.000   0.072   0.000   0.000   0.050  -0.000   0.010
  0.000  -0.000   0.000  -0.000   0.000   0.000   0.000   0.000   0.007  -0.000  -0.015   0.000   0.000  -0.004  -0.000   0.005
 total augmentation occupancy for first ion, spin component:           2
  0.002   0.000   0.000   0.009   0.000   0.000   0.000   0.000   0.000   0.000   0.000   0.000  -0.000   0.000   0.000  -0.000
  0.000   0.002   0.000   0.000   0.009   0.000   0.000   0.000   0.000   0.000  -0.000   0.000   0.000  -0.000   0.000   0.000
  0.000   0.000   0.002   0.000   0.000   0.010   0.000   0.000   0.000   0.000   0.000   0.000   0.000   0.000  -0.000   0.000
  0.009   0.000   0.000  -0.003   0.000   0.000   0.000  -0.000   0.000   0.000   0.000   0.000  -0.000   0.000  -0.000   0.000
  0.000   0.009   0.000   0.000   0.006   0.000   0.000   0.000  -0.000   0.000  -0.000   0.000   0.000   0.000   0.000   0.000
  0.000   0.000   0.010   0.000   0.000   0.008   0.000  -0.000  -0.000  -0.000   0.000   0.000   0.000   0.000   0.000   0.000
  0.000   0.000   0.000   0.000   0.000   0.000  -2.430   0.000   0.000  -0.000  -0.000   1.063   0.000   0.000  -0.000   0.000
  0.000   0.000   0.000  -0.000   0.000  -0.000   0.000  -2.321   0.000  -0.000   0.000  -0.000   0.809   0.000   0.000   0.000
  0.000   0.000   0.000   0.000  -0.000  -0.000   0.000   0.000  -2.772   0.000  -0.072   0.000   0.000   1.199  -0.000   0.118
  0.000   0.000   0.000   0.000   0.000  -0.000  -0.000  -0.000   0.000  -2.211   0.000  -0.000   0.000   0.000   0.956  -0.000
  0.000  -0.000   0.000   0.000  -0.000   0.000  -0.000   0.000  -0.072   0.000  -2.598   0.000   0.000   0.118   0.000   1.040
  0.000   0.000   0.000   0.000   0.000   0.000   1.063  -0.000   0.000  -0.000   0.000  -0.270   0.000   0.000   0.000   0.000
 -0.000   0.000   0.000  -0.000   0.000   0.000   0.000   0.809   0.000   0.000   0.000   0.000  -0.028  -0.000   0.000   0.000
  0.000  -0.000   0.000   0.000   0.000   0.000   0.000   0.000   1.199   0.000   0.118   0.000  -0.000  -0.388   0.000  -0.139
  0.000   0.000  -0.000  -0.000   0.000   0.000  -0.000   0.000  -0.000   0.956   0.000   0.000   0.000   0.000  -0.177   0.000
 -0.000   0.000   0.000   0.000   0.000   0.000   0.000   0.000   0.118  -0.000   1.040   0.000   0.000  -0.139   0.000  -0.232
  0.000   0.000  -0.000   0.000   0.000   0.000   0.000   0.000   0.011  -0.000  -0.047   0.000   0.000  -0.012   0.000   0.071
  0.000  -0.000   0.000   0.000   0.000   0.000   0.000   0.000  -0.004   0.000   0.013   0.000   0.000   0.001   0.000  -0.005


------------------------ aborting loop because EDIFF is reached ----------------------------------------





 total charge

# of ion       s       p       d       tot
------------------------------------------
    1        0.334   6.286   6.005  12.625
    2        0.327   6.280   5.971  12.578
    3        0.327   6.280   5.971  12.578
    4        0.333   6.288   5.969  12.590
    5        0.333   6.288   5.968  12.590
    6        0.330   6.287   5.964  12.581
    7        0.334   6.286   6.005  12.625
    8        0.327   6.280   5.971  12.578
    9        0.327   6.280   5.971  12.578
   10        0.733   0.592   8.005   9.330
   11        0.733   0.592   8.005   9.330
   12        0.718   0.619   7.999   9.336
--------------------------------------------------
tot          5.157  58.358  77.804 141.318



 magnetization (x)

# of ion       s       p       d       tot
------------------------------------------
    1       -0.008   0.009  -2.766  -2.764
    2        0.012   0.002   2.760   2.775
    3        0.012   0.002   2.760   2.775
    4       -0.016  -0.025  -2.757  -2.798
    5       -0.016  -0.025  -2.757  -2.798
    6        0.006  -0.017   2.939   2.928
    7       -0.008   0.009  -2.766  -2.764
    8        0.012   0.002   2.760   2.775
    9        0.012   0.002   2.760   2.775
   10        0.007   0.018  -0.103  -0.078
   11        0.007   0.018  -0.103  -0.078
   12       -0.039  -0.090   0.380   0.251
--------------------------------------------------
tot         -0.016  -0.096   3.109   2.997
 
    CHARGE:  cpu time      0.1539: real time      0.1549
    FORLOC:  cpu time      0.0016: real time      0.0016
    FORNL :  cpu time      0.6029: real time      0.6063
    STRESS:  cpu time      4.5788: real time      4.6144
    FORCOR:  cpu time      0.0223: real time      0.0224
    FORHAR:  cpu time      0.0037: real time      0.0038
    MIXING:  cpu time      0.0924: real time      0.0928
    OFIELD:  cpu time      0.0017: real time      0.0018

  FORCE on cell =-STRESS in cart. coord.  units (eV):
  Direction    XX          YY          ZZ          XY          YZ          ZX
  --------------------------------------------------------------------------------------
  Alpha Z  1007.04219  1007.04219  1007.04219
  Ewald   -5843.67157 -5843.67157 -5908.33051     0.00000    -0.00000    -0.00000
  Hartree  1988.74672  1988.74672  1928.83894    -0.00000    -0.00000    -0.00000
  E(xc)    -941.61228  -941.61228  -941.54160     0.00000     0.00000    -0.00000
  Local     878.37565   878.37565  1013.66911     0.00000    -0.00000    -0.00000
  n-local  -227.36270  -242.47721  -235.89333    13.08238     0.00639    -0.04813
  augment  1443.08946  1443.08946  1436.91345    -0.00000     0.00000    -0.00000
  Kinetic  1696.27019  1682.60786  1686.04854     1.30623     0.29575     0.51298
  Fock        0.00000     0.00000     0.00000     0.00000     0.00000     0.00000
  -------------------------------------------------------------------------------------
  Total     -13.51076   -13.51076   -13.25323     0.00000     0.00000     0.00000
  in kB    -128.08656  -128.08656  -125.64508     0.00000     0.00000     0.00000
  external pressure =     -127.27 kB  Pullay stress =        0.00 kB


 VOLUME and BASIS-vectors are now :
 -----------------------------------------------------------------------------
  energy-cutoff  :      520.00
  volume of cell :      169.00
      direct lattice vectors                 reciprocal lattice vectors
     3.807387975  0.000000000  0.000000000     0.262647255  0.000000000  0.000000000
     0.000000000  3.807387975  0.000000000     0.000000000  0.262647255  0.000000000
     0.000000000  0.000000000 11.658225105     0.000000000  0.000000000  0.085776350

  length of vectors
     3.807387975  3.807387975 11.658225105     0.262647255  0.262647255  0.085776350


 FORCES acting on ions
    electron-ion (+dipol)            ewald-force                    non-local-force                 convergence-correction
 -----------------------------------------------------------------------------------------------
   -.115E-12 0.128E-11 -.294E+00   -.825E-14 0.770E-14 0.295E+00   -.440E-22 -.292E-22 -.757E-05   0.804E-13 0.260E-13 -.334E-03
   -.100E-12 0.208E-11 -.915E+01   -.406E-13 -.127E-13 0.103E+02   -.280E-18 0.217E-17 -.117E+01   0.609E-13 -.429E-15 0.659E-02
   -.982E-13 0.261E-11 0.938E+01   0.267E-14 -.176E-14 -.105E+02   -.103E-18 0.111E-17 0.117E+01   0.469E-13 0.437E-13 -.587E-02
   0.106E-11 -.400E-11 0.166E+03   -.239E-13 -.469E-14 -.163E+03   0.360E-18 -.152E-17 -.260E+01   -.674E-13 0.481E-13 0.866E-03
   0.945E-12 -.343E-11 -.166E+03   0.115E-13 -.315E-13 0.164E+03   -.486E-18 -.113E-17 0.260E+01   -.132E-12 0.264E-13 -.581E-02
   0.106E-11 0.800E-11 0.452E+00   0.266E-13 -.143E-13 -.456E+00   0.536E-21 0.144E-21 -.136E-02   -.944E-13 0.374E-13 0.507E-02
   0.105E-11 -.563E-13 -.294E+00   0.308E-13 0.325E-13 0.295E+00   0.729E-22 -.105E-21 -.757E-05   -.974E-13 0.147E-13 -.334E-03
   0.106E-11 -.123E-12 -.915E+01   0.321E-14 0.165E-13 0.103E+02   -.278E-18 -.257E-18 -.117E+01   -.924E-13 0.658E-13 0.659E-02
   0.105E-11 0.574E-12 0.938E+01   0.353E-13 -.131E-13 -.105E+02   -.785E-18 -.450E-18 0.117E+01   -.860E-13 0.552E-14 -.587E-02
   -.663E-13 0.821E-13 0.465E+02   0.903E-14 0.344E-14 -.469E+02   0.138E-17 0.112E-17 0.361E+00   0.503E-13 0.744E-14 0.149E-03
   -.404E-13 -.116E-12 -.468E+02   -.299E-13 0.199E-13 0.472E+02   -.326E-18 -.430E-19 -.360E+00   0.453E-13 -.622E-14 -.399E-02
   -.575E-13 -.285E-13 0.313E+00   -.304E-13 0.642E-14 -.316E+00   -.100E-22 0.527E-22 -.213E-02   0.483E-13 -.502E-14 0.361E-02
 -----------------------------------------------------------------------------------------------
   0.575E-11 0.687E-11 0.585E-03   -.141E-13 0.848E-14 -.107E-12   -.513E-18 0.998E-18 -.116E-02   -.237E-12 0.263E-12 0.642E-03
 
 
 POSITION                                       TOTAL-FORCE (eV/Angst)
 -----------------------------------------------------------------------------------
      0.00000      1.90369      1.94290        -0.000000      0.000000      0.000295
      0.00000      1.90369      5.82813        -0.000000      0.000000     -0.005359
      0.00000      1.90369      9.71627        -0.000000      0.000000      0.005555
      1.90369      1.90369      0.13548        -0.000000      0.000000      0.004812
      1.90369      1.90369      3.75048        -0.000000     -0.000000     -0.004848
      1.90369      1.90369      7.77238         0.000000     -0.000000     -0.000749
      1.90369      0.00000      1.94290        -0.000000      0.000000      0.000295
      1.90369      0.00000      5.82813         0.000000      0.000000     -0.005359
      1.90369      0.00000      9.71627        -0.000000      0.000000      0.005555
      0.00000      0.00000     11.61658        -0.000000      0.000000     -0.027078
      0.00000      0.00000      3.92748        -0.000000      0.000000      0.028424
      0.00000      0.00000      7.77235        -0.000000      0.000000     -0.001542
 -----------------------------------------------------------------------------------
    total drift:                                0.000000      0.000000      0.000065


--------------------------------------------------------------------------------------------------------



  FREE ENERGIE OF THE ION-ELECTRON SYSTEM (eV)
  ---------------------------------------------------
  free  energy   TOTEN  =       -92.74685965 eV

  energy  without entropy=      -92.74685965  energy(sigma->0) =      -92.74685965
 


--------------------------------------------------------------------------------------------------------


    POTLOK:  cpu time      0.0375: real time      0.0379


--------------------------------------------------------------------------------------------------------


     LOOP+:  cpu time    172.0029: real time    174.4540
 -----------------------------------------------------------------------------
|                                                                             |
|           W    W    AA    RRRRR   N    N  II  N    N   GGGG   !!!           |
|           W    W   A  A   R    R  NN   N  II  NN   N  G    G  !!!           |
|           W    W  A    A  R    R  N N  N  II  N N  N  G       !!!           |
|           W WW W  AAAAAA  RRRRR   N  N N  II  N  N N  G  GGG   !            |
|           WW  WW  A    A  R   R   N   NN  II  N   NN  G    G                |
|           W    W  A    A  R    R  N    N  II  N    N   GGGG   !!!           |
|                                                                             |
|     Tetrahedron method does not include variations of the Fermi             |
|     occupations, so forces and stress will be inaccurate. We suggest        |
|     using a different smearing scheme ISMEAR = 1 or 2 for metals in         |
|     relaxations.                                                            |
|                                                                             |
 -----------------------------------------------------------------------------

    4ORBIT:  cpu time      0.0000: real time      0.0000



 total charge

# of ion       s       p       d       tot
------------------------------------------
    1        0.334   6.286   6.005  12.625
    2        0.327   6.280   5.971  12.578
    3        0.327   6.280   5.971  12.578
    4        0.333   6.288   5.969  12.590
    5        0.333   6.288   5.968  12.590
    6        0.330   6.287   5.964  12.581
    7        0.334   6.286   6.005  12.625
    8        0.327   6.280   5.971  12.578
    9        0.327   6.280   5.971  12.578
   10        0.733   0.592   8.005   9.330
   11        0.733   0.592   8.005   9.330
   12        0.718   0.619   7.999   9.336
--------------------------------------------------
tot          5.157  58.358  77.804 141.318



 magnetization (x)

# of ion       s       p       d       tot
------------------------------------------
    1       -0.008   0.009  -2.766  -2.764
    2        0.012   0.002   2.760   2.775
    3        0.012   0.002   2.760   2.775
    4       -0.016  -0.025  -2.757  -2.798
    5       -0.016  -0.025  -2.757  -2.798
    6        0.006  -0.017   2.939   2.928
    7       -0.008   0.009  -2.766  -2.764
    8        0.012   0.002   2.760   2.775
    9        0.012   0.002   2.760   2.775
   10        0.007   0.018  -0.103  -0.078
   11        0.007   0.018  -0.103  -0.078
   12       -0.039  -0.090   0.380   0.251
--------------------------------------------------
tot         -0.016  -0.096   3.109   2.997
 
 BZINTS: Fermi energy:    8.809368;  156.000000 electrons
         Band energy:-0.178504E+04;  BLOECHL correction:   -0.024204

 total amount of memory used by VASP MPI-rank0   188913. kBytes
=======================================================================

   base      :      30000. kBytes
   nonl-proj :     111581. kBytes
   fftplans  :        955. kBytes
   grid      :       7297. kBytes
   one-center:        373. kBytes
   wavefun   :      38707. kBytes
 
  
  
 General timing and accounting informations for this job:
 ========================================================
  
                  Total CPU time used (sec):      188.955
                            User time (sec):      181.314
                          System time (sec):        7.641
                         Elapsed time (sec):      198.558
  
                   Maximum memory used (kb):      798956.
                   Average memory used (kb):          N/A
  
                          Minor page faults:       179584
                          Major page faults:          136
                 Voluntary context switches:         7117
