  16  16   1   0
  0.2037500E+02  0.7543445E-09  0.7543445E-09  0.5824082E-09  0.5000000E-15
  1.000000000000000E-004
  CAR 
 unknown system                          
     10.81294135    -54.43724284  301      3.39514285      1.00000000
    -54.437  0.0000E+00  0.0000E+00  0.0000E+00  0.0000E+00
    -54.220  0.0000E+00  0.0000E+00  0.0000E+00  0.0000E+00
    -54.002  0.0000E+00  0.0000E+00  0.0000E+00  0.0000E+00
    -53.785  0.0000E+00  0.0000E+00  0.0000E+00  0.0000E+00
    -53.567  0.0000E+00  0.0000E+00  0.0000E+00  0.0000E+00
    -53.350  0.0000E+00  0.0000E+00  0.0000E+00  0.0000E+00
    -53.132  0.0000E+00  0.0000E+00  0.0000E+00  0.0000E+00
    -52.915  0.0000E+00  0.0000E+00  0.0000E+00  0.0000E+00
    -52.697  0.0000E+00  0.0000E+00  0.0000E+00  0.0000E+00
    -52.480  0.0000E+00  0.0000E+00  0.0000E+00  0.0000E+00
    -52.262  0.0000E+00  0.0000E+00  0.0000E+00  0.0000E+00
    -52.045  0.0000E+00  0.0000E+00  0.0000E+00  0.0000E+00
    -51.827  0.0000E+00  0.0000E+00  0.0000E+00  0.0000E+00
    -51.610  0.4368E-05  0.4368E-05  0.9500E-06  0.9500E-06
    -51.392  0.1824E+00  0.1824E+00  0.3968E-01  0.3968E-01
    -51.175  0.2790E+00  0.2790E+00  0.1004E+00  0.1004E+00
    -50.957  0.9470E-01  0.9470E-01  0.1210E+00  0.1210E+00
    -50.740  0.1149E-02  0.1149E-02  0.1212E+00  0.1212E+00
    -50.522  0.0000E+00  0.0000E+00  0.1212E+00  0.1212E+00
    -50.305  0.0000E+00  0.0000E+00  0.1212E+00  0.1212E+00
    -50.087  0.0000E+00  0.0000E+00  0.1212E+00  0.1212E+00
    -49.870  0.0000E+00  0.0000E+00  0.1212E+00  0.1212E+00
    -49.652  0.0000E+00  0.0000E+00  0.1212E+00  0.1212E+00
    -49.435  0.0000E+00  0.0000E+00  0.1212E+00  0.1212E+00
    -49.217  0.0000E+00  0.0000E+00  0.1212E+00  0.1212E+00
    -49.000  0.0000E+00  0.0000E+00  0.1212E+00  0.1212E+00
    -48.782  0.3688E-09  0.3688E-09  0.1212E+00  0.1212E+00
    -48.565  0.1195E+00  0.1195E+00  0.1472E+00  0.1472E+00
    -48.347  0.1692E+00  0.1692E+00  0.1840E+00  0.1840E+00
    -48.130  0.2680E+00  0.2680E+00  0.2423E+00  0.2423E+00
    -47.912  0.5743E-03  0.5743E-03  0.2424E+00  0.2424E+00
    -47.695  0.0000E+00  0.0000E+00  0.2424E+00  0.2424E+00
    -47.477  0.0000E+00  0.0000E+00  0.2424E+00  0.2424E+00
    -47.260  0.0000E+00  0.0000E+00  0.2424E+00  0.2424E+00
    -47.042  0.0000E+00  0.0000E+00  0.2424E+00  0.2424E+00
    -46.825  0.0000E+00  0.0000E+00  0.2424E+00  0.2424E+00
    -46.607  0.0000E+00  0.0000E+00  0.2424E+00  0.2424E+00
    -46.390  0.0000E+00  0.0000E+00  0.2424E+00  0.2424E+00
    -46.172  0.0000E+00  0.0000E+00  0.2424E+00  0.2424E+00
    -45.955  0.0000E+00  0.0000E+00  0.2424E+00  0.2424E+00
    -45.737  0.0000E+00  0.0000E+00  0.2424E+00  0.2424E+00
    -45.520  0.0000E+00  0.0000E+00  0.2424E+00  0.2424E+00
    -45.302  0.0000E+00  0.0000E+00  0.2424E+00  0.2424E+00
    -45.085  0.0000E+00  0.0000E+00  0.2424E+00  0.2424E+00
    -44.867  0.0000E+00  0.0000E+00  0.2424E+00  0.2424E+00
    -44.650  0.0000E+00  0.0000E+00  0.2424E+00  0.2424E+00
    -44.432  0.0000E+00  0.0000E+00  0.2424E+00  0.2424E+00
    -44.215  0.0000E+00  0.0000E+00  0.2424E+00  0.2424E+00
    -43.997  0.0000E+00  0.0000E+00  0.2424E+00  0.2424E+00
    -43.780  0.0000E+00  0.0000E+00  0.2424E+00  0.2424E+00
    -43.562  0.0000E+00  0.0000E+00  0.2424E+00  0.2424E+00
    -43.345  0.0000E+00  0.0000E+00  0.2424E+00  0.2424E+00
    -43.127  0.0000E+00  0.0000E+00  0.2424E+00  0.2424E+00
    -42.910  0.0000E+00  0.0000E+00  0.2424E+00  0.2424E+00
    -42.692  0.0000E+00  0.0000E+00  0.2424E+00  0.2424E+00
    -42.475  0.0000E+00  0.0000E+00  0.2424E+00  0.2424E+00
    -42.257  0.0000E+00  0.0000E+00  0.2424E+00  0.2424E+00
    -42.040  0.0000E+00  0.0000E+00  0.2424E+00  0.2424E+00
    -41.822  0.0000E+00  0.0000E+00  0.2424E+00  0.2424E+00
    -41.605  0.0000E+00  0.0000E+00  0.2424E+00  0.2424E+00
    -41.387  0.0000E+00  0.0000E+00  0.2424E+00  0.2424E+00
    -41.170  0.0000E+00  0.0000E+00  0.2424E+00  0.2424E+00
    -40.952  0.0000E+00  0.0000E+00  0.2424E+00  0.2424E+00
    -40.735  0.0000E+00  0.0000E+00  0.2424E+00  0.2424E+00
    -40.517  0.0000E+00  0.0000E+00  0.2424E+00  0.2424E+00
    -40.300  0.0000E+00  0.0000E+00  0.2424E+00  0.2424E+00
    -40.082  0.0000E+00  0.0000E+00  0.2424E+00  0.2424E+00
    -39.865  0.0000E+00  0.0000E+00  0.2424E+00  0.2424E+00
    -39.647  0.0000E+00  0.0000E+00  0.2424E+00  0.2424E+00
    -39.430  0.0000E+00  0.0000E+00  0.2424E+00  0.2424E+00
    -39.212  0.0000E+00  0.0000E+00  0.2424E+00  0.2424E+00
    -38.995  0.0000E+00  0.0000E+00  0.2424E+00  0.2424E+00
    -38.777  0.0000E+00  0.0000E+00  0.2424E+00  0.2424E+00
    -38.560  0.0000E+00  0.0000E+00  0.2424E+00  0.2424E+00
    -38.342  0.0000E+00  0.0000E+00  0.2424E+00  0.2424E+00
    -38.125  0.0000E+00  0.0000E+00  0.2424E+00  0.2424E+00
    -37.907  0.0000E+00  0.0000E+00  0.2424E+00  0.2424E+00
    -37.690  0.0000E+00  0.0000E+00  0.2424E+00  0.2424E+00
    -37.472  0.0000E+00  0.0000E+00  0.2424E+00  0.2424E+00
    -37.255  0.0000E+00  0.0000E+00  0.2424E+00  0.2424E+00
    -37.037  0.0000E+00  0.0000E+00  0.2424E+00  0.2424E+00
    -36.820  0.0000E+00  0.0000E+00  0.2424E+00  0.2424E+00
    -36.602  0.0000E+00  0.0000E+00  0.2424E+00  0.2424E+00
    -36.385  0.0000E+00  0.0000E+00  0.2424E+00  0.2424E+00
    -36.167  0.0000E+00  0.0000E+00  0.2424E+00  0.2424E+00
    -35.950  0.0000E+00  0.0000E+00  0.2424E+00  0.2424E+00
    -35.732  0.0000E+00  0.0000E+00  0.2424E+00  0.2424E+00
    -35.515  0.0000E+00  0.0000E+00  0.2424E+00  0.2424E+00
    -35.297  0.0000E+00  0.0000E+00  0.2424E+00  0.2424E+00
    -35.080  0.0000E+00  0.0000E+00  0.2424E+00  0.2424E+00
    -34.862  0.0000E+00  0.0000E+00  0.2424E+00  0.2424E+00
    -34.645  0.0000E+00  0.0000E+00  0.2424E+00  0.2424E+00
    -34.427  0.0000E+00  0.0000E+00  0.2424E+00  0.2424E+00
    -34.210  0.0000E+00  0.0000E+00  0.2424E+00  0.2424E+00
    -33.992  0.0000E+00  0.0000E+00  0.2424E+00  0.2424E+00
    -33.775  0.0000E+00  0.0000E+00  0.2424E+00  0.2424E+00
    -33.557  0.0000E+00  0.0000E+00  0.2424E+00  0.2424E+00
    -33.340  0.0000E+00  0.0000E+00  0.2424E+00  0.2424E+00
    -33.122  0.0000E+00  0.0000E+00  0.2424E+00  0.2424E+00
    -32.905  0.0000E+00  0.0000E+00  0.2424E+00  0.2424E+00
    -32.687  0.0000E+00  0.0000E+00  0.2424E+00  0.2424E+00
    -32.470  0.0000E+00  0.0000E+00  0.2424E+00  0.2424E+00
    -32.252  0.0000E+00  0.0000E+00  0.2424E+00  0.2424E+00
    -32.035  0.0000E+00  0.0000E+00  0.2424E+00  0.2424E+00
    -31.817  0.0000E+00  0.0000E+00  0.2424E+00  0.2424E+00
    -31.600  0.0000E+00  0.0000E+00  0.2424E+00  0.2424E+00
    -31.382  0.0000E+00  0.0000E+00  0.2424E+00  0.2424E+00
    -31.165  0.0000E+00  0.0000E+00  0.2424E+00  0.2424E+00
    -30.947  0.0000E+00  0.0000E+00  0.2424E+00  0.2424E+00
    -30.730  0.0000E+00  0.0000E+00  0.2424E+00  0.2424E+00
    -30.512  0.0000E+00  0.0000E+00  0.2424E+00  0.2424E+00
    -30.295  0.0000E+00  0.0000E+00  0.2424E+00  0.2424E+00
    -30.077  0.0000E+00  0.0000E+00  0.2424E+00  0.2424E+00
    -29.860  0.0000E+00  0.0000E+00  0.2424E+00  0.2424E+00
    -29.642  0.0000E+00  0.0000E+00  0.2424E+00  0.2424E+00
    -29.425  0.0000E+00  0.0000E+00  0.2424E+00  0.2424E+00
    -29.207  0.0000E+00  0.0000E+00  0.2424E+00  0.2424E+00
    -28.990  0.0000E+00  0.0000E+00  0.2424E+00  0.2424E+00
    -28.772  0.0000E+00  0.0000E+00  0.2424E+00  0.2424E+00
    -28.555  0.0000E+00  0.0000E+00  0.2424E+00  0.2424E+00
    -28.337  0.0000E+00  0.0000E+00  0.2424E+00  0.2424E+00
    -28.120  0.0000E+00  0.0000E+00  0.2424E+00  0.2424E+00
    -27.902  0.0000E+00  0.0000E+00  0.2424E+00  0.2424E+00
    -27.685  0.0000E+00  0.0000E+00  0.2424E+00  0.2424E+00
    -27.467  0.0000E+00  0.0000E+00  0.2424E+00  0.2424E+00
    -27.250  0.0000E+00  0.0000E+00  0.2424E+00  0.2424E+00
    -27.032  0.0000E+00  0.0000E+00  0.2424E+00  0.2424E+00
    -26.815  0.0000E+00  0.0000E+00  0.2424E+00  0.2424E+00
    -26.597  0.0000E+00  0.0000E+00  0.2424E+00  0.2424E+00
    -26.380  0.0000E+00  0.0000E+00  0.2424E+00  0.2424E+00
    -26.162  0.0000E+00  0.0000E+00  0.2424E+00  0.2424E+00
    -25.945  0.0000E+00  0.0000E+00  0.2424E+00  0.2424E+00
    -25.727  0.0000E+00  0.0000E+00  0.2424E+00  0.2424E+00
    -25.510  0.0000E+00  0.0000E+00  0.2424E+00  0.2424E+00
    -25.292  0.0000E+00  0.0000E+00  0.2424E+00  0.2424E+00
    -25.075  0.0000E+00  0.0000E+00  0.2424E+00  0.2424E+00
    -24.857  0.0000E+00  0.0000E+00  0.2424E+00  0.2424E+00
    -24.640  0.0000E+00  0.0000E+00  0.2424E+00  0.2424E+00
    -24.422  0.0000E+00  0.0000E+00  0.2424E+00  0.2424E+00
    -24.205  0.0000E+00  0.0000E+00  0.2424E+00  0.2424E+00
    -23.987  0.0000E+00  0.0000E+00  0.2424E+00  0.2424E+00
    -23.770  0.0000E+00  0.0000E+00  0.2424E+00  0.2424E+00
    -23.552  0.0000E+00  0.0000E+00  0.2424E+00  0.2424E+00
    -23.335  0.0000E+00  0.0000E+00  0.2424E+00  0.2424E+00
    -23.117  0.0000E+00  0.0000E+00  0.2424E+00  0.2424E+00
    -22.900  0.0000E+00  0.0000E+00  0.2424E+00  0.2424E+00
    -22.682  0.0000E+00  0.0000E+00  0.2424E+00  0.2424E+00
    -22.465  0.0000E+00  0.0000E+00  0.2424E+00  0.2424E+00
    -22.247  0.0000E+00  0.0000E+00  0.2424E+00  0.2424E+00
    -22.030  0.0000E+00  0.0000E+00  0.2424E+00  0.2424E+00
    -21.812  0.0000E+00  0.0000E+00  0.2424E+00  0.2424E+00
    -21.595  0.0000E+00  0.0000E+00  0.2424E+00  0.2424E+00
    -21.377  0.0000E+00  0.0000E+00  0.2424E+00  0.2424E+00
    -21.160  0.0000E+00  0.0000E+00  0.2424E+00  0.2424E+00
    -20.942  0.0000E+00  0.0000E+00  0.2424E+00  0.2424E+00
    -20.725  0.0000E+00  0.0000E+00  0.2424E+00  0.2424E+00
    -20.507  0.0000E+00  0.0000E+00  0.2424E+00  0.2424E+00
    -20.290  0.0000E+00  0.0000E+00  0.2424E+00  0.2424E+00
    -20.072  0.0000E+00  0.0000E+00  0.2424E+00  0.2424E+00
    -19.855  0.0000E+00  0.0000E+00  0.2424E+00  0.2424E+00
    -19.637  0.0000E+00  0.0000E+00  0.2424E+00  0.2424E+00
    -19.420  0.0000E+00  0.0000E+00  0.2424E+00  0.2424E+00
    -19.202  0.0000E+00  0.0000E+00  0.2424E+00  0.2424E+00
    -18.985  0.0000E+00  0.0000E+00  0.2424E+00  0.2424E+00
    -18.767  0.0000E+00  0.0000E+00  0.2424E+00  0.2424E+00
    -18.550  0.0000E+00  0.0000E+00  0.2424E+00  0.2424E+00
    -18.332  0.0000E+00  0.0000E+00  0.2424E+00  0.2424E+00
    -18.115  0.0000E+00  0.0000E+00  0.2424E+00  0.2424E+00
    -17.897  0.0000E+00  0.0000E+00  0.2424E+00  0.2424E+00
    -17.680  0.0000E+00  0.0000E+00  0.2424E+00  0.2424E+00
    -17.462  0.0000E+00  0.0000E+00  0.2424E+00  0.2424E+00
    -17.245  0.0000E+00  0.0000E+00  0.2424E+00  0.2424E+00
    -17.027  0.0000E+00  0.0000E+00  0.2424E+00  0.2424E+00
    -16.810  0.0000E+00  0.0000E+00  0.2424E+00  0.2424E+00
    -16.592  0.0000E+00  0.0000E+00  0.2424E+00  0.2424E+00
    -16.375  0.0000E+00  0.0000E+00  0.2424E+00  0.2424E+00
    -16.157  0.0000E+00  0.0000E+00  0.2424E+00  0.2424E+00
    -15.940  0.0000E+00  0.0000E+00  0.2424E+00  0.2424E+00
    -15.722  0.0000E+00  0.0000E+00  0.2424E+00  0.2424E+00
    -15.505  0.0000E+00  0.0000E+00  0.2424E+00  0.2424E+00
    -15.287  0.0000E+00  0.0000E+00  0.2424E+00  0.2424E+00
    -15.070  0.0000E+00  0.0000E+00  0.2424E+00  0.2424E+00
    -14.852  0.0000E+00  0.0000E+00  0.2424E+00  0.2424E+00
    -14.635  0.0000E+00  0.0000E+00  0.2424E+00  0.2424E+00
    -14.417  0.0000E+00  0.0000E+00  0.2424E+00  0.2424E+00
    -14.200  0.0000E+00  0.0000E+00  0.2424E+00  0.2424E+00
    -13.982  0.0000E+00  0.0000E+00  0.2424E+00  0.2424E+00
    -13.765  0.0000E+00  0.0000E+00  0.2424E+00  0.2424E+00
    -13.547  0.0000E+00  0.0000E+00  0.2424E+00  0.2424E+00
    -13.330  0.0000E+00  0.0000E+00  0.2424E+00  0.2424E+00
    -13.112  0.0000E+00  0.0000E+00  0.2424E+00  0.2424E+00
    -12.895  0.0000E+00  0.0000E+00  0.2424E+00  0.2424E+00
    -12.677  0.0000E+00  0.0000E+00  0.2424E+00  0.2424E+00
    -12.460  0.0000E+00  0.0000E+00  0.2424E+00  0.2424E+00
    -12.242  0.0000E+00  0.0000E+00  0.2424E+00  0.2424E+00
    -12.025  0.0000E+00  0.0000E+00  0.2424E+00  0.2424E+00
    -11.807  0.0000E+00  0.0000E+00  0.2424E+00  0.2424E+00
    -11.590  0.0000E+00  0.0000E+00  0.2424E+00  0.2424E+00
    -11.372  0.0000E+00  0.0000E+00  0.2424E+00  0.2424E+00
    -11.155  0.0000E+00  0.0000E+00  0.2424E+00  0.2424E+00
    -10.937  0.1052E-18  0.1052E-18  0.2424E+00  0.2424E+00
    -10.720  0.6739E-05  0.6739E-05  0.2424E+00  0.2424E+00
    -10.502  0.5459E-02  0.5459E-02  0.2436E+00  0.2436E+00
    -10.285  0.1614E-01  0.1614E-01  0.2471E+00  0.2471E+00
    -10.067  0.2669E-01  0.2669E-01  0.2529E+00  0.2529E+00
     -9.850  0.3691E-01  0.3691E-01  0.2610E+00  0.2610E+00
     -9.632  0.7068E-01  0.7068E-01  0.2763E+00  0.2763E+00
     -9.415  0.9758E-01  0.9758E-01  0.2976E+00  0.2976E+00
     -9.197  0.9714E-01  0.9714E-01  0.3187E+00  0.3187E+00
     -8.980  0.2074E-01  0.2074E-01  0.3232E+00  0.3232E+00
     -8.762  0.1924E-03  0.1924E-03  0.3232E+00  0.3232E+00
     -8.545  0.0000E+00  0.0000E+00  0.3232E+00  0.3232E+00
     -8.327  0.0000E+00  0.0000E+00  0.3232E+00  0.3232E+00
     -8.110  0.0000E+00  0.0000E+00  0.3232E+00  0.3232E+00
     -7.892  0.0000E+00  0.0000E+00  0.3232E+00  0.3232E+00
     -7.675  0.0000E+00  0.0000E+00  0.3232E+00  0.3232E+00
     -7.457  0.0000E+00  0.0000E+00  0.3232E+00  0.3232E+00
     -7.240  0.0000E+00  0.0000E+00  0.3232E+00  0.3232E+00
     -7.022  0.0000E+00  0.0000E+00  0.3232E+00  0.3232E+00
     -6.805  0.0000E+00  0.0000E+00  0.3232E+00  0.3232E+00
     -6.587  0.0000E+00  0.0000E+00  0.3232E+00  0.3232E+00
     -6.370  0.0000E+00  0.0000E+00  0.3232E+00  0.3232E+00
     -6.152  0.0000E+00  0.0000E+00  0.3232E+00  0.3232E+00
     -5.935  0.0000E+00  0.0000E+00  0.3232E+00  0.3232E+00
     -5.717  0.0000E+00  0.0000E+00  0.3232E+00  0.3232E+00
     -5.500  0.0000E+00  0.0000E+00  0.3232E+00  0.3232E+00
     -5.282  0.0000E+00  0.0000E+00  0.3232E+00  0.3232E+00
     -5.065  0.0000E+00  0.0000E+00  0.3232E+00  0.3232E+00
     -4.847  0.0000E+00  0.0000E+00  0.3232E+00  0.3232E+00
     -4.630  0.0000E+00  0.0000E+00  0.3232E+00  0.3232E+00
     -4.412  0.0000E+00  0.0000E+00  0.3232E+00  0.3232E+00
     -4.195  0.0000E+00  0.0000E+00  0.3232E+00  0.3232E+00
     -3.977  0.0000E+00  0.0000E+00  0.3232E+00  0.3232E+00
     -3.760  0.0000E+00  0.0000E+00  0.3232E+00  0.3232E+00
     -3.542  0.0000E+00  0.0000E+00  0.3232E+00  0.3232E+00
     -3.325  0.0000E+00  0.0000E+00  0.3232E+00  0.3232E+00
     -3.107  0.0000E+00  0.0000E+00  0.3232E+00  0.3232E+00
     -2.890  0.0000E+00  0.0000E+00  0.3232E+00  0.3232E+00
     -2.672  0.1176E-06  0.1176E-06  0.3232E+00  0.3232E+00
     -2.455  0.1085E-02  0.1085E-02  0.3235E+00  0.3235E+00
     -2.237  0.5344E-02  0.5344E-02  0.3246E+00  0.3246E+00
     -2.020  0.2522E-01  0.2522E-01  0.3301E+00  0.3301E+00
     -1.802  0.6602E-01  0.6602E-01  0.3445E+00  0.3445E+00
     -1.585  0.7915E-01  0.7915E-01  0.3617E+00  0.3617E+00
     -1.367  0.5658E-01  0.5658E-01  0.3740E+00  0.3740E+00
     -1.150  0.6095E-01  0.6095E-01  0.3873E+00  0.3873E+00
     -0.932  0.7276E-01  0.7276E-01  0.4031E+00  0.4031E+00
     -0.715  0.7959E-01  0.7959E-01  0.4204E+00  0.4204E+00
     -0.497  0.8750E-01  0.8750E-01  0.4394E+00  0.4394E+00
     -0.280  0.1181E+00  0.1181E+00  0.4651E+00  0.4651E+00
     -0.062  0.1016E+00  0.1016E+00  0.4872E+00  0.4872E+00
      0.155  0.1105E+00  0.1105E+00  0.5113E+00  0.5113E+00
      0.373  0.1046E+00  0.1046E+00  0.5340E+00  0.5340E+00
      0.590  0.7509E-01  0.7509E-01  0.5503E+00  0.5503E+00
      0.808  0.7836E-01  0.7836E-01  0.5674E+00  0.5674E+00
      1.025  0.1146E+00  0.1146E+00  0.5923E+00  0.5923E+00
      1.243  0.1133E+00  0.1133E+00  0.6169E+00  0.6169E+00
      1.460  0.1889E+00  0.1889E+00  0.6580E+00  0.6580E+00
      1.678  0.1757E+00  0.1757E+00  0.6962E+00  0.6962E+00
      1.895  0.8674E-01  0.8674E-01  0.7151E+00  0.7151E+00
      2.113  0.8390E-01  0.8390E-01  0.7333E+00  0.7333E+00
      2.330  0.6021E-01  0.6021E-01  0.7464E+00  0.7464E+00
      2.548  0.6350E-01  0.6350E-01  0.7602E+00  0.7602E+00
      2.765  0.4130E-01  0.4130E-01  0.7692E+00  0.7692E+00
      2.983  0.4300E-01  0.4300E-01  0.7786E+00  0.7786E+00
      3.200  0.5715E-01  0.5715E-01  0.7910E+00  0.7910E+00
      3.418  0.8623E-01  0.8623E-01  0.8098E+00  0.8098E+00
      3.635  0.6681E-01  0.6681E-01  0.8243E+00  0.8243E+00
      3.853  0.1456E+00  0.1456E+00  0.8560E+00  0.8560E+00
      4.070  0.1078E+00  0.1078E+00  0.8794E+00  0.8794E+00
      4.288  0.1092E+00  0.1092E+00  0.9032E+00  0.9032E+00
      4.505  0.9103E-01  0.9103E-01  0.9230E+00  0.9230E+00
      4.723  0.9490E-01  0.9490E-01  0.9436E+00  0.9436E+00
      4.940  0.7179E-01  0.7179E-01  0.9592E+00  0.9592E+00
      5.158  0.1096E-01  0.1096E-01  0.9616E+00  0.9616E+00
      5.375  0.1197E-01  0.1197E-01  0.9642E+00  0.9642E+00
      5.593  0.1472E-01  0.1472E-01  0.9674E+00  0.9674E+00
      5.810  0.9746E-02  0.9746E-02  0.9695E+00  0.9695E+00
      6.028  0.5174E-02  0.5174E-02  0.9706E+00  0.9706E+00
      6.245  0.6569E-02  0.6569E-02  0.9721E+00  0.9721E+00
      6.463  0.6843E-02  0.6843E-02  0.9736E+00  0.9736E+00
      6.680  0.1337E-01  0.1337E-01  0.9765E+00  0.9765E+00
      6.898  0.2218E-01  0.2219E-01  0.9813E+00  0.9813E+00
      7.115  0.3034E-01  0.3034E-01  0.9879E+00  0.9879E+00
      7.333  0.4720E-01  0.4713E-01  0.9982E+00  0.9981E+00
      7.550  0.3681E-01  0.3689E-01  0.1006E+01  0.1006E+01
      7.768  0.1440E-01  0.1425E-01  0.1009E+01  0.1009E+01
      7.985  0.3692E-02  0.3826E-02  0.1010E+01  0.1010E+01
      8.203  0.3778E-07  0.4867E-07  0.1010E+01  0.1010E+01
      8.420  0.0000E+00  0.0000E+00  0.1010E+01  0.1010E+01
      8.638  0.0000E+00  0.0000E+00  0.1010E+01  0.1010E+01
      8.855  0.0000E+00  0.0000E+00  0.1010E+01  0.1010E+01
      9.073  0.0000E+00  0.0000E+00  0.1010E+01  0.1010E+01
      9.290  0.0000E+00  0.0000E+00  0.1010E+01  0.1010E+01
      9.508  0.0000E+00  0.0000E+00  0.1010E+01  0.1010E+01
      9.725  0.0000E+00  0.0000E+00  0.1010E+01  0.1010E+01
      9.943  0.0000E+00  0.0000E+00  0.1010E+01  0.1010E+01
     10.160  0.0000E+00  0.0000E+00  0.1010E+01  0.1010E+01
     10.378  0.0000E+00  0.0000E+00  0.1010E+01  0.1010E+01
     10.595  0.0000E+00  0.0000E+00  0.1010E+01  0.1010E+01
     10.813  0.0000E+00  0.0000E+00  0.1010E+01  0.1010E+01
     10.81294135    -54.43724284  301      3.39514285      1.00000000
    -54.437  0.0000E+00  0.0000E+00  0.0000E+00  0.0000E+00  0.0000E+00  0.0000E+00  0.0000E+00  0.0000E+00  0.0000E+00  0.0000E+00  0.0000E+00  0.0000E+00  0.0000E+00  0.0000E+00  0.0000E+00  0.0000E+00  0.0000E+00  0.0000E+00
    -54.220  0.0000E+00  0.0000E+00  0.0000E+00  0.0000E+00  0.0000E+00  0.0000E+00  0.0000E+00  0.0000E+00  0.0000E+00  0.0000E+00  0.0000E+00  0.0000E+00  0.0000E+00  0.0000E+00  0.0000E+00  0.0000E+00  0.0000E+00  0.0000E+00
    -54.002  0.0000E+00  0.0000E+00  0.0000E+00  0.0000E+00  0.0000E+00  0.0000E+00  0.0000E+00  0.0000E+00  0.0000E+00  0.0000E+00  0.0000E+00  0.0000E+00  0.0000E+00  0.0000E+00  0.0000E+00  0.0000E+00  0.0000E+00  0.0000E+00
    -53.785  0.0000E+00  0.0000E+00  0.0000E+00  0.0000E+00  0.0000E+00  0.0000E+00  0.0000E+00  0.0000E+00  0.0000E+00  0.0000E+00  0.0000E+00  0.0000E+00  0.0000E+00  0.0000E+00  0.0000E+00  0.0000E+00  0.0000E+00  0.0000E+00
    -53.567  0.0000E+00  0.0000E+00  0.0000E+00  0.0000E+00  0.0000E+00  0.0000E+00  0.0000E+00  0.0000E+00  0.0000E+00  0.0000E+00  0.0000E+00  0.0000E+00  0.0000E+00  0.0000E+00  0.0000E+00  0.0000E+00  0.0000E+00  0.0000E+00
    -53.350  0.0000E+00  0.0000E+00  0.0000E+00  0.0000E+00  0.0000E+00  0.0000E+00  0.0000E+00  0.0000E+00  0.0000E+00  0.0000E+00  0.0000E+00  0.0000E+00  0.0000E+00  0.0000E+00  0.0000E+00  0.0000E+00  0.0000E+00  0.0000E+00
    -53.132  0.0000E+00  0.0000E+00  0.0000E+00  0.0000E+00  0.0000E+00  0.0000E+00  0.0000E+00  0.0000E+00  0.0000E+00  0.0000E+00  0.0000E+00  0.0000E+00  0.0000E+00  0.0000E+00  0.0000E+00  0.0000E+00  0.0000E+00  0.0000E+00
    -52.915  0.0000E+00  0.0000E+00  0.0000E+00  0.0000E+00  0.0000E+00  0.0000E+00  0.0000E+00  0.0000E+00  0.0000E+00  0.0000E+00  0.0000E+00  0.0000E+00  0.0000E+00  0.0000E+00  0.0000E+00  0.0000E+00  0.0000E+00  0.0000E+00
    -52.697  0.0000E+00  0.0000E+00  0.0000E+00  0.0000E+00  0.0000E+00  0.0000E+00  0.0000E+00  0.0000E+00  0.0000E+00  0.0000E+00  0.0000E+00  0.0000E+00  0.0000E+00  0.0000E+00  0.0000E+00  0.0000E+00  0.0000E+00  0.0000E+00
    -52.480  0.0000E+00  0.0000E+00  0.0000E+00  0.0000E+00  0.0000E+00  0.0000E+00  0.0000E+00  0.0000E+00  0.0000E+00  0.0000E+00  0.0000E+00  0.0000E+00  0.0000E+00  0.0000E+00  0.0000E+00  0.0000E+00  0.0000E+00  0.0000E+00
    -52.262  0.0000E+00  0.0000E+00  0.0000E+00  0.0000E+00  0.0000E+00  0.0000E+00  0.0000E+00  0.0000E+00  0.0000E+00  0.0000E+00  0.0000E+00  0.0000E+00  0.0000E+00  0.0000E+00  0.0000E+00  0.0000E+00  0.0000E+00  0.0000E+00
    -52.045  0.0000E+00  0.0000E+00  0.0000E+00  0.0000E+00  0.0000E+00  0.0000E+00  0.0000E+00  0.0000E+00  0.0000E+00  0.0000E+00  0.0000E+00  0.0000E+00  0.0000E+00  0.0000E+00  0.0000E+00  0.0000E+00  0.0000E+00  0.0000E+00
    -51.827  0.0000E+00  0.0000E+00  0.0000E+00  0.0000E+00  0.0000E+00  0.0000E+00  0.0000E+00  0.0000E+00  0.0000E+00  0.0000E+00  0.0000E+00  0.0000E+00  0.0000E+00  0.0000E+00  0.0000E+00  0.0000E+00  0.0000E+00  0.0000E+00
    -51.610  0.4831E-15  0.2574E-10  0.3056E-04  0.1263E-08  0.7708E-04  0.9016E-10  0.1762E-14  0.5459E-12  0.4256E-10  0.4827E-13  0.7705E-15  0.4858E-11  0.9076E-15  0.7563E-11  0.1017E-09  0.3223E-14  0.1390E-14  0.2938E-10
    -51.392  0.4349E-07  0.1192E-05  0.1381E+01  0.5804E-04  0.3104E+01  0.3718E-05  0.1047E-01  0.3066E-07  0.2032E-05  0.2682E-08  0.3349E-10  0.1974E-06  0.1997E-07  0.3548E-06  0.4572E-05  0.1488E-09  0.5981E-07  0.1323E-05
    -51.175  0.5776E-04  0.2179E-05  0.3191E+01  0.1211E-03  0.1472E+01  0.2040E-06  0.2214E+01  0.9928E-06  0.4762E-05  0.7638E-07  0.3045E-09  0.1361E-07  0.2641E-04  0.8399E-06  0.2171E-05  0.1525E-09  0.7918E-04  0.2646E-05
    -50.957  0.6505E-04  0.6888E-08  0.7559E-02  0.3379E-06  0.3085E-02  0.9015E-09  0.2327E+01  0.5134E-06  0.1054E-07  0.4390E-07  0.3417E-09  0.5662E-10  0.2965E-04  0.2601E-08  0.4432E-08  0.1692E-09  0.8893E-04  0.6389E-08
    -50.740  0.1340E-06  0.3849E-11  0.2069E-12  0.1266E-09  0.9632E-14  0.1289E-11  0.2839E-01  0.4855E-08  0.1389E-12  0.4292E-09  0.1060E-11  0.6688E-12  0.6117E-07  0.1423E-11  0.8453E-13  0.3998E-11  0.1833E-06  0.6111E-12
    -50.522  0.0000E+00  0.0000E+00  0.0000E+00  0.0000E+00  0.0000E+00  0.0000E+00  0.0000E+00  0.0000E+00  0.0000E+00  0.0000E+00  0.0000E+00  0.0000E+00  0.0000E+00  0.0000E+00  0.0000E+00  0.0000E+00  0.0000E+00  0.0000E+00
    -50.305  0.0000E+00  0.0000E+00  0.0000E+00  0.0000E+00  0.0000E+00  0.0000E+00  0.0000E+00  0.0000E+00  0.0000E+00  0.0000E+00  0.0000E+00  0.0000E+00  0.0000E+00  0.0000E+00  0.0000E+00  0.0000E+00  0.0000E+00  0.0000E+00
    -50.087  0.0000E+00  0.0000E+00  0.0000E+00  0.0000E+00  0.0000E+00  0.0000E+00  0.0000E+00  0.0000E+00  0.0000E+00  0.0000E+00  0.0000E+00  0.0000E+00  0.0000E+00  0.0000E+00  0.0000E+00  0.0000E+00  0.0000E+00  0.0000E+00
    -49.870  0.0000E+00  0.0000E+00  0.0000E+00  0.0000E+00  0.0000E+00  0.0000E+00  0.0000E+00  0.0000E+00  0.0000E+00  0.0000E+00  0.0000E+00  0.0000E+00  0.0000E+00  0.0000E+00  0.0000E+00  0.0000E+00  0.0000E+00  0.0000E+00
    -49.652  0.0000E+00  0.0000E+00  0.0000E+00  0.0000E+00  0.0000E+00  0.0000E+00  0.0000E+00  0.0000E+00  0.0000E+00  0.0000E+00  0.0000E+00  0.0000E+00  0.0000E+00  0.0000E+00  0.0000E+00  0.0000E+00  0.0000E+00  0.0000E+00
    -49.435  0.0000E+00  0.0000E+00  0.0000E+00  0.0000E+00  0.0000E+00  0.0000E+00  0.0000E+00  0.0000E+00  0.0000E+00  0.0000E+00  0.0000E+00  0.0000E+00  0.0000E+00  0.0000E+00  0.0000E+00  0.0000E+00  0.0000E+00  0.0000E+00
    -49.217  0.0000E+00  0.0000E+00  0.0000E+00  0.0000E+00  0.0000E+00  0.0000E+00  0.0000E+00  0.0000E+00  0.0000E+00  0.0000E+00  0.0000E+00  0.0000E+00  0.0000E+00  0.0000E+00  0.0000E+00  0.0000E+00  0.0000E+00  0.0000E+00
    -49.000  0.0000E+00  0.0000E+00  0.0000E+00  0.0000E+00  0.0000E+00  0.0000E+00  0.0000E+00  0.0000E+00  0.0000E+00  0.0000E+00  0.0000E+00  0.0000E+00  0.0000E+00  0.0000E+00  0.0000E+00  0.0000E+00  0.0000E+00  0.0000E+00
    -48.782  0.5097E-14  0.3528E-17  0.2455E-12  0.4229E-08  0.4447E-14  0.4858E-08  0.1631E-15  0.1788E-11  0.3888E-17  0.7313E-14  0.5703E-15  0.2104E-18  0.1528E-14  0.1767E-17  0.1816E-18  0.8365E-14  0.5657E-14  0.5032E-17
    -48.565  0.1567E-05  0.1272E-05  0.7625E-04  0.1300E+01  0.1345E-05  0.1467E+01  0.1622E-06  0.1786E+00  0.1063E-07  0.2324E-05  0.1713E-06  0.1024E-09  0.4706E-06  0.5815E-06  0.6426E-10  0.2636E-05  0.1727E-05  0.1748E-05
    -48.347  0.1033E-05  0.8832E-04  0.5036E-04  0.8553E+00  0.8793E-06  0.9603E+00  0.1253E-05  0.2353E+01  0.1073E-06  0.1543E-05  0.1118E-06  0.2340E-08  0.3105E-06  0.4041E-04  0.1225E-09  0.1744E-05  0.1134E-05  0.1215E-03
    -48.130  0.2328E-05  0.6063E-04  0.9505E-04  0.2422E+01  0.7088E-06  0.2150E+01  0.5933E-06  0.2041E+01  0.5539E-07  0.4416E-05  0.4132E-07  0.1831E-08  0.9069E-06  0.2772E-04  0.1211E-09  0.3935E-05  0.2782E-05  0.8332E-04
    -47.912  0.2785E-08  0.3981E-07  0.1146E-06  0.2921E-02  0.8507E-09  0.2566E-02  0.1886E-08  0.8697E-02  0.1930E-09  0.5193E-08  0.4920E-10  0.2504E-11  0.1085E-08  0.1821E-07  0.5622E-12  0.4606E-08  0.3344E-08  0.5470E-07
    -47.695  0.0000E+00  0.0000E+00  0.0000E+00  0.0000E+00  0.0000E+00  0.0000E+00  0.0000E+00  0.0000E+00  0.0000E+00  0.0000E+00  0.0000E+00  0.0000E+00  0.0000E+00  0.0000E+00  0.0000E+00  0.0000E+00  0.0000E+00  0.0000E+00
    -47.477  0.0000E+00  0.0000E+00  0.0000E+00  0.0000E+00  0.0000E+00  0.0000E+00  0.0000E+00  0.0000E+00  0.0000E+00  0.0000E+00  0.0000E+00  0.0000E+00  0.0000E+00  0.0000E+00  0.0000E+00  0.0000E+00  0.0000E+00  0.0000E+00
    -47.260  0.0000E+00  0.0000E+00  0.0000E+00  0.0000E+00  0.0000E+00  0.0000E+00  0.0000E+00  0.0000E+00  0.0000E+00  0.0000E+00  0.0000E+00  0.0000E+00  0.0000E+00  0.0000E+00  0.0000E+00  0.0000E+00  0.0000E+00  0.0000E+00
    -47.042  0.0000E+00  0.0000E+00  0.0000E+00  0.0000E+00  0.0000E+00  0.0000E+00  0.0000E+00  0.0000E+00  0.0000E+00  0.0000E+00  0.0000E+00  0.0000E+00  0.0000E+00  0.0000E+00  0.0000E+00  0.0000E+00  0.0000E+00  0.0000E+00
    -46.825  0.0000E+00  0.0000E+00  0.0000E+00  0.0000E+00  0.0000E+00  0.0000E+00  0.0000E+00  0.0000E+00  0.0000E+00  0.0000E+00  0.0000E+00  0.0000E+00  0.0000E+00  0.0000E+00  0.0000E+00  0.0000E+00  0.0000E+00  0.0000E+00
    -46.607  0.0000E+00  0.0000E+00  0.0000E+00  0.0000E+00  0.0000E+00  0.0000E+00  0.0000E+00  0.0000E+00  0.0000E+00  0.0000E+00  0.0000E+00  0.0000E+00  0.0000E+00  0.0000E+00  0.0000E+00  0.0000E+00  0.0000E+00  0.0000E+00
    -46.390  0.0000E+00  0.0000E+00  0.0000E+00  0.0000E+00  0.0000E+00  0.0000E+00  0.0000E+00  0.0000E+00  0.0000E+00  0.0000E+00  0.0000E+00  0.0000E+00  0.0000E+00  0.0000E+00  0.0000E+00  0.0000E+00  0.0000E+00  0.0000E+00
    -46.172  0.0000E+00  0.0000E+00  0.0000E+00  0.0000E+00  0.0000E+00  0.0000E+00  0.0000E+00  0.0000E+00  0.0000E+00  0.0000E+00  0.0000E+00  0.0000E+00  0.0000E+00  0.0000E+00  0.0000E+00  0.0000E+00  0.0000E+00  0.0000E+00
    -45.955  0.0000E+00  0.0000E+00  0.0000E+00  0.0000E+00  0.0000E+00  0.0000E+00  0.0000E+00  0.0000E+00  0.0000E+00  0.0000E+00  0.0000E+00  0.0000E+00  0.0000E+00  0.0000E+00  0.0000E+00  0.0000E+00  0.0000E+00  0.0000E+00
    -45.737  0.0000E+00  0.0000E+00  0.0000E+00  0.0000E+00  0.0000E+00  0.0000E+00  0.0000E+00  0.0000E+00  0.0000E+00  0.0000E+00  0.0000E+00  0.0000E+00  0.0000E+00  0.0000E+00  0.0000E+00  0.0000E+00  0.0000E+00  0.0000E+00
    -45.520  0.0000E+00  0.0000E+00  0.0000E+00  0.0000E+00  0.0000E+00  0.0000E+00  0.0000E+00  0.0000E+00  0.0000E+00  0.0000E+00  0.0000E+00  0.0000E+00  0.0000E+00  0.0000E+00  0.0000E+00  0.0000E+00  0.0000E+00  0.0000E+00
    -45.302  0.0000E+00  0.0000E+00  0.0000E+00  0.0000E+00  0.0000E+00  0.0000E+00  0.0000E+00  0.0000E+00  0.0000E+00  0.0000E+00  0.0000E+00  0.0000E+00  0.0000E+00  0.0000E+00  0.0000E+00  0.0000E+00  0.0000E+00  0.0000E+00
    -45.085  0.0000E+00  0.0000E+00  0.0000E+00  0.0000E+00  0.0000E+00  0.0000E+00  0.0000E+00  0.0000E+00  0.0000E+00  0.0000E+00  0.0000E+00  0.0000E+00  0.0000E+00  0.0000E+00  0.0000E+00  0.0000E+00  0.0000E+00  0.0000E+00
    -44.867  0.0000E+00  0.0000E+00  0.0000E+00  0.0000E+00  0.0000E+00  0.0000E+00  0.0000E+00  0.0000E+00  0.0000E+00  0.0000E+00  0.0000E+00  0.0000E+00  0.0000E+00  0.0000E+00  0.0000E+00  0.0000E+00  0.0000E+00  0.0000E+00
    -44.650  0.0000E+00  0.0000E+00  0.0000E+00  0.0000E+00  0.0000E+00  0.0000E+00  0.0000E+00  0.0000E+00  0.0000E+00  0.0000E+00  0.0000E+00  0.0000E+00  0.0000E+00  0.0000E+00  0.0000E+00  0.0000E+00  0.0000E+00  0.0000E+00
    -44.432  0.0000E+00  0.0000E+00  0.0000E+00  0.0000E+00  0.0000E+00  0.0000E+00  0.0000E+00  0.0000E+00  0.0000E+00  0.0000E+00  0.0000E+00  0.0000E+00  0.0000E+00  0.0000E+00  0.0000E+00  0.0000E+00  0.0000E+00  0.0000E+00
    -44.215  0.0000E+00  0.0000E+00  0.0000E+00  0.0000E+00  0.0000E+00  0.0000E+00  0.0000E+00  0.0000E+00  0.0000E+00  0.0000E+00  0.0000E+00  0.0000E+00  0.0000E+00  0.0000E+00  0.0000E+00  0.0000E+00  0.0000E+00  0.0000E+00
    -43.997  0.0000E+00  0.0000E+00  0.0000E+00  0.0000E+00  0.0000E+00  0.0000E+00  0.0000E+00  0.0000E+00  0.0000E+00  0.0000E+00  0.0000E+00  0.0000E+00  0.0000E+00  0.0000E+00  0.0000E+00  0.0000E+00  0.0000E+00  0.0000E+00
    -43.780  0.0000E+00  0.0000E+00  0.0000E+00  0.0000E+00  0.0000E+00  0.0000E+00  0.0000E+00  0.0000E+00  0.0000E+00  0.0000E+00  0.0000E+00  0.0000E+00  0.0000E+00  0.0000E+00  0.0000E+00  0.0000E+00  0.0000E+00  0.0000E+00
    -43.562  0.0000E+00  0.0000E+00  0.0000E+00  0.0000E+00  0.0000E+00  0.0000E+00  0.0000E+00  0.0000E+00  0.0000E+00  0.0000E+00  0.0000E+00  0.0000E+00  0.0000E+00  0.0000E+00  0.0000E+00  0.0000E+00  0.0000E+00  0.0000E+00