unknown system                          
           1
     4.866132   -5.793697    0.000000
     4.866132    5.793697    0.000000
     0.000000    0.000000    5.781599
   Fe   Se
     8     8
unknown system                          
           1
     4.866132   -5.793697    0.000000
     4.866132    5.793697    0.000000
     0.000000    0.000000    5.781599
   Fe   Se
     8     8
Direct configuration=     1
   0.00000000  0.00000000  0.00000000
   0.00000000  0.50000000  0.00000000
   0.50000000  0.00000000  0.00000000
   0.50000000  0.50000000  0.00000000
   0.25000000  0.25000000  0.00000000
   0.25000000  0.75000000  0.00000000
   0.75000000  0.25000000  0.00000000
   0.75000000  0.75000000  0.00000000
   0.37500000  0.12500000  0.69188879
   0.37500000  0.62500000  0.69188879
   0.87500000  0.12500000  0.69188879
   0.87500000  0.62500000  0.69188879
   0.12500000  0.37500000  0.30811121
   0.12500000  0.87500000  0.30811121
   0.62500000  0.37500000  0.30811121
   0.62500000  0.87500000  0.30811121
