 vasp.6.4.1 05Apr23 (build Jun 01 2023 13:46:15) complex                        
  
 executed on             LinuxIFC date 2023.12.17  01:03:35
 running   20 mpi-ranks, on    5 nodes
 distrk:  each k-point on   20 cores,    1 groups
 distr:  one band on NCORE=   1 cores,   20 groups


--------------------------------------------------------------------------------------------------------


 INCAR:
   ALGO = Fast
   EDIFF = 0.0002
   ENCUT = 550
   IBRION = 2
   ISIF = 4
   ISMEAR = 0
   ISPIN = 2
   IVDW = 13
   LASPH = True
   LMAXMIX = 4
   LORBIT = 11
   LREAL = Auto
   LWAVE = False
   MAGMOM = 1*2.424 2*-2.424 2*2.424 2*-2.424 1*2.424 8*0.0
   NELM = 100
   NSW = 99
   PREC = Accurate
   SIGMA = 0.05

 POTCAR:   PAW_PBE Fe_pv 06Sep2000                
 POTCAR:   PAW_PBE Se 06Sep2000                   
 -----------------------------------------------------------------------------
|                                                                             |
|           W    W    AA    RRRRR   N    N  II  N    N   GGGG   !!!           |
|           W    W   A  A   R    R  NN   N  II  NN   N  G    G  !!!           |
|           W    W  A    A  R    R  N N  N  II  N N  N  G       !!!           |
|           W WW W  AAAAAA  RRRRR   N  N N  II  N  N N  G  GGG   !            |
|           WW  WW  A    A  R   R   N   NN  II  N   NN  G    G                |
|           W    W  A    A  R    R  N    N  II  N    N   GGGG   !!!           |
|                                                                             |
|     For optimal performance we recommend to set                             |
|       NCORE = 2 up to number-of-cores-per-socket                            |
|     NCORE specifies how many cores store one orbital (NPAR=cpu/NCORE).      |
|     This setting can greatly improve the performance of VASP for DFT.       |
|     The default, NCORE=1 might be grossly inefficient on modern             |
|     multi-core architectures or massively parallel machines. Do your        |
|     own testing! More info at https://www.vasp.at/wiki/index.php/NCORE      |
|     Unfortunately you need to use the default for GW and RPA                |
|     calculations (for HF NCORE is supported but not extensively tested      |
|     yet).                                                                   |
|                                                                             |
 -----------------------------------------------------------------------------

 POTCAR:   PAW_PBE Fe_pv 06Sep2000                
   VRHFIN =Fe:  3pd7s1                                                                              
   LEXCH  = PE                                                                                      
   EATOM  =  2456.8974 eV,  180.5769 Ry                                                             
                                                                                                    
   TITEL  = PAW_PBE Fe_pv 06Sep2000                                                                 
   LULTRA =        F    use ultrasoft PP ?                                                          
   IUNSCR =        1    unscreen: 0-lin 1-nonlin 2-no                                               
   RPACOR =    1.750    partial core radius                                                         
   POMASS =   55.847; ZVAL   =   14.000    mass and valenz                                          
   RCORE  =    2.200    outmost cutoff radius                                                       
   RWIGS  =    2.200; RWIGS  =    1.164    wigner-seitz radius (au A)                               
   ENMAX  =  293.238; ENMIN  =  219.929 eV                                                          
   RCLOC  =    1.701    cutoff for local pot                                                        
   LCOR   =        T    correct aug charges                                                         
   LPAW   =        T    paw PP                                                                      
   EAUG   =  578.342                                                                                
   DEXC   =    -.002                                                                                
   RMAX   =    2.693    core radius for proj-oper                                                   
   RAUG   =    1.300    factor for augmentation sphere                                              
   RDEP   =    2.296    radius for radial grids                                                     
   QCUT   =   -4.642; QGAM   =    9.285    optimization parameters                                  
                                                                                                    
   Description                                                                                      
     l     E      TYP  RCUT    TYP  RCUT                                                            
     1   .000     23  2.000                                                                         
     1  -.400     23  2.000                                                                         
     2   .000     23  2.200                                                                         
     2   .000     23  2.200                                                                         
     0   .000     23  2.000                                                                         
     0  2.000     23  2.000                                                                         
     3   .000      7   .000                                                                         
  local pseudopotential read in
  partial core-charges read in
  atomic valenz-charges read in
  non local Contribution for L=           1  read in
    real space projection operators read in
  non local Contribution for L=           1  read in
    real space projection operators read in
  non local Contribution for L=           2  read in
    real space projection operators read in
  non local Contribution for L=           2  read in
    real space projection operators read in
  non local Contribution for L=           0  read in
    real space projection operators read in
  non local Contribution for L=           0  read in
    real space projection operators read in
    PAW grid and wavefunctions read in
 
   number of l-projection  operators is LMAX  =           6
   number of lm-projection operators is LMMAX =          18
 
 POTCAR:   PAW_PBE Se 06Sep2000                   
   VRHFIN =Se: s2p4                                                                                 
   LEXCH  = PE                                                                                      
   EATOM  =   256.9644 eV,   18.8864 Ry                                                             
                                                                                                    
   TITEL  = PAW_PBE Se 06Sep2000                                                                    
   LULTRA =        F    use ultrasoft PP ?                                                          
   IUNSCR =        1    unscreen: 0-lin 1-nonlin 2-no                                               
   RPACOR =    1.900    partial core radius                                                         
   POMASS =   78.960; ZVAL   =    6.000    mass and valenz                                          
   RCORE  =    2.100    outmost cutoff radius                                                       
   RWIGS  =    2.200; RWIGS  =    1.164    wigner-seitz radius (au A)                               
   ENMAX  =  211.534; ENMIN  =  158.651 eV                                                          
   ICORE  =        3    local potential                                                             
   LCOR   =        T    correct aug charges                                                         
   LPAW   =        T    paw PP                                                                      
   EAUG   =  446.842                                                                                
   DEXC   =    -.031                                                                                
   RMAX   =    3.170    core radius for proj-oper                                                   
   RAUG   =    1.300    factor for augmentation sphere                                              
   RDEP   =    2.177    radius for radial grids                                                     
   QCUT   =   -3.943; QGAM   =    7.886    optimization parameters                                  
                                                                                                    
   Description                                                                                      
     l     E      TYP  RCUT    TYP  RCUT                                                            
     0   .000     23  2.100                                                                         
     0   .000     23  2.100                                                                         
     1   .000     23  2.100                                                                         
     1   .000     23  2.100                                                                         
     2   .000     23  2.100                                                                         
     3  -.100      7  2.100                                                                         
  local pseudopotential read in
  partial core-charges read in
  atomic valenz-charges read in
  non local Contribution for L=           0  read in
    real space projection operators read in
  non local Contribution for L=           0  read in
    real space projection operators read in
  non local Contribution for L=           1  read in
    real space projection operators read in
  non local Contribution for L=           1  read in
    real space projection operators read in
  non local Contribution for L=           2  read in
    real space projection operators read in
    PAW grid and wavefunctions read in
 
   number of l-projection  operators is LMAX  =           5
   number of lm-projection operators is LMMAX =          13
 
 Optimization of the real space projectors (new method)

 maximal supplied QI-value         = 17.01
 optimisation between [QCUT,QGAM] = [ 11.91, 23.98] = [ 39.69,161.04] Ry 
 Optimized for a Real-space Cutoff    1.45 Angstroem

   l    n(q)    QCUT    max X(q) W(low)/X(q) W(high)/X(q)  e(spline) 
   1     10    11.905     4.550    0.27E-05    0.11E-05    0.28E-07
   1     10    11.905     5.234    0.10E-04    0.61E-04    0.17E-06
   2      9    11.905     3.960    0.19E-04    0.73E-05    0.50E-07
   2      9    11.905    29.565    0.24E-03    0.51E-04    0.27E-06
   0     10    11.905    23.582    0.17E-04    0.10E-05    0.14E-07
   0     10    11.905    39.747    0.23E-04    0.68E-05    0.74E-07
 Optimization of the real space projectors (new method)

 maximal supplied QI-value         = 17.95
 optimisation between [QCUT,QGAM] = [ 11.85, 23.88] = [ 39.31,159.64] Ry 
 Optimized for a Real-space Cutoff    1.18 Angstroem

   l    n(q)    QCUT    max X(q) W(low)/X(q) W(high)/X(q)  e(spline) 
   0      8    11.849     6.499    0.17E-04    0.94E-05    0.89E-08
   0      8    11.849    52.623    0.21E-03    0.78E-04    0.81E-07
   1      8    11.849     4.229    0.79E-04    0.83E-04    0.23E-07
   1      8    11.849    29.991    0.12E-03    0.43E-03    0.14E-06
   2      7    11.849     3.719    0.22E-03    0.64E-04    0.38E-07
 PAW_PBE Fe_pv 06Sep2000                :
 energy of atom  1       EATOM=-2456.8974
 kinetic energy error for atom=    0.0060 (will be added to EATOM!!)
 PAW_PBE Se 06Sep2000                   :
 energy of atom  2       EATOM= -256.9644
 kinetic energy error for atom=    0.0007 (will be added to EATOM!!)
 
 
 POSCAR: Fe8 Se8
  positions in direct lattice
  No initial velocities read in
 exchange correlation table for  LEXCH =        8
   RHO(1)=    0.500       N(1)  =     2000
   RHO(2)=  100.500       N(2)  =     4000
 


--------------------------------------------------------------------------------------------------------


 ion  position               nearest neighbor table
   1  0.000  0.000  0.000-  11 2.27  14 2.27   5 2.35   8 2.35   7 2.72   6 2.72
   2  0.000  0.500  0.000-  12 2.27  13 2.27   6 2.35   7 2.35   5 2.72   8 2.72
   3  0.500  0.000  0.000-   9 2.27  16 2.27   6 2.35   7 2.35   5 2.72   8 2.72
   4  0.500  0.500  0.000-  10 2.27  15 2.27   5 2.35   8 2.35   7 2.72   6 2.72
   5  0.250  0.250  0.000-   9 2.27  13 2.27   1 2.35   4 2.35   3 2.72   2 2.72
   6  0.250  0.750  0.000-  10 2.27  14 2.27   2 2.35   3 2.35   1 2.72   4 2.72
   7  0.750  0.250  0.000-  11 2.27  15 2.27   2 2.35   3 2.35   1 2.72   4 2.72
   8  0.750  0.750  0.000-  12 2.27  16 2.27   1 2.35   4 2.35   3 2.72   2 2.72
   9  0.375  0.125  0.664-   3 2.27   5 2.27
  10  0.375  0.625  0.664-   4 2.27   6 2.27
  11  0.875  0.125  0.664-   1 2.27   7 2.27
  12  0.875  0.625  0.664-   2 2.27   8 2.27
  13  0.125  0.375  0.336-   2 2.27   5 2.27
  14  0.125  0.875  0.336-   1 2.27   6 2.27
  15  0.625  0.375  0.336-   4 2.27   7 2.27
  16  0.625  0.875  0.336-   3 2.27   8 2.27
 
  LATTYP: Found a base centered orthorhombic cell.
 ALAT       =     9.4149317629
 B/A-ratio  =     1.1565929860
 C/A-ratio  =     0.5739547843
  
  Lattice vectors:
  
 A1 = (   4.7074658814,  -5.4446220203,   0.0000000000)
 A2 = (   4.7074658814,   5.4446220203,   0.0000000000)
 A3 = (   0.0000000000,   0.0000000000,   5.4037451290)


Analysis of symmetry for initial positions (statically):
=====================================================================
 Subroutine PRICEL returns following result:
 
  LATTYP: Found a base centered orthorhombic cell.
 ALAT       =     4.7074658814
 B/A-ratio  =     1.1565929860
 C/A-ratio  =     1.1479095686
  
  Lattice vectors:
  
 A1 = (   2.3537329407,  -2.7223110102,   0.0000000000)
 A2 = (   2.3537329407,   2.7223110102,   0.0000000000)
 A3 = (   0.0000000000,   0.0000000000,   5.4037451290)
 
   4 primitive cells build up your supercell.
 

 Routine SETGRP: Setting up the symmetry group for a 
 base centered orthorhombic supercell.


 Subroutine GETGRP returns: Found  8 space group operations
 (whereof  4 operations were pure point group operations)
 out of a pool of  8 trial point group operations.


The static configuration has the point symmetry C_2h.
 The point group associated with its full space group is D_2h.


Analysis of symmetry for dynamics (positions and initial velocities):
=====================================================================
 Subroutine PRICEL returns following result:
 
  LATTYP: Found a base centered orthorhombic cell.
 ALAT       =     4.7074658814
 B/A-ratio  =     1.1565929860
 C/A-ratio  =     1.1479095686
  
  Lattice vectors:
  
 A1 = (   2.3537329407,  -2.7223110102,   0.0000000000)
 A2 = (   2.3537329407,   2.7223110102,   0.0000000000)
 A3 = (   0.0000000000,   0.0000000000,   5.4037451290)
 
   4 primitive cells build up your supercell.
 

 Routine SETGRP: Setting up the symmetry group for a 
 base centered orthorhombic supercell.


 Subroutine GETGRP returns: Found  8 space group operations
 (whereof  4 operations were pure point group operations)
 out of a pool of  8 trial point group operations.


The dynamic configuration has the point symmetry C_2h.
 The point group associated with its full space group is D_2h.


Analysis of structural, dynamic, and magnetic symmetry:
=====================================================================
 Subroutine PRICEL returns following result:
 
  LATTYP: Found a base centered orthorhombic cell.
 ALAT       =     4.7074658814
 B/A-ratio  =     1.1565929860
 C/A-ratio  =     1.1479095686
  
  Lattice vectors:
  
 A1 = (   2.3537329407,  -2.7223110102,   0.0000000000)
 A2 = (   2.3537329407,   2.7223110102,   0.0000000000)
 A3 = (   0.0000000000,   0.0000000000,   5.4037451290)
 
   4 primitive cells build up your supercell.
 

 Routine SETGRP: Setting up the symmetry group for a 
 base centered orthorhombic supercell.


 Subroutine GETGRP returns: Found  8 space group operations
 (whereof  4 operations were pure point group operations)
 out of a pool of  8 trial point group operations.


The overall configuration has the point symmetry C_2h.
 The point group associated with its full space group is D_2h.


 Subroutine INISYM returns: Found  8 space group operations
 (whereof  4 operations are pure point group operations),
 and found     4 'primitive' translations


----------------------------------------------------------------------------------------

                                     Primitive cell                                     

  volume of cell :      69.2500

  direct lattice vectors                    reciprocal lattice vectors
     2.353732941 -2.722311010  0.000000000     0.212428518 -0.183667479  0.000000000
     2.353732941  2.722311010  0.000000000     0.212428518  0.183667479  0.000000000
     0.000000000  0.000000000  5.403745129     0.000000000  0.000000000  0.185056840

  length of vectors
     3.598754784  3.598754784  5.403745129     0.280819547  0.280819547  0.185056840

  position of ions in fractional coordinates (direct lattice)
     0.000000000  0.000000000  0.000000000
     0.500000000  0.500000000  0.000000000
     0.750000000  0.250000000  0.664183627
     0.250000000  0.750000000  0.335816373

  ion indices of the primitive-cell ions
   primitive index   ion index
                 1           1
                 2           5
                 3          11
                 4          14

----------------------------------------------------------------------------------------

 
 
 KPOINTS: KPOINTS                                 

Automatic generation of k-mesh.
 Grid dimensions read from file:
 generate k-points for:    7    7    9

 Generating k-lattice:

  Cartesian coordinates                     Fractional coordinates (reciprocal lattice)
     0.015173466 -0.013119106  0.000000000     0.142857143 -0.000000000  0.000000000
     0.015173466  0.013119106  0.000000000    -0.000000000  0.142857143  0.000000000
     0.000000000  0.000000000  0.020561871     0.000000000  0.000000000  0.111111111

  Length of vectors
     0.020058539  0.020058539  0.020561871

  Shift w.r.t. Gamma in fractional coordinates (k-lattice)
     0.000000000  0.000000000  0.000000000

 
 Subroutine IBZKPT returns following result:
 ===========================================
 
 Found     80 irreducible k-points:
 
 Following reciprocal coordinates:
            Coordinates               Weight
  0.000000  0.000000  0.000000      1.000000
  0.142857  0.000000  0.000000      4.000000
  0.285714  0.000000  0.000000      4.000000
  0.428571  0.000000  0.000000      4.000000
  0.142857  0.142857  0.000000      2.000000
  0.285714  0.142857  0.000000      4.000000
  0.428571  0.142857  0.000000      4.000000
 -0.428571  0.142857  0.000000      4.000000
 -0.285714  0.142857  0.000000      4.000000
 -0.142857  0.142857  0.000000      2.000000
  0.285714  0.285714  0.000000      2.000000
  0.428571  0.285714  0.000000      4.000000
 -0.428571  0.285714  0.000000      4.000000
 -0.285714  0.285714  0.000000      2.000000
  0.428571  0.428571  0.000000      2.000000
 -0.428571  0.428571  0.000000      2.000000
  0.000000  0.000000  0.111111      2.000000
  0.142857  0.000000  0.111111      8.000000
  0.285714  0.000000  0.111111      8.000000
  0.428571  0.000000  0.111111      8.000000
  0.142857  0.142857  0.111111      4.000000
  0.285714  0.142857  0.111111      8.000000
  0.428571  0.142857  0.111111      8.000000
 -0.428571  0.142857  0.111111      8.000000
 -0.285714  0.142857  0.111111      8.000000
 -0.142857  0.142857  0.111111      4.000000
  0.285714  0.285714  0.111111      4.000000
  0.428571  0.285714  0.111111      8.000000
 -0.428571  0.285714  0.111111      8.000000
 -0.285714  0.285714  0.111111      4.000000
  0.428571  0.428571  0.111111      4.000000
 -0.428571  0.428571  0.111111      4.000000
  0.000000  0.000000  0.222222      2.000000
  0.142857  0.000000  0.222222      8.000000
  0.285714  0.000000  0.222222      8.000000
  0.428571  0.000000  0.222222      8.000000
  0.142857  0.142857  0.222222      4.000000
  0.285714  0.142857  0.222222      8.000000
  0.428571  0.142857  0.222222      8.000000
 -0.428571  0.142857  0.222222      8.000000
 -0.285714  0.142857  0.222222      8.000000
 -0.142857  0.142857  0.222222      4.000000
  0.285714  0.285714  0.222222      4.000000
  0.428571  0.285714  0.222222      8.000000
 -0.428571  0.285714  0.222222      8.000000
 -0.285714  0.285714  0.222222      4.000000
  0.428571  0.428571  0.222222      4.000000
 -0.428571  0.428571  0.222222      4.000000
  0.000000  0.000000  0.333333      2.000000
  0.142857  0.000000  0.333333      8.000000
  0.285714  0.000000  0.333333      8.000000
  0.428571  0.000000  0.333333      8.000000
  0.142857  0.142857  0.333333      4.000000
  0.285714  0.142857  0.333333      8.000000
  0.428571  0.142857  0.333333      8.000000
 -0.428571  0.142857  0.333333      8.000000
 -0.285714  0.142857  0.333333      8.000000
 -0.142857  0.142857  0.333333      4.000000
  0.285714  0.285714  0.333333      4.000000
  0.428571  0.285714  0.333333      8.000000
 -0.428571  0.285714  0.333333      8.000000
 -0.285714  0.285714  0.333333      4.000000
  0.428571  0.428571  0.333333      4.000000
 -0.428571  0.428571  0.333333      4.000000
  0.000000  0.000000  0.444444      2.000000
  0.142857  0.000000  0.444444      8.000000
  0.285714  0.000000  0.444444      8.000000
  0.428571  0.000000  0.444444      8.000000
  0.142857  0.142857  0.444444      4.000000
  0.285714  0.142857  0.444444      8.000000
  0.428571  0.142857  0.444444      8.000000
 -0.428571  0.142857  0.444444      8.000000
 -0.285714  0.142857  0.444444      8.000000
 -0.142857  0.142857  0.444444      4.000000
  0.285714  0.285714  0.444444      4.000000
  0.428571  0.285714  0.444444      8.000000
 -0.428571  0.285714  0.444444      8.000000
 -0.285714  0.285714  0.444444      4.000000
  0.428571  0.428571  0.444444      4.000000
 -0.428571  0.428571  0.444444      4.000000
 
 Following cartesian coordinates:
            Coordinates               Weight
  0.000000  0.000000  0.000000      1.000000
  0.015173 -0.013119  0.000000      4.000000
  0.030347 -0.026238  0.000000      4.000000
  0.045520 -0.039357  0.000000      4.000000
  0.030347 -0.000000  0.000000      2.000000
  0.045520 -0.013119  0.000000      4.000000
  0.060694 -0.026238  0.000000      4.000000
 -0.030347  0.052476  0.000000      4.000000
 -0.015173  0.039357  0.000000      4.000000
  0.000000  0.026238  0.000000      2.000000
  0.060694  0.000000  0.000000      2.000000
  0.075867 -0.013119  0.000000      4.000000
 -0.015173  0.065596  0.000000      4.000000
  0.000000  0.052476  0.000000      2.000000
  0.091041  0.000000  0.000000      2.000000
 -0.000000  0.078715  0.000000      2.000000
  0.000000  0.000000  0.020562      2.000000
  0.015173 -0.013119  0.020562      8.000000
  0.030347 -0.026238  0.020562      8.000000
  0.045520 -0.039357  0.020562      8.000000
  0.030347 -0.000000  0.020562      4.000000
  0.045520 -0.013119  0.020562      8.000000
  0.060694 -0.026238  0.020562      8.000000
 -0.030347  0.052476  0.020562      8.000000
 -0.015173  0.039357  0.020562      8.000000
  0.000000  0.026238  0.020562      4.000000
  0.060694  0.000000  0.020562      4.000000
  0.075867 -0.013119  0.020562      8.000000
 -0.015173  0.065596  0.020562      8.000000
  0.000000  0.052476  0.020562      4.000000
  0.091041  0.000000  0.020562      4.000000
 -0.000000  0.078715  0.020562      4.000000
  0.000000  0.000000  0.041124      2.000000
  0.015173 -0.013119  0.041124      8.000000
  0.030347 -0.026238  0.041124      8.000000
  0.045520 -0.039357  0.041124      8.000000
  0.030347 -0.000000  0.041124      4.000000
  0.045520 -0.013119  0.041124      8.000000
  0.060694 -0.026238  0.041124      8.000000
 -0.030347  0.052476  0.041124      8.000000
 -0.015173  0.039357  0.041124      8.000000
  0.000000  0.026238  0.041124      4.000000
  0.060694  0.000000  0.041124      4.000000
  0.075867 -0.013119  0.041124      8.000000
 -0.015173  0.065596  0.041124      8.000000
  0.000000  0.052476  0.041124      4.000000
  0.091041  0.000000  0.041124      4.000000
 -0.000000  0.078715  0.041124      4.000000
  0.000000  0.000000  0.061686      2.000000
  0.015173 -0.013119  0.061686      8.000000
  0.030347 -0.026238  0.061686      8.000000
  0.045520 -0.039357  0.061686      8.000000
  0.030347 -0.000000  0.061686      4.000000
  0.045520 -0.013119  0.061686      8.000000
  0.060694 -0.026238  0.061686      8.000000
 -0.030347  0.052476  0.061686      8.000000
 -0.015173  0.039357  0.061686      8.000000
  0.000000  0.026238  0.061686      4.000000
  0.060694  0.000000  0.061686      4.000000
  0.075867 -0.013119  0.061686      8.000000
 -0.015173  0.065596  0.061686      8.000000
  0.000000  0.052476  0.061686      4.000000
  0.091041  0.000000  0.061686      4.000000
 -0.000000  0.078715  0.061686      4.000000
  0.000000  0.000000  0.082247      2.000000
  0.015173 -0.013119  0.082247      8.000000
  0.030347 -0.026238  0.082247      8.000000
  0.045520 -0.039357  0.082247      8.000000
  0.030347 -0.000000  0.082247      4.000000
  0.045520 -0.013119  0.082247      8.000000
  0.060694 -0.026238  0.082247      8.000000
 -0.030347  0.052476  0.082247      8.000000
 -0.015173  0.039357  0.082247      8.000000
  0.000000  0.026238  0.082247      4.000000
  0.060694  0.000000  0.082247      4.000000
  0.075867 -0.013119  0.082247      8.000000
 -0.015173  0.065596  0.082247      8.000000
  0.000000  0.052476  0.082247      4.000000
  0.091041  0.000000  0.082247      4.000000
 -0.000000  0.078715  0.082247      4.000000
 


--------------------------------------------------------------------------------------------------------




 Dimension of arrays:
   k-points           NKPTS =     80   k-points in BZ     NKDIM =     80   number of bands    NBANDS=    100
   number of dos      NEDOS =    301   number of ions     NIONS =     16
   non local maximal  LDIM  =      6   non local SUM 2l+1 LMDIM =     18
   total plane-waves  NPLWV = 131712
   max r-space proj   IRMAX =   6096   max aug-charges    IRDMAX=  20933
   dimension x,y,z NGX =    56 NGY =   56 NGZ =   42
   dimension x,y,z NGXF=   112 NGYF=  112 NGZF=   84
   support grid    NGXF=   112 NGYF=  112 NGZF=   84
   ions per type =               8   8
   NGX,Y,Z   is equivalent  to a cutoff of  12.93, 12.93, 12.92 a.u.
   NGXF,Y,Z  is equivalent  to a cutoff of  25.87, 25.87, 25.84 a.u.

 SYSTEM =  unknown system                          
 POSCAR =  Fe8 Se8                                 

 Startparameter for this run:
   NWRITE =      2    write-flag & timer
   PREC   = accura    normal or accurate (medium, high low for compatibility)
   ISTART =      0    job   : 0-new  1-cont  2-samecut
   ICHARG =      2    charge: 1-file 2-atom 10-const
   ISPIN  =      2    spin polarized calculation?
   LNONCOLLINEAR =      F non collinear calculations
   LSORBIT =      F    spin-orbit coupling
   INIWAV =      1    electr: 0-lowe 1-rand  2-diag
   LASPH  =      T    aspherical Exc in radial PAW
 Electronic Relaxation 1
   ENCUT  =  550.0 eV  40.42 Ry    6.36 a.u.  13.76 13.76 10.33*2*pi/ulx,y,z
   ENINI  =  550.0     initial cutoff
   ENAUG  =  578.3 eV  augmentation charge cutoff
   NELM   =    100;   NELMIN=  2; NELMDL=  0     # of ELM steps 
   EDIFF  = 0.2E-03   stopping-criterion for ELM
   LREAL  =      T    real-space projection
   NLSPLINE    = F    spline interpolate recip. space projectors
   LCOMPAT=      F    compatible to vasp.4.4
   GGA_COMPAT  = T    GGA compatible to vasp.4.4-vasp.4.6
   LMAXPAW     = -100 max onsite density
   LMAXMIX     =    4 max onsite mixed and CHGCAR
   VOSKOWN=      0    Vosko Wilk Nusair interpolation
   ROPT   =   -0.00025  -0.00025
 Ionic relaxation
   EDIFFG = 0.2E-02   stopping-criterion for IOM
   NSW    =     99    number of steps for IOM
   NBLOCK =      1;   KBLOCK =     99    inner block; outer block 
   IBRION =      2    ionic relax: 0-MD 1-quasi-New 2-CG
   NFREE  =      1    steps in history (QN), initial steepest desc. (CG)
   ISIF   =      4    stress and relaxation
   IWAVPR =     11    prediction:  0-non 1-charg 2-wave 3-comb
   ISYM   =      2    0-nonsym 1-usesym 2-fastsym
   LCORR  =      T    Harris-Foulkes like correction to forces

   POTIM  = 0.5000    time-step for ionic-motion
   TEIN   =    0.0    initial temperature
   TEBEG  =    0.0;   TEEND  =   0.0 temperature during run
   SMASS  =  -3.00    Nose mass-parameter (am)
   estimated Nose-frequenzy (Omega)   =  0.10E-29 period in steps = 0.13E+47 mass=  -0.118E-26a.u.
   SCALEE = 1.0000    scale energy and forces
   NPACO  =    256;   APACO  = 10.0  distance and # of slots for P.C.
   PSTRESS=    0.0 pullay stress

  Mass of Ions in am
   POMASS =  55.85 78.96
  Ionic Valenz
   ZVAL   =  14.00  6.00
  Atomic Wigner-Seitz radii
   RWIGS  =  -1.00 -1.00
  virtual crystal weights 
   VCA    =   1.00  1.00
   NELECT =     160.0000    total number of electrons
   NUPDOWN=      -1.0000    fix difference up-down

 DOS related values:
   EMIN   =  10.00;   EMAX   =-10.00  energy-range for DOS
   EFERMI =   0.00;   METHOD = LEGACY      
   ISMEAR =     0;   SIGMA  =   0.05  broadening in eV -4-tet -1-fermi 0-gaus

 Electronic relaxation 2 (details)
   IALGO  =     68    algorithm
   LDIAG  =      T    sub-space diagonalisation (order eigenvalues)
   LSUBROT=      F    optimize rotation matrix (better conditioning)
   TURBO    =      0    0=normal 1=particle mesh
   IRESTART =      0    0=no restart 2=restart with 2 vectors
   NREBOOT  =      0    no. of reboots
   NMIN     =      0    reboot dimension
   EREF     =   0.00    reference energy to select bands
   IMIX   =      4    mixing-type and parameters
     AMIX     =   0.40;   BMIX     =  1.00
     AMIX_MAG =   1.60;   BMIX_MAG =  1.00
     AMIN     =   0.10
     WC   =   100.;   INIMIX=   1;  MIXPRE=   1;  MAXMIX= -45

 Intra band minimization:
   WEIMIN = 0.0010     energy-eigenvalue tresh-hold
   EBREAK =  0.50E-06  absolut break condition
   DEPER  =   0.30     relativ break condition  

   TIME   =   0.40     timestep for ELM

  volume/ion in A,a.u.               =      17.31       116.83
  Fermi-wavevector in a.u.,A,eV,Ry     =   1.363395  2.576442 25.291119  1.858845
  Thomas-Fermi vector in A             =   2.489801
 
 Write flags
   LWAVE        =      F    write WAVECAR
   LDOWNSAMPLE  =      F    k-point downsampling of WAVECAR
   LCHARG       =      T    write CHGCAR
   LVTOT        =      F    write LOCPOT, total local potential
   LVHAR        =      F    write LOCPOT, Hartree potential only
   LELF         =      F    write electronic localiz. function (ELF)
   LORBIT       =     11    0 simple, 1 ext, 2 COOP (PROOUT), +10 PAW based schemes


 Dipole corrections
   LMONO  =      F    monopole corrections only (constant potential shift)
   LDIPOL =      F    correct potential (dipole corrections)
   IDIPOL =      0    1-x, 2-y, 3-z, 4-all directions 
   EPSILON=  1.0000000 bulk dielectric constant

 Exchange correlation treatment:
   GGA     =    --    GGA type
   LEXCH   =     8    internal setting for exchange type
   LIBXC   =     F    Libxc                    
   VOSKOWN =     0    Vosko Wilk Nusair interpolation
   LHFCALC =     F    Hartree Fock is set to
   LHFONE  =     F    Hartree Fock one center treatment
   AEXX    =    0.0000 exact exchange contribution

 Linear response parameters
   LEPSILON=     F    determine dielectric tensor
   LRPA    =     F    only Hartree local field effects (RPA)
   LNABLA  =     F    use nabla operator in PAW spheres
   LVEL    =     F    velocity operator in full k-point grid
   CSHIFT  =0.1000    complex shift for real part using Kramers Kronig
   OMEGAMAX=  -1.0    maximum frequency
   DEG_THRESHOLD= 0.2000000E-02 threshold for treating states as degnerate
   RTIME   =   -0.100 relaxation time in fs
  (WPLASMAI=    0.000 imaginary part of plasma frequency in eV, 0.658/RTIME)
   DFIELD  = 0.0000000 0.0000000 0.0000000 field for delta impulse in time
 
  Optional k-point grid parameters
   LKPOINTS_OPT  =     F    use optional k-point grid
   KPOINTS_OPT_MODE=     1    mode for optional k-point grid
 
 Orbital magnetization related:
   ORBITALMAG=     F  switch on orbital magnetization
   LCHIMAG   =     F  perturbation theory with respect to B field
   DQ        =  0.001000  dq finite difference perturbation B field
   LLRAUG    =     F  two centre corrections for induced B field
   LBONE     =     F  B-component reconstruction in AE one-centre
   LVGVCALC  =     T  calculate vGv susceptibility
   LVGVAPPL  =     F  apply vGv susceptibility instead of pGv for G=0

 Random number generation:
   RANDOM_GENERATOR = DEFAULT
   PCG_SEED         = not used


--------------------------------------------------------------------------------------------------------


 conjugate gradient relaxation of ions
 charge density and potential will be updated during run
 spin polarized calculation
 RMM-DIIS sequential band-by-band and
  variant of blocked Davidson during initial phase
 perform sub-space diagonalisation
    before iterative eigenvector-optimisation
 modified Broyden-mixing scheme, WC =      100.0
 initial mixing is a Kerker type mixing with AMIX =  0.4000 and BMIX =      1.0000
 Hartree-type preconditioning will be used
 using additional bands           20
 real space projection scheme for non local part
 use partial core corrections
 calculate Harris-corrections to forces 
   (improved forces if not selfconsistent)
 use gradient corrections 
 use of overlap-Matrix (Vanderbilt PP)
 Gauss-broadening in eV      SIGMA  =   0.05


--------------------------------------------------------------------------------------------------------


  energy-cutoff  :      550.00
  volume of cell :      277.00
      direct lattice vectors                 reciprocal lattice vectors
     4.707465881 -5.444622020  0.000000000     0.106214259 -0.091833739  0.000000000
     4.707465881  5.444622020  0.000000000     0.106214259  0.091833739  0.000000000
     0.000000000  0.000000000  5.403745129     0.000000000  0.000000000  0.185056840

  length of vectors
     7.197509567  7.197509567  5.403745129     0.140409774  0.140409774  0.185056840


 
 k-points in units of 2pi/SCALE and weight: KPOINTS                                 
   0.00000000  0.00000000  0.00000000       0.002
   0.01517347 -0.01311911  0.00000000       0.009
   0.03034693 -0.02623821  0.00000000       0.009
   0.04552040 -0.03935732  0.00000000       0.009
   0.03034693  0.00000000  0.00000000       0.005
   0.04552040 -0.01311911  0.00000000       0.009
   0.06069386 -0.02623821  0.00000000       0.009
  -0.03034693  0.05247642  0.00000000       0.009
  -0.01517347  0.03935732  0.00000000       0.009
  -0.00000000  0.02623821  0.00000000       0.005
   0.06069386 -0.00000000  0.00000000       0.005
   0.07586733 -0.01311911  0.00000000       0.009
  -0.01517347  0.06559553  0.00000000       0.009
  -0.00000000  0.05247642  0.00000000       0.005
   0.09104079  0.00000000  0.00000000       0.005
  -0.00000000  0.07871463  0.00000000       0.005
   0.00000000  0.00000000  0.02056187       0.005
   0.01517347 -0.01311911  0.02056187       0.018
   0.03034693 -0.02623821  0.02056187       0.018
   0.04552040 -0.03935732  0.02056187       0.018
   0.03034693  0.00000000  0.02056187       0.009
   0.04552040 -0.01311911  0.02056187       0.018
   0.06069386 -0.02623821  0.02056187       0.018
  -0.03034693  0.05247642  0.02056187       0.018
  -0.01517347  0.03935732  0.02056187       0.018
  -0.00000000  0.02623821  0.02056187       0.009
   0.06069386 -0.00000000  0.02056187       0.009
   0.07586733 -0.01311911  0.02056187       0.018
  -0.01517347  0.06559553  0.02056187       0.018
  -0.00000000  0.05247642  0.02056187       0.009
   0.09104079  0.00000000  0.02056187       0.009
  -0.00000000  0.07871463  0.02056187       0.009
   0.00000000  0.00000000  0.04112374       0.005
   0.01517347 -0.01311911  0.04112374       0.018
   0.03034693 -0.02623821  0.04112374       0.018
   0.04552040 -0.03935732  0.04112374       0.018
   0.03034693  0.00000000  0.04112374       0.009
   0.04552040 -0.01311911  0.04112374       0.018
   0.06069386 -0.02623821  0.04112374       0.018
  -0.03034693  0.05247642  0.04112374       0.018
  -0.01517347  0.03935732  0.04112374       0.018
  -0.00000000  0.02623821  0.04112374       0.009
   0.06069386 -0.00000000  0.04112374       0.009
   0.07586733 -0.01311911  0.04112374       0.018
  -0.01517347  0.06559553  0.04112374       0.018
  -0.00000000  0.05247642  0.04112374       0.009
   0.09104079  0.00000000  0.04112374       0.009
  -0.00000000  0.07871463  0.04112374       0.009
   0.00000000  0.00000000  0.06168561       0.005
   0.01517347 -0.01311911  0.06168561       0.018
   0.03034693 -0.02623821  0.06168561       0.018
   0.04552040 -0.03935732  0.06168561       0.018
   0.03034693  0.00000000  0.06168561       0.009
   0.04552040 -0.01311911  0.06168561       0.018
   0.06069386 -0.02623821  0.06168561       0.018
  -0.03034693  0.05247642  0.06168561       0.018
  -0.01517347  0.03935732  0.06168561       0.018
  -0.00000000  0.02623821  0.06168561       0.009
   0.06069386 -0.00000000  0.06168561       0.009
   0.07586733 -0.01311911  0.06168561       0.018
  -0.01517347  0.06559553  0.06168561       0.018
  -0.00000000  0.05247642  0.06168561       0.009
   0.09104079  0.00000000  0.06168561       0.009
  -0.00000000  0.07871463  0.06168561       0.009
   0.00000000  0.00000000  0.08224748       0.005
   0.01517347 -0.01311911  0.08224748       0.018
   0.03034693 -0.02623821  0.08224748       0.018
   0.04552040 -0.03935732  0.08224748       0.018
   0.03034693  0.00000000  0.08224748       0.009
   0.04552040 -0.01311911  0.08224748       0.018
   0.06069386 -0.02623821  0.08224748       0.018
  -0.03034693  0.05247642  0.08224748       0.018
  -0.01517347  0.03935732  0.08224748       0.018
  -0.00000000  0.02623821  0.08224748       0.009
   0.06069386 -0.00000000  0.08224748       0.009
   0.07586733 -0.01311911  0.08224748       0.018
  -0.01517347  0.06559553  0.08224748       0.018
  -0.00000000  0.05247642  0.08224748       0.009
   0.09104079  0.00000000  0.08224748       0.009
  -0.00000000  0.07871463  0.08224748       0.009
 
 k-points in reciprocal lattice and weights: KPOINTS                                 
   0.00000000  0.00000000  0.00000000       0.002
   0.14285714  0.00000000  0.00000000       0.009
   0.28571429  0.00000000  0.00000000       0.009
   0.42857143  0.00000000  0.00000000       0.009
   0.14285714  0.14285714  0.00000000       0.005
   0.28571429  0.14285714  0.00000000       0.009
   0.42857143  0.14285714  0.00000000       0.009
  -0.42857143  0.14285714  0.00000000       0.009
  -0.28571429  0.14285714  0.00000000       0.009
  -0.14285714  0.14285714  0.00000000       0.005
   0.28571429  0.28571429  0.00000000       0.005
   0.42857143  0.28571429  0.00000000       0.009
  -0.42857143  0.28571429  0.00000000       0.009
  -0.28571429  0.28571429  0.00000000       0.005
   0.42857143  0.42857143  0.00000000       0.005
  -0.42857143  0.42857143  0.00000000       0.005
   0.00000000  0.00000000  0.11111111       0.005
   0.14285714  0.00000000  0.11111111       0.018
   0.28571429  0.00000000  0.11111111       0.018
   0.42857143  0.00000000  0.11111111       0.018
   0.14285714  0.14285714  0.11111111       0.009
   0.28571429  0.14285714  0.11111111       0.018
   0.42857143  0.14285714  0.11111111       0.018
  -0.42857143  0.14285714  0.11111111       0.018
  -0.28571429  0.14285714  0.11111111       0.018
  -0.14285714  0.14285714  0.11111111       0.009
   0.28571429  0.28571429  0.11111111       0.009
   0.42857143  0.28571429  0.11111111       0.018
  -0.42857143  0.28571429  0.11111111       0.018
  -0.28571429  0.28571429  0.11111111       0.009
   0.42857143  0.42857143  0.11111111       0.009
  -0.42857143  0.42857143  0.11111111       0.009
   0.00000000  0.00000000  0.22222222       0.005
   0.14285714  0.00000000  0.22222222       0.018
   0.28571429  0.00000000  0.22222222       0.018
   0.42857143  0.00000000  0.22222222       0.018
   0.14285714  0.14285714  0.22222222       0.009
   0.28571429  0.14285714  0.22222222       0.018
   0.42857143  0.14285714  0.22222222       0.018
  -0.42857143  0.14285714  0.22222222       0.018
  -0.28571429  0.14285714  0.22222222       0.018
  -0.14285714  0.14285714  0.22222222       0.009
   0.28571429  0.28571429  0.22222222       0.009
   0.42857143  0.28571429  0.22222222       0.018
  -0.42857143  0.28571429  0.22222222       0.018
  -0.28571429  0.28571429  0.22222222       0.009
   0.42857143  0.42857143  0.22222222       0.009
  -0.42857143  0.42857143  0.22222222       0.009
   0.00000000  0.00000000  0.33333333       0.005
   0.14285714  0.00000000  0.33333333       0.018
   0.28571429  0.00000000  0.33333333       0.018
   0.42857143  0.00000000  0.33333333       0.018
   0.14285714  0.14285714  0.33333333       0.009
   0.28571429  0.14285714  0.33333333       0.018
   0.42857143  0.14285714  0.33333333       0.018
  -0.42857143  0.14285714  0.33333333       0.018
  -0.28571429  0.14285714  0.33333333       0.018
  -0.14285714  0.14285714  0.33333333       0.009
   0.28571429  0.28571429  0.33333333       0.009
   0.42857143  0.28571429  0.33333333       0.018
  -0.42857143  0.28571429  0.33333333       0.018
  -0.28571429  0.28571429  0.33333333       0.009
   0.42857143  0.42857143  0.33333333       0.009
  -0.42857143  0.42857143  0.33333333       0.009
   0.00000000  0.00000000  0.44444444       0.005
   0.14285714  0.00000000  0.44444444       0.018
   0.28571429  0.00000000  0.44444444       0.018
   0.42857143  0.00000000  0.44444444       0.018
   0.14285714  0.14285714  0.44444444       0.009
   0.28571429  0.14285714  0.44444444       0.018
   0.42857143  0.14285714  0.44444444       0.018
  -0.42857143  0.14285714  0.44444444       0.018
  -0.28571429  0.14285714  0.44444444       0.018
  -0.14285714  0.14285714  0.44444444       0.009
   0.28571429  0.28571429  0.44444444       0.009
   0.42857143  0.28571429  0.44444444       0.018
  -0.42857143  0.28571429  0.44444444       0.018
  -0.28571429  0.28571429  0.44444444       0.009
   0.42857143  0.42857143  0.44444444       0.009
  -0.42857143  0.42857143  0.44444444       0.009
 
 position of ions in fractional coordinates (direct lattice) 
   0.00000000  0.00000000  0.00000000
   0.00000000  0.50000000  0.00000000
   0.50000000  0.00000000  0.00000000
   0.50000000  0.50000000  0.00000000
   0.25000000  0.25000000  0.00000000
   0.25000000  0.75000000  0.00000000
   0.75000000  0.25000000  0.00000000
   0.75000000  0.75000000  0.00000000
   0.37500000  0.12500000  0.66418363
   0.37500000  0.62500000  0.66418363
   0.87500000  0.12500000  0.66418363
   0.87500000  0.62500000  0.66418363
   0.12500000  0.37500000  0.33581637
   0.12500000  0.87500000  0.33581637
   0.62500000  0.37500000  0.33581637
   0.62500000  0.87500000  0.33581637
 
 position of ions in cartesian coordinates  (Angst):
   0.00000000  0.00000000  0.00000000
   2.35373294  2.72231101  0.00000000
   2.35373294 -2.72231101  0.00000000
   4.70746588  0.00000000  0.00000000
   2.35373294  0.00000000  0.00000000
   4.70746588  2.72231101  0.00000000
   4.70746588 -2.72231101  0.00000000
   7.06119882  0.00000000  0.00000000
   2.35373294 -1.36115551  3.58907904
   4.70746588  1.36115551  3.58907904
   4.70746588 -4.08346652  3.58907904
   7.06119882 -1.36115551  3.58907904
   2.35373294  1.36115551  1.81466609
   4.70746588  4.08346652  1.81466609
   4.70746588 -1.36115551  1.81466609
   7.06119882  1.36115551  1.81466609
 


--------------------------------------------------------------------------------------------------------


 k-point   1 :   0.0000 0.0000 0.0000  plane waves:    8139
 k-point   2 :   0.1429 0.0000 0.0000  plane waves:    8116
 k-point   3 :   0.2857 0.0000 0.0000  plane waves:    8107
 k-point   4 :   0.4286 0.0000 0.0000  plane waves:    8134
 k-point   5 :   0.1429 0.1429 0.0000  plane waves:    8096
 k-point   6 :   0.2857 0.1429 0.0000  plane waves:    8119
 k-point   7 :   0.4286 0.1429 0.0000  plane waves:    8138
 k-point   8 :  -0.4286 0.1429 0.0000  plane waves:    8115
 k-point   9 :  -0.2857 0.1429 0.0000  plane waves:    8108
 k-point  10 :  -0.1429 0.1429 0.0000  plane waves:    8119
 k-point  11 :   0.2857 0.2857 0.0000  plane waves:    8112
 k-point  12 :   0.4286 0.2857 0.0000  plane waves:    8124
 k-point  13 :  -0.4286 0.2857 0.0000  plane waves:    8113
 k-point  14 :  -0.2857 0.2857 0.0000  plane waves:    8101
 k-point  15 :   0.4286 0.4286 0.0000  plane waves:    8142
 k-point  16 :  -0.4286 0.4286 0.0000  plane waves:    8126
 k-point  17 :   0.0000 0.0000 0.1111  plane waves:    8105
 k-point  18 :   0.1429 0.0000 0.1111  plane waves:    8102
 k-point  19 :   0.2857 0.0000 0.1111  plane waves:    8115
 k-point  20 :   0.4286 0.0000 0.1111  plane waves:    8124
 k-point  21 :   0.1429 0.1429 0.1111  plane waves:    8115
 k-point  22 :   0.2857 0.1429 0.1111  plane waves:    8114
 k-point  23 :   0.4286 0.1429 0.1111  plane waves:    8123
 k-point  24 :  -0.4286 0.1429 0.1111  plane waves:    8120
 k-point  25 :  -0.2857 0.1429 0.1111  plane waves:    8110
 k-point  26 :  -0.1429 0.1429 0.1111  plane waves:    8116
 k-point  27 :   0.2857 0.2857 0.1111  plane waves:    8119
 k-point  28 :   0.4286 0.2857 0.1111  plane waves:    8108
 k-point  29 :  -0.4286 0.2857 0.1111  plane waves:    8128
 k-point  30 :  -0.2857 0.2857 0.1111  plane waves:    8120
 k-point  31 :   0.4286 0.4286 0.1111  plane waves:    8125
 k-point  32 :  -0.4286 0.4286 0.1111  plane waves:    8128
 k-point  33 :   0.0000 0.0000 0.2222  plane waves:    8085
 k-point  34 :   0.1429 0.0000 0.2222  plane waves:    8118
 k-point  35 :   0.2857 0.0000 0.2222  plane waves:    8125
 k-point  36 :   0.4286 0.0000 0.2222  plane waves:    8118
 k-point  37 :   0.1429 0.1429 0.2222  plane waves:    8121
 k-point  38 :   0.2857 0.1429 0.2222  plane waves:    8120
 k-point  39 :   0.4286 0.1429 0.2222  plane waves:    8120
 k-point  40 :  -0.4286 0.1429 0.2222  plane waves:    8120
 k-point  41 :  -0.2857 0.1429 0.2222  plane waves:    8111
 k-point  42 :  -0.1429 0.1429 0.2222  plane waves:    8101
 k-point  43 :   0.2857 0.2857 0.2222  plane waves:    8103
 k-point  44 :   0.4286 0.2857 0.2222  plane waves:    8113
 k-point  45 :  -0.4286 0.2857 0.2222  plane waves:    8104
 k-point  46 :  -0.2857 0.2857 0.2222  plane waves:    8109
 k-point  47 :   0.4286 0.4286 0.2222  plane waves:    8106
 k-point  48 :  -0.4286 0.4286 0.2222  plane waves:    8096
 k-point  49 :   0.0000 0.0000 0.3333  plane waves:    8084
 k-point  50 :   0.1429 0.0000 0.3333  plane waves:    8098
 k-point  51 :   0.2857 0.0000 0.3333  plane waves:    8107
 k-point  52 :   0.4286 0.0000 0.3333  plane waves:    8116
 k-point  53 :   0.1429 0.1429 0.3333  plane waves:    8106
 k-point  54 :   0.2857 0.1429 0.3333  plane waves:    8107
 k-point  55 :   0.4286 0.1429 0.3333  plane waves:    8104
 k-point  56 :  -0.4286 0.1429 0.3333  plane waves:    8114
 k-point  57 :  -0.2857 0.1429 0.3333  plane waves:    8097
 k-point  58 :  -0.1429 0.1429 0.3333  plane waves:    8111
 k-point  59 :   0.2857 0.2857 0.3333  plane waves:    8107
 k-point  60 :   0.4286 0.2857 0.3333  plane waves:    8117
 k-point  61 :  -0.4286 0.2857 0.3333  plane waves:    8102
 k-point  62 :  -0.2857 0.2857 0.3333  plane waves:    8100
 k-point  63 :   0.4286 0.4286 0.3333  plane waves:    8104
 k-point  64 :  -0.4286 0.4286 0.3333  plane waves:    8106
 k-point  65 :   0.0000 0.0000 0.4444  plane waves:    8114
 k-point  66 :   0.1429 0.0000 0.4444  plane waves:    8113
 k-point  67 :   0.2857 0.0000 0.4444  plane waves:    8104
 k-point  68 :   0.4286 0.0000 0.4444  plane waves:    8108
 k-point  69 :   0.1429 0.1429 0.4444  plane waves:    8128
 k-point  70 :   0.2857 0.1429 0.4444  plane waves:    8118
 k-point  71 :   0.4286 0.1429 0.4444  plane waves:    8108
 k-point  72 :  -0.4286 0.1429 0.4444  plane waves:    8131
 k-point  73 :  -0.2857 0.1429 0.4444  plane waves:    8111
 k-point  74 :  -0.1429 0.1429 0.4444  plane waves:    8087
 k-point  75 :   0.2857 0.2857 0.4444  plane waves:    8108
 k-point  76 :   0.4286 0.2857 0.4444  plane waves:    8105
 k-point  77 :  -0.4286 0.2857 0.4444  plane waves:    8108
 k-point  78 :  -0.2857 0.2857 0.4444  plane waves:    8108
 k-point  79 :   0.4286 0.4286 0.4444  plane waves:    8100
 k-point  80 :  -0.4286 0.4286 0.4444  plane waves:    8106

 maximum and minimum number of plane-waves per node :      8142     8084

 maximum number of plane-waves:      8142
 maximum index in each direction: 
   IXMAX=   14   IYMAX=   13   IZMAX=   10
   IXMIN=  -14   IYMIN=  -14   IZMIN=  -10


 serial   3D FFT for wavefunctions
 parallel 3D FFT for charge:
    minimum data exchange during FFTs selected (reduces bandwidth)


 total amount of memory used by VASP MPI-rank0   167890. kBytes
=======================================================================

   base      :      30000. kBytes
   nonlr-proj:      11920. kBytes
   fftplans  :       2458. kBytes
   grid      :      15239. kBytes
   one-center:        497. kBytes
   wavefun   :     107776. kBytes
 
     INWAV:  cpu time      0.0000: real time      0.0001
 Broyden mixing: mesh for mixing (old mesh)
   NGX = 27   NGY = 27   NGZ = 21
  (NGX  =112   NGY  =112   NGZ  = 84)
  gives a total of  15309 points

 initial charge density was supplied:
 charge density of overlapping atoms calculated
 number of electron     160.0000000 magnetization       0.0000000
 keeping initial charge density in first step


--------------------------------------------------------------------------------------------------------


 Maximum index for non-local projection operator         5845
 Maximum index for augmentation-charges         1162 (set IRDMAX)


--------------------------------------------------------------------------------------------------------


 First call to EWALD:  gamma=   0.272
 Maximum number of real-space cells 3x 3x 3
 Maximum number of reciprocal cells 3x 3x 2

    FEWALD:  cpu time      0.0013: real time      0.0013


--------------------------------------- Ionic step        1  -------------------------------------------




--------------------------------------- Iteration      1(   1)  ---------------------------------------


    POTLOK:  cpu time      0.0482: real time      0.0543
    SETDIJ:  cpu time      0.2842: real time      0.2851
     EDDAV:  cpu time     23.8145: real time     23.9020
       DOS:  cpu time      0.0024: real time      0.0025
    --------------------------------------------
      LOOP:  cpu time     24.1493: real time     24.2439

 eigenvalue-minimisations  : 33740
 total energy-change (2. order) : 0.2061573E+04  (-0.8898721E+04)
 number of electron     160.0000000 magnetization       0.0000000
 augmentation part      160.0000000 magnetization       0.0000000

 Free energy of the ion-electron system (eV)
  ---------------------------------------------------
  alpha Z        PSCENC =       916.79272664
  Ewald energy   TEWEN  =    -12065.51588171
  -Hartree energ DENC   =     -8538.01553119
  -exchange      EXHF   =         0.00000000
  -V(xc)+E(xc)   XCENC  =       568.59113182
  PAW double counting   =     15528.72920713   -16124.56849619
  entropy T*S    EENTRO =        -0.00750213
  eigenvalues    EBANDS =        64.72653550
  atomic energy  EATOM  =     21710.84102437
  Solvation  Ediel_sol  =         0.00000000
  ---------------------------------------------------
  free energy    TOTEN  =      2061.57321425 eV

  energy without entropy =     2061.58071638  energy(sigma->0) =     2061.57696531


--------------------------------------------------------------------------------------------------------




--------------------------------------- Iteration      1(   2)  ---------------------------------------


     EDDAV:  cpu time     22.8821: real time     23.0060
       DOS:  cpu time      0.0020: real time      0.0020
    --------------------------------------------
      LOOP:  cpu time     22.8841: real time     23.0081

 eigenvalue-minimisations  : 32000
 total energy-change (2. order) :-0.1940244E+04  (-0.1883739E+04)
 number of electron     160.0000000 magnetization       0.0000000
 augmentation part      160.0000000 magnetization       0.0000000

 Free energy of the ion-electron system (eV)
  ---------------------------------------------------
  alpha Z        PSCENC =       916.79272664
  Ewald energy   TEWEN  =    -12065.51588171
  -Hartree energ DENC   =     -8538.01553119
  -exchange      EXHF   =         0.00000000
  -V(xc)+E(xc)   XCENC  =       568.59113182
  PAW double counting   =     15528.72920713   -16124.56849619
  entropy T*S    EENTRO =        -0.01410251
  eigenvalues    EBANDS =     -1875.51060215
  atomic energy  EATOM  =     21710.84102437
  Solvation  Ediel_sol  =         0.00000000
  ---------------------------------------------------
  free energy    TOTEN  =       121.32947621 eV

  energy without entropy =      121.34357872  energy(sigma->0) =      121.33652747


--------------------------------------------------------------------------------------------------------




--------------------------------------- Iteration      1(   3)  ---------------------------------------


     EDDAV:  cpu time     29.0202: real time     29.1375
       DOS:  cpu time      0.0021: real time      0.0021
    --------------------------------------------
      LOOP:  cpu time     29.0223: real time     29.1395

 eigenvalue-minimisations  : 44320
 total energy-change (2. order) :-0.2045460E+03  (-0.1817737E+03)
 number of electron     160.0000000 magnetization       0.0000000
 augmentation part      160.0000000 magnetization       0.0000000

 Free energy of the ion-electron system (eV)
  ---------------------------------------------------
  alpha Z        PSCENC =       916.79272664
  Ewald energy   TEWEN  =    -12065.51588171
  -Hartree energ DENC   =     -8538.01553119
  -exchange      EXHF   =         0.00000000
  -V(xc)+E(xc)   XCENC  =       568.59113182
  PAW double counting   =     15528.72920713   -16124.56849619
  entropy T*S    EENTRO =        -0.02513287
  eigenvalues    EBANDS =     -2080.04556104
  atomic energy  EATOM  =     21710.84102437
  Solvation  Ediel_sol  =         0.00000000
  ---------------------------------------------------
  free energy    TOTEN  =       -83.21651304 eV

  energy without entropy =      -83.19138016  energy(sigma->0) =      -83.20394660


--------------------------------------------------------------------------------------------------------




--------------------------------------- Iteration      1(   4)  ---------------------------------------


     EDDAV:  cpu time     30.6494: real time     30.7604
       DOS:  cpu time      0.0026: real time      0.0026
    --------------------------------------------
      LOOP:  cpu time     30.6520: real time     30.7631

 eigenvalue-minimisations  : 46220
 total energy-change (2. order) :-0.1382500E+02  (-0.1344485E+02)
 number of electron     160.0000000 magnetization       0.0000000
 augmentation part      160.0000000 magnetization       0.0000000

 Free energy of the ion-electron system (eV)
  ---------------------------------------------------
  alpha Z        PSCENC =       916.79272664
  Ewald energy   TEWEN  =    -12065.51588171
  -Hartree energ DENC   =     -8538.01553119
  -exchange      EXHF   =         0.00000000
  -V(xc)+E(xc)   XCENC  =       568.59113182
  PAW double counting   =     15528.72920713   -16124.56849619
  entropy T*S    EENTRO =        -0.02467854
  eigenvalues    EBANDS =     -2093.87101547
  atomic energy  EATOM  =     21710.84102437
  Solvation  Ediel_sol  =         0.00000000
  ---------------------------------------------------
  free energy    TOTEN  =       -97.04151314 eV

  energy without entropy =      -97.01683460  energy(sigma->0) =      -97.02917387


--------------------------------------------------------------------------------------------------------




--------------------------------------- Iteration      1(   5)  ---------------------------------------


     EDDAV:  cpu time     29.2819: real time     29.4204
       DOS:  cpu time      0.0020: real time      0.0020
    CHARGE:  cpu time      0.6138: real time      0.6170
    MIXING:  cpu time      0.0015: real time      0.0015
    --------------------------------------------
      LOOP:  cpu time     29.8992: real time     30.0409

 eigenvalue-minimisations  : 45200
 total energy-change (2. order) :-0.3302919E+00  (-0.3296387E+00)
 number of electron     159.9999890 magnetization      -0.0000000
 augmentation part       53.4955204 magnetization      -0.0000000

 Broyden mixing:
  rms(total) = 0.25836E+01    rms(broyden)= 0.25833E+01
  rms(prec ) = 0.40733E+01
  weight for this iteration     100.00

 Free energy of the ion-electron system (eV)
  ---------------------------------------------------
  alpha Z        PSCENC =       916.79272664
  Ewald energy   TEWEN  =    -12065.51588171
  -Hartree energ DENC   =     -8538.01553119
  -exchange      EXHF   =         0.00000000
  -V(xc)+E(xc)   XCENC  =       568.59113182
  PAW double counting   =     15528.72920713   -16124.56849619
  entropy T*S    EENTRO =        -0.02469291
  eigenvalues    EBANDS =     -2094.20129295
  atomic energy  EATOM  =     21710.84102437
  Solvation  Ediel_sol  =         0.00000000
  ---------------------------------------------------
  free energy    TOTEN  =       -97.37180499 eV

  energy without entropy =      -97.34711208  energy(sigma->0) =      -97.35945853


--------------------------------------------------------------------------------------------------------




--------------------------------------- Iteration      1(   6)  ---------------------------------------


    POTLOK:  cpu time      0.0420: real time      0.0512
    SETDIJ:  cpu time      0.2841: real time      0.2849
    EDDIAG:  cpu time      3.6924: real time      3.7054
  RMM-DIIS:  cpu time     12.8478: real time     12.8888
    ORTHCH:  cpu time      0.5536: real time      0.5556
       DOS:  cpu time      0.0020: real time      0.0020
    CHARGE:  cpu time      0.6377: real time      0.6409
    MIXING:  cpu time      0.0012: real time      0.0012
    --------------------------------------------
      LOOP:  cpu time     18.0607: real time     18.1299

 eigenvalue-minimisations  : 32023
 total energy-change (2. order) :-0.1197057E+02  (-0.1421266E+02)
 number of electron     159.9999864 magnetization      -0.0000000
 augmentation part       68.7334818 magnetization      -0.0000000

 Broyden mixing:
  rms(total) = 0.44078E+01    rms(broyden)= 0.44077E+01
  rms(prec ) = 0.74081E+01
  weight for this iteration     100.00

 eigenvalues of (default mixing * dielectric matrix)
  average eigenvalue GAMMA=   0.3255
  0.3255

 Free energy of the ion-electron system (eV)
  ---------------------------------------------------
  alpha Z        PSCENC =       916.79272664
  Ewald energy   TEWEN  =    -12065.51588171
  -Hartree energ DENC   =     -8118.07687184
  -exchange      EXHF   =         0.00000000
  -V(xc)+E(xc)   XCENC  =       556.50919794
  PAW double counting   =     15100.46684174   -15666.52708440
  entropy T*S    EENTRO =        -0.02124909
  eigenvalues    EBANDS =     -2543.81107381
  atomic energy  EATOM  =     21710.84102437
  Solvation  Ediel_sol  =         0.00000000
  ---------------------------------------------------
  free energy    TOTEN  =      -109.34237016 eV

  energy without entropy =     -109.32112107  energy(sigma->0) =     -109.33174561


--------------------------------------------------------------------------------------------------------




--------------------------------------- Iteration      1(   7)  ---------------------------------------


    POTLOK:  cpu time      0.0407: real time      0.0410
    SETDIJ:  cpu time      0.2820: real time      0.2827
    EDDIAG:  cpu time      3.4504: real time      3.4631
  RMM-DIIS:  cpu time     12.0947: real time     12.1331
    ORTHCH:  cpu time      0.5489: real time      0.5506
       DOS:  cpu time      0.0020: real time      0.0020
    CHARGE:  cpu time      0.5949: real time      0.5973
    MIXING:  cpu time      0.0012: real time      0.0012
    --------------------------------------------
      LOOP:  cpu time     17.0147: real time     17.0710

 eigenvalue-minimisations  : 32006
 total energy-change (2. order) : 0.1916332E+02  (-0.3536042E+01)
 number of electron     159.9999882 magnetization       0.0000000
 augmentation part       58.2098681 magnetization       0.0000000

 Broyden mixing:
  rms(total) = 0.83741E+00    rms(broyden)= 0.83692E+00
  rms(prec ) = 0.10085E+01
  weight for this iteration     100.00

 eigenvalues of (default mixing * dielectric matrix)
  average eigenvalue GAMMA=   0.4666
  0.6507  0.2826

 Free energy of the ion-electron system (eV)
  ---------------------------------------------------
  alpha Z        PSCENC =       916.79272664
  Ewald energy   TEWEN  =    -12065.51588171
  -Hartree energ DENC   =     -8373.32558706
  -exchange      EXHF   =         0.00000000
  -V(xc)+E(xc)   XCENC  =       561.61094828
  PAW double counting   =     15561.18599255   -16157.70178364
  entropy T*S    EENTRO =        -0.02445147
  eigenvalues    EBANDS =     -2244.04203888
  atomic energy  EATOM  =     21710.84102437
  Solvation  Ediel_sol  =         0.00000000
  ---------------------------------------------------
  free energy    TOTEN  =       -90.17905091 eV

  energy without entropy =      -90.15459945  energy(sigma->0) =      -90.16682518


--------------------------------------------------------------------------------------------------------




--------------------------------------- Iteration      1(   8)  ---------------------------------------


    POTLOK:  cpu time      0.0437: real time      0.0816
    SETDIJ:  cpu time      0.2785: real time      0.2793
    EDDIAG:  cpu time      3.5932: real time      3.6061
  RMM-DIIS:  cpu time     16.0832: real time     16.1337
    ORTHCH:  cpu time      0.5567: real time      0.5584
       DOS:  cpu time      0.0020: real time      0.0020
    CHARGE:  cpu time      0.6236: real time      0.6263
    MIXING:  cpu time      0.0014: real time      0.0014
    --------------------------------------------
      LOOP:  cpu time     21.1823: real time     21.2889

 eigenvalue-minimisations  : 41210
 total energy-change (2. order) :-0.3977553E+00  (-0.2959508E+00)
 number of electron     159.9999882 magnetization       0.0000000
 augmentation part       58.5864524 magnetization       0.0000000

 Broyden mixing:
  rms(total) = 0.35220E+00    rms(broyden)= 0.35197E+00
  rms(prec ) = 0.47410E+00
  weight for this iteration     100.00

 eigenvalues of (default mixing * dielectric matrix)
  average eigenvalue GAMMA=   0.7292
  0.3261  0.9307  0.9307

 Free energy of the ion-electron system (eV)
  ---------------------------------------------------
  alpha Z        PSCENC =       916.79272664
  Ewald energy   TEWEN  =    -12065.51588171
  -Hartree energ DENC   =     -8362.51352772
  -exchange      EXHF   =         0.00000000
  -V(xc)+E(xc)   XCENC  =       561.86546937
  PAW double counting   =     15652.87887182   -16256.80426625
  entropy T*S    EENTRO =        -0.02350424
  eigenvalues    EBANDS =     -2248.09771853
  atomic energy  EATOM  =     21710.84102437
  Solvation  Ediel_sol  =         0.00000000
  ---------------------------------------------------
  free energy    TOTEN  =       -90.57680626 eV

  energy without entropy =      -90.55330202  energy(sigma->0) =      -90.56505414


--------------------------------------------------------------------------------------------------------




--------------------------------------- Iteration      1(   9)  ---------------------------------------


    POTLOK:  cpu time      0.0745: real time      0.0749
    SETDIJ:  cpu time      0.2825: real time      0.2834
    EDDIAG:  cpu time      3.6680: real time      3.6809
  RMM-DIIS:  cpu time     16.9468: real time     17.0024
    ORTHCH:  cpu time      0.5420: real time      0.5438
       DOS:  cpu time      0.0020: real time      0.0020
    CHARGE:  cpu time      0.5823: real time      0.5848
    MIXING:  cpu time      0.0014: real time      0.0014
    --------------------------------------------
      LOOP:  cpu time     22.0996: real time     22.1736

 eigenvalue-minimisations  : 46737
 total energy-change (2. order) :-0.4634106E-01  (-0.7032664E-01)
 number of electron     159.9999883 magnetization      -0.0000000
 augmentation part       58.8039537 magnetization      -0.0000000

 Broyden mixing:
  rms(total) = 0.19425E+00    rms(broyden)= 0.19407E+00
  rms(prec ) = 0.24585E+00
  weight for this iteration     100.00

 eigenvalues of (default mixing * dielectric matrix)
  average eigenvalue GAMMA=   0.9449
  0.3235  1.6118  1.0870  0.7574

 Free energy of the ion-electron system (eV)
  ---------------------------------------------------
  alpha Z        PSCENC =       916.79272664
  Ewald energy   TEWEN  =    -12065.51588171
  -Hartree energ DENC   =     -8351.06377802
  -exchange      EXHF   =         0.00000000
  -V(xc)+E(xc)   XCENC  =       561.95953496
  PAW double counting   =     15758.00866126   -16368.06257366
  entropy T*S    EENTRO =        -0.02300060
  eigenvalues    EBANDS =     -2253.55986055
  atomic energy  EATOM  =     21710.84102437
  Solvation  Ediel_sol  =         0.00000000
  ---------------------------------------------------
  free energy    TOTEN  =       -90.62314732 eV

  energy without entropy =      -90.60014672  energy(sigma->0) =      -90.61164702


--------------------------------------------------------------------------------------------------------




--------------------------------------- Iteration      1(  10)  ---------------------------------------


    POTLOK:  cpu time      0.0402: real time      0.0654
    SETDIJ:  cpu time      0.2797: real time      0.2804
    EDDIAG:  cpu time      3.5242: real time      3.5357
  RMM-DIIS:  cpu time     17.8344: real time     17.8909
    ORTHCH:  cpu time      0.5581: real time      0.5600
       DOS:  cpu time      0.0020: real time      0.0020
    CHARGE:  cpu time      0.6220: real time      0.6247
    MIXING:  cpu time      0.0014: real time      0.0014
    --------------------------------------------
      LOOP:  cpu time     22.8620: real time     22.9606

 eigenvalue-minimisations  : 45187
 total energy-change (2. order) :-0.1841912E-02  (-0.1562341E-01)
 number of electron     159.9999883 magnetization       0.0000000
 augmentation part       58.9733194 magnetization       0.0000000

 Broyden mixing:
  rms(total) = 0.81213E-01    rms(broyden)= 0.81092E-01
  rms(prec ) = 0.91413E-01
  weight for this iteration     100.00

 eigenvalues of (default mixing * dielectric matrix)
  average eigenvalue GAMMA=   1.0845
  2.4697  0.3232  0.9760  0.9760  0.6773

 Free energy of the ion-electron system (eV)
  ---------------------------------------------------
  alpha Z        PSCENC =       916.79272664
  Ewald energy   TEWEN  =    -12065.51588171
  -Hartree energ DENC   =     -8344.52810342
  -exchange      EXHF   =         0.00000000
  -V(xc)+E(xc)   XCENC  =       562.05461826
  PAW double counting   =     15846.30380089   -16460.57622973
  entropy T*S    EENTRO =        -0.02221872
  eigenvalues    EBANDS =     -2255.97472582
  atomic energy  EATOM  =     21710.84102437
  Solvation  Ediel_sol  =         0.00000000
  ---------------------------------------------------
  free energy    TOTEN  =       -90.62498923 eV

  energy without entropy =      -90.60277051  energy(sigma->0) =      -90.61387987


--------------------------------------------------------------------------------------------------------




--------------------------------------- Iteration      1(  11)  ---------------------------------------


    POTLOK:  cpu time      0.0440: real time      0.0915
    SETDIJ:  cpu time      0.2815: real time      0.2822
    EDDIAG:  cpu time      3.6630: real time      3.6759
  RMM-DIIS:  cpu time     16.5494: real time     16.6022
    ORTHCH:  cpu time      0.5383: real time      0.5403
       DOS:  cpu time      0.0020: real time      0.0020
    CHARGE:  cpu time      0.5920: real time      0.5944
    MIXING:  cpu time      0.0014: real time      0.0014
    --------------------------------------------
      LOOP:  cpu time     21.6717: real time     21.7899

 eigenvalue-minimisations  : 44136
 total energy-change (2. order) :-0.6939428E-02  (-0.3103580E-02)
 number of electron     159.9999883 magnetization       0.0000000
 augmentation part       58.9778917 magnetization       0.0000000

 Broyden mixing:
  rms(total) = 0.30397E-01    rms(broyden)= 0.30367E-01
  rms(prec ) = 0.35867E-01
  weight for this iteration     100.00

 eigenvalues of (default mixing * dielectric matrix)
  average eigenvalue GAMMA=   1.1244
  2.4361  1.5055  0.3233  1.0187  0.8236  0.6393

 Free energy of the ion-electron system (eV)
  ---------------------------------------------------
  alpha Z        PSCENC =       916.79272664
  Ewald energy   TEWEN  =    -12065.51588171
  -Hartree energ DENC   =     -8343.15767598
  -exchange      EXHF   =         0.00000000
  -V(xc)+E(xc)   XCENC  =       562.09994316
  PAW double counting   =     15890.63302890   -16506.53895804
  entropy T*S    EENTRO =        -0.02258377
  eigenvalues    EBANDS =     -2255.76355224
  atomic energy  EATOM  =     21710.84102437
  Solvation  Ediel_sol  =         0.00000000
  ---------------------------------------------------
  free energy    TOTEN  =       -90.63192866 eV

  energy without entropy =      -90.60934489  energy(sigma->0) =      -90.62063678


--------------------------------------------------------------------------------------------------------




--------------------------------------- Iteration      1(  12)  ---------------------------------------


    POTLOK:  cpu time      0.0668: real time      0.0672
    SETDIJ:  cpu time      0.2834: real time      0.2842
    EDDIAG:  cpu time      3.5070: real time      3.5187
  RMM-DIIS:  cpu time     16.0482: real time     16.0996
    ORTHCH:  cpu time      0.5520: real time      0.5539
       DOS:  cpu time      0.0021: real time      0.0021
    CHARGE:  cpu time      0.5931: real time      0.5958
    MIXING:  cpu time      0.0015: real time      0.0015
    --------------------------------------------
      LOOP:  cpu time     21.0541: real time     21.1229

 eigenvalue-minimisations  : 40947
 total energy-change (2. order) :-0.2221561E-02  (-0.7065273E-03)
 number of electron     159.9999883 magnetization      -0.0000000
 augmentation part       58.9676090 magnetization      -0.0000000

 Broyden mixing:
  rms(total) = 0.12586E-01    rms(broyden)= 0.12574E-01
  rms(prec ) = 0.16208E-01
  weight for this iteration     100.00

 eigenvalues of (default mixing * dielectric matrix)
  average eigenvalue GAMMA=   1.1144
  2.4426  1.6342  0.3233  1.0113  1.0113  0.7476  0.6305

 Free energy of the ion-electron system (eV)
  ---------------------------------------------------
  alpha Z        PSCENC =       916.79272664
  Ewald energy   TEWEN  =    -12065.51588171
  -Hartree energ DENC   =     -8343.83528139
  -exchange      EXHF   =         0.00000000
  -V(xc)+E(xc)   XCENC  =       562.09885129
  PAW double counting   =     15892.70922352   -16508.43731273
  entropy T*S    EENTRO =        -0.02296256
  eigenvalues    EBANDS =     -2255.26453765
  atomic energy  EATOM  =     21710.84102437
  Solvation  Ediel_sol  =         0.00000000
  ---------------------------------------------------
  free energy    TOTEN  =       -90.63415022 eV

  energy without entropy =      -90.61118766  energy(sigma->0) =      -90.62266894


--------------------------------------------------------------------------------------------------------




--------------------------------------- Iteration      1(  13)  ---------------------------------------


    POTLOK:  cpu time      0.0395: real time      0.0471
    SETDIJ:  cpu time      0.2804: real time      0.2810
    EDDIAG:  cpu time      3.6189: real time      3.6325
  RMM-DIIS:  cpu time     10.5575: real time     10.5913
    ORTHCH:  cpu time      0.5410: real time      0.5428
       DOS:  cpu time      0.0020: real time      0.0020
    --------------------------------------------
      LOOP:  cpu time     15.0392: real time     15.0967

 eigenvalue-minimisations  : 25903
 total energy-change (2. order) : 0.9725749E-04  (-0.1368323E-03)
 number of electron     159.9999883 magnetization      -0.0000000
 augmentation part       58.9676090 magnetization      -0.0000000

 Free energy of the ion-electron system (eV)
  ---------------------------------------------------
  alpha Z        PSCENC =       916.79272664
  Ewald energy   TEWEN  =    -12065.51588171
  -Hartree energ DENC   =     -8344.43095530
  -exchange      EXHF   =         0.00000000
  -V(xc)+E(xc)   XCENC  =       562.11077104
  PAW double counting   =     15890.58862503   -16506.03666492
  entropy T*S    EENTRO =        -0.02298901
  eigenvalues    EBANDS =     -2254.96070911
  atomic energy  EATOM  =     21710.84102437
  Solvation  Ediel_sol  =         0.00000000
  ---------------------------------------------------
  free energy    TOTEN  =       -90.63405296 eV

  energy without entropy =      -90.61106395  energy(sigma->0) =      -90.62255846


--------------------------------------------------------------------------------------------------------




 average (electrostatic) potential at core
  the test charge radii are     0.9500  1.0808
  (the norm of the test charge is              1.0000)
       1 -46.1464       2 -46.1464       3 -46.1464       4 -46.1464       5 -46.1464
       6 -46.1464       7 -46.1464       8 -46.1464       9 -54.0770      10 -54.0770
      11 -54.0770      12 -54.0770      13 -54.0770      14 -54.0770      15 -54.0770
      16 -54.0770
 
 
 
 E-fermi :   4.9399     XC(G=0): -11.0804     alpha+bet :-10.5044

 Fermi energy:         4.9399092564

 spin component 1

 k-point     1 :       0.0000    0.0000    0.0000
  band No.  band energies     occupation 
      1     -49.6348      1.00000
      2     -49.6193      1.00000
      3     -49.6193      1.00000
      4     -49.6172      1.00000
      5     -49.6088      1.00000
      6     -49.4809      1.00000
      7     -49.4693      1.00000
      8     -49.4693      1.00000
      9     -49.4547      1.00000
     10     -49.4082      1.00000
     11     -49.4082      1.00000
     12     -49.1950      1.00000
     13     -47.1022      1.00000
     14     -47.0986      1.00000
     15     -47.0986      1.00000
     16     -47.0968      1.00000
     17     -47.0917      1.00000
     18     -46.8630      1.00000
     19     -46.8630      1.00000
     20     -46.7204      1.00000
     21     -46.7202      1.00000
     22     -46.7202      1.00000
     23     -46.7154      1.00000
     24     -46.6292      1.00000
     25     -10.1787      1.00000
     26      -8.6126      1.00000
     27      -8.6126      1.00000
     28      -8.5985      1.00000
     29      -8.5985      1.00000
     30      -8.2798      1.00000
     31      -7.9142      1.00000
     32      -7.6385      1.00000
     33      -1.7013      1.00000
     34      -1.5085      1.00000
     35      -0.6265      1.00000
     36      -0.6265      1.00000
     37      -0.5473      1.00000
     38      -0.5473      1.00000
     39      -0.3362      1.00000
     40       0.2121      1.00000
     41       0.5406      1.00000
     42       0.5787      1.00000
     43       0.8340      1.00000
     44       0.8712      1.00000
     45       0.8712      1.00000
     46       0.8741      1.00000
     47       0.8741      1.00000
     48       1.0835      1.00000
     49       1.2722      1.00000
     50       1.4919      1.00000
     51       1.4919      1.00000
     52       1.9151      1.00000
     53       1.9151      1.00000
     54       1.9932      1.00000
     55       2.2419      1.00000
     56       2.2978      1.00000
     57       2.5384      1.00000
     58       2.6025      1.00000
     59       2.6025      1.00000
     60       2.6338      1.00000
     61       2.6338      1.00000
     62       2.6623      1.00000
     63       2.7506      1.00000
     64       2.9112      1.00000
     65       3.1745      1.00000
     66       3.1745      1.00000
     67       3.2956      1.00000
     68       3.3552      1.00000
     69       3.4961      1.00000
     70       3.5469      1.00000
     71       3.6252      1.00000
     72       3.6252      1.00000
     73       4.1453      1.00000
     74       4.1453      1.00000
     75       4.3024      1.00000
     76       4.3024      1.00000
     77       4.4229      1.00000
     78       4.5476      1.00000
     79       4.6767      1.00000
     80       4.6949      1.00000
     81       5.2549      0.00000
     82       5.3686      0.00000
     83       5.3686      0.00000
     84       5.3917      0.00000
     85       5.3917      0.00000
     86       5.4528      0.00000
     87       5.7446      0.00000
     88       5.7449      0.00000
     89       5.7995      0.00000
     90       5.7996      0.00000
     91       5.7997      0.00000
     92       6.1335      0.00000
     93       6.3492      0.00000
     94       6.3994      0.00000
     95       6.4520      0.00000
     96       6.4987      0.00000
     97       7.1218      0.00000
     98       7.2103      0.00000
     99       7.8091      0.00000
    100       8.4006      0.00000

 k-point     2 :       0.1429    0.0000    0.0000
  band No.  band energies     occupation 
      1     -49.6343      1.00000
      2     -49.6225      1.00000
      3     -49.6165      1.00000
      4     -49.6120      1.00000
      5     -49.6090      1.00000
      6     -49.4806      1.00000
      7     -49.4722      1.00000
      8     -49.4662      1.00000
      9     -49.4550      1.00000
     10     -49.4550      1.00000
     11     -49.3611      1.00000
     12     -49.2004      1.00000
     13     -47.1021      1.00000
     14     -47.0993      1.00000
     15     -47.0981      1.00000
     16     -47.0968      1.00000
     17     -47.0861      1.00000
     18     -46.9143      1.00000
     19     -46.8114      1.00000
     20     -46.7206      1.00000
     21     -46.7205      1.00000
     22     -46.7195      1.00000
     23     -46.7156      1.00000
     24     -46.6351      1.00000
     25     -10.1388      1.00000
     26      -8.9401      1.00000
     27      -8.6250      1.00000
     28      -8.5414      1.00000
     29      -8.3043      1.00000
     30      -8.2980      1.00000
     31      -7.9468      1.00000
     32      -7.6469      1.00000
     33      -1.6498      1.00000
     34      -1.4199      1.00000
     35      -0.6477      1.00000
     36      -0.5923      1.00000
     37      -0.5812      1.00000
     38      -0.5021      1.00000
     39      -0.3790      1.00000
     40       0.2148      1.00000
     41       0.5229      1.00000
     42       0.6769      1.00000
     43       0.6774      1.00000
     44       0.7951      1.00000
     45       0.8536      1.00000
     46       0.9313      1.00000
[...]
         0         1         2         3         4         5         6         7         8         9
 total charge-density along one line
 
 soft charge-density along one line, spin component           2
         0         1         2         3         4         5         6         7         8         9
 total charge-density along one line
 
 pseudopotential strength for first ion, spin component:           1
-54.178   0.023  -0.000  27.593  -0.019   0.000  -0.000  -0.000
  0.023 -54.246   0.000  -0.019  27.644  -0.000   0.000   0.000
 -0.000   0.000 -54.113   0.000  -0.000  27.540   0.000   0.000
 27.593  -0.019   0.000  -9.602   0.014  -0.000   0.000   0.000
 -0.019  27.644  -0.000   0.014  -9.637   0.000  -0.000  -0.000
  0.000  -0.000  27.540  -0.000   0.000  -9.568  -0.000  -0.000
 -0.000   0.000   0.000   0.000  -0.000  -0.000  -8.086   0.000
 -0.000   0.000   0.000   0.000  -0.000  -0.000   0.000  -7.897
 -0.000  -0.000   0.000   0.000   0.000  -0.000   0.000  -0.045
  0.000  -0.000  -0.000  -0.000   0.000   0.000  -0.044  -0.000
 -0.000   0.000  -0.000   0.000  -0.000   0.000  -0.000  -0.097
  0.000  -0.000  -0.000  -0.000   0.000   0.000  -0.256  -0.000
  0.000  -0.000  -0.000  -0.000   0.000   0.000  -0.000  -0.301
  0.000   0.000  -0.000  -0.000  -0.000   0.000  -0.000   0.011
 -0.000   0.000   0.000   0.000  -0.000  -0.000   0.010   0.000
  0.000  -0.000   0.000  -0.000   0.000  -0.000   0.000   0.023
 -0.000   0.000   0.000   0.000  -0.000  -0.000   0.000  -0.006
  0.000  -0.000  -0.000  -0.000   0.000   0.000  -0.000   0.001
 pseudopotential strength for first ion, spin component:           2
-52.191   0.108  -0.000  26.072  -0.079   0.000  -0.000  -0.000
  0.108 -52.220   0.000  -0.079  26.093  -0.000   0.000   0.000
 -0.000   0.000 -52.169   0.000  -0.000  26.047   0.000   0.000
 26.072  -0.079   0.000  -8.529   0.057  -0.000   0.000   0.000
 -0.079  26.093  -0.000   0.057  -8.543   0.000  -0.000  -0.000
  0.000  -0.000  26.047  -0.000   0.000  -8.513  -0.000  -0.000
 -0.000   0.000   0.000   0.000  -0.000  -0.000  -6.091   0.000
 -0.000   0.000   0.000   0.000  -0.000  -0.000   0.000  -6.435
 -0.000  -0.000   0.000   0.000   0.000  -0.000   0.000   0.113
  0.000  -0.000  -0.000  -0.000   0.000   0.000   0.117  -0.000
 -0.000   0.000  -0.000   0.000  -0.000   0.000  -0.000   0.021
  0.000  -0.000  -0.000  -0.000   0.000   0.000  -0.723  -0.000
  0.000  -0.000  -0.000  -0.000   0.000   0.000  -0.000  -0.642
  0.000   0.000  -0.000  -0.000  -0.000   0.000  -0.000  -0.025
 -0.000   0.000   0.000   0.000  -0.000  -0.000  -0.025   0.000
  0.000  -0.000   0.000  -0.000   0.000  -0.000   0.000  -0.006
 -0.000   0.000   0.000   0.000  -0.000  -0.000   0.000  -0.014
  0.000  -0.000  -0.000  -0.000   0.000   0.000  -0.000   0.004
 total augmentation occupancy for first ion, spin component:           1
  2.013  -0.018   0.000   0.062  -0.043   0.000  -0.000   0.000   0.000   0.000   0.000   0.000   0.000   0.000   0.000   0.000
 -0.018   2.016  -0.000  -0.043   0.071   0.000  -0.000   0.000  -0.000   0.000   0.000  -0.000  -0.000  -0.000   0.000   0.000
  0.000  -0.000   2.013  -0.000  -0.000   0.060   0.000   0.000   0.000  -0.000   0.000   0.000   0.000   0.000  -0.000  -0.000
  0.062  -0.043   0.000   0.204  -0.104  -0.000   0.000  -0.000  -0.000   0.000  -0.000   0.000  -0.000  -0.000  -0.000  -0.000
 -0.043   0.071  -0.000  -0.104   0.227  -0.000   0.000  -0.000  -0.000   0.000   0.000  -0.000   0.000   0.000   0.000   0.000
  0.000  -0.000   0.060   0.000  -0.000   0.191   0.000  -0.000   0.000  -0.000   0.000   0.000   0.000   0.000   0.000   0.000
 -0.000  -0.000   0.000   0.000   0.000   0.000   1.277  -0.000   0.000  -0.105   0.000  -0.038   0.000  -0.000  -0.061   0.000
  0.000   0.000   0.000  -0.000  -0.000  -0.000  -0.000   1.470  -0.020   0.000  -0.090  -0.000   0.116  -0.156   0.000   0.091
  0.000   0.000   0.000   0.000   0.000   0.000  -0.000  -0.020   1.309   0.000  -0.131   0.000  -0.157   0.116  -0.000  -0.081
  0.000   0.000   0.000   0.000   0.000   0.000  -0.105  -0.000   0.000   1.293   0.000  -0.062   0.000  -0.000  -0.008   0.000
  0.000   0.000   0.000   0.000  -0.000   0.000   0.000  -0.090  -0.131   0.000   1.507  -0.000   0.095  -0.078   0.000   0.203
  0.000  -0.000  -0.000   0.000  -0.000   0.000  -0.038  -0.000  -0.000  -0.062  -0.000   0.183   0.000  -0.000  -0.025   0.000
  0.000   0.000   0.000  -0.000  -0.000   0.000   0.000   0.116  -0.157  -0.000   0.095  -0.000   0.259  -0.078   0.000   0.092
  0.000   0.000   0.000  -0.000   0.000   0.000  -0.000  -0.156   0.116  -0.000  -0.078   0.000  -0.078   0.182   0.000  -0.021
  0.000   0.000  -0.000  -0.000   0.000   0.000  -0.061   0.000   0.000  -0.008   0.000  -0.025   0.000   0.000   0.174  -0.000
 -0.000  -0.000  -0.000   0.000   0.000   0.000   0.000   0.091  -0.081   0.000   0.203  -0.000   0.092  -0.021   0.000   0.151
  0.000   0.000   0.000   0.000   0.000   0.000  -0.000  -0.003  -0.052   0.000   0.093   0.000  -0.314   0.024  -0.000   0.002
 -0.000   0.000  -0.000   0.000   0.000   0.000  -0.000   0.003   0.021   0.000  -0.016   0.000   0.023  -0.006  -0.000   0.003
 total augmentation occupancy for first ion, spin component:           2
 -0.005   0.000   0.000  -0.002  -0.000  -0.000   0.000   0.000  -0.000  -0.000   0.000  -0.000   0.000   0.000   0.000   0.000
  0.000  -0.007   0.000  -0.001  -0.007   0.000   0.000   0.000  -0.000   0.000   0.000   0.000  -0.000   0.000   0.000  -0.000
  0.000   0.000  -0.007  -0.000   0.000  -0.004  -0.000  -0.000  -0.000   0.000   0.000   0.000   0.000   0.000  -0.000  -0.000
 -0.002  -0.001   0.000   0.014  -0.002   0.000  -0.000   0.000  -0.000   0.000   0.000  -0.000  -0.000  -0.000   0.000  -0.000
 -0.000  -0.007   0.000  -0.002   0.003  -0.000  -0.000   0.000  -0.000  -0.000   0.000   0.000   0.000   0.000  -0.000   0.000
  0.000  -0.000  -0.004   0.000  -0.000   0.014   0.000  -0.000  -0.000  -0.000  -0.000   0.000  -0.000  -0.000  -0.000   0.000
  0.000   0.000   0.000  -0.000  -0.000   0.000   0.668   0.000  -0.000   0.126   0.000  -0.269   0.000   0.000   0.001   0.000
  0.000  -0.000  -0.000   0.000   0.000  -0.000   0.000   0.361   0.125   0.000   0.045   0.000  -0.182  -0.014   0.000  -0.027
 -0.000   0.000  -0.000  -0.000   0.000  -0.000  -0.000   0.125   0.503   0.000   0.162   0.000  -0.011  -0.198  -0.000  -0.020
 -0.000   0.000   0.000   0.000  -0.000   0.000   0.126  -0.000  -0.000   0.627  -0.000   0.003   0.000  -0.000  -0.261  -0.000
  0.000   0.000   0.000   0.000   0.000  -0.000   0.000   0.045   0.162  -0.000   0.231   0.000  -0.014  -0.014   0.000  -0.140
 -0.000   0.000   0.000  -0.000   0.000   0.000  -0.269   0.000   0.000   0.003  -0.000   0.052  -0.000   0.000   0.007  -0.000
 -0.000  -0.000   0.000   0.000  -0.000  -0.000  -0.000  -0.182  -0.011  -0.000  -0.014   0.000   0.004   0.026  -0.000  -0.002
  0.000  -0.000   0.000   0.000  -0.000  -0.000   0.000  -0.014  -0.198  -0.000  -0.014  -0.000   0.026  -0.001  -0.000   0.005
  0.000   0.000   0.000   0.000  -0.000  -0.000   0.001  -0.000  -0.000  -0.261   0.000   0.007   0.000   0.000   0.034  -0.000
 -0.000  -0.000   0.000   0.000   0.000   0.000   0.000  -0.027  -0.020  -0.000  -0.140   0.000  -0.002   0.005  -0.000  -0.023
  0.000   0.000   0.000  -0.000   0.000   0.000   0.000   0.109   0.032   0.000  -0.048   0.000  -0.027   0.002   0.000  -0.021
 -0.000  -0.000  -0.000   0.000   0.000   0.000  -0.000   0.019   0.015  -0.000  -0.015   0.000  -0.002  -0.003  -0.000   0.000


------------------------ aborting loop because EDIFF is reached ----------------------------------------





 total charge

# of ion       s       p       d       tot
------------------------------------------
    1        0.353   6.315   6.127  12.795
    2        0.353   6.315   6.127  12.795
    3        0.353   6.315   6.127  12.795
    4        0.353   6.315   6.127  12.795
    5        0.353   6.315   6.127  12.795
    6        0.353   6.315   6.127  12.795
    7        0.353   6.315   6.127  12.795
    8        0.353   6.315   6.127  12.795
    9        1.497   2.255   0.069   3.821
   10        1.497   2.255   0.069   3.821
   11        1.497   2.255   0.069   3.821
   12        1.497   2.255   0.069   3.821
   13        1.497   2.255   0.069   3.821
   14        1.497   2.255   0.069   3.821
   15        1.497   2.255   0.069   3.821
   16        1.497   2.255   0.069   3.821
--------------------------------------------------
tot         14.800  68.559  49.568 132.927



 magnetization (x)

# of ion       s       p       d       tot
------------------------------------------
    1        0.024   0.015   2.332   2.371
    2       -0.024  -0.015  -2.332  -2.371
    3       -0.024  -0.015  -2.332  -2.371
    4        0.024   0.015   2.332   2.371
    5        0.024   0.015   2.332   2.371
    6       -0.024  -0.015  -2.332  -2.371
    7       -0.024  -0.015  -2.332  -2.371
    8        0.024   0.015   2.332   2.371
    9        0.000   0.000   0.000   0.000
   10        0.000   0.000   0.000   0.000
   11        0.000   0.000   0.000   0.000
   12        0.000   0.000   0.000   0.000
   13        0.000   0.000   0.000   0.000
   14        0.000   0.000   0.000   0.000
   15        0.000   0.000   0.000   0.000
   16        0.000   0.000   0.000   0.000
--------------------------------------------------
tot         -0.000   0.000   0.000   0.000
 
    CHARGE:  cpu time      0.6168: real time      0.6192
    FORLOC:  cpu time      0.0023: real time      0.0023
    FORNL :  cpu time      5.5052: real time      5.5242
    STRESS:  cpu time     15.4325: real time     15.4824
    FORCOR:  cpu time      0.0377: real time      0.0379
    FORHAR:  cpu time      0.0053: real time      0.0053
    MIXING:  cpu time      0.0011: real time      0.0011
    OFIELD:  cpu time      0.0000: real time      0.0000
    FORVDW:  cpu time      0.8764: real time      0.8787

  FORCE on cell =-STRESS in cart. coord.  units (eV):
  Direction    XX          YY          ZZ          XY          YZ          ZX
  --------------------------------------------------------------------------------------
  Alpha Z   916.79273   916.79273   916.79273
  Ewald   -1493.48992 -2341.99279 -8265.66957    -0.00000     0.00000     0.00000
  Hartree  5070.71825  4355.06204 -1114.30475    -0.00000    -0.00000    -0.00000
  E(xc)    -898.60334  -901.11155  -900.16747     0.00000     0.00000    -0.00000
  Local   -5541.27148 -3994.74472  7432.70233    -0.00000     0.00000    -0.00000
  n-local  -278.94298  -251.59933  -244.06061    -0.70895    -0.46283    -0.71030
  augment   526.98982   514.52725   511.10725     0.00000    -0.00000     0.00000
  Kinetic  1711.67687  1715.37257  1676.66884     3.81577    -0.02049     0.77030
  Fock        0.00000     0.00000     0.00000     0.00000     0.00000     0.00000
  vdW        -6.80892    -6.70950    -7.16119    -0.00000    -0.00000    -0.00000
  -------------------------------------------------------------------------------------
  Total       7.06101     5.59669     5.90756    -0.00000     0.00000     0.00000
  in kB      40.84114    32.37147    34.16954    -0.00000     0.00000     0.00000
  external pressure =       35.79 kB  Pullay stress =        0.00 kB


 VOLUME and BASIS-vectors are now :
 -----------------------------------------------------------------------------
  energy-cutoff  :      550.00
  volume of cell :      277.00
      direct lattice vectors                 reciprocal lattice vectors
     4.692696772 -5.471491693 -0.000000000     0.106548542 -0.091382758  0.000000000
     4.692696772  5.471491693  0.000000000     0.106548542  0.091382758 -0.000000000
     0.000000000  0.000000000  5.394131590    -0.000000000 -0.000000000  0.185386653

  length of vectors
     7.208233094  7.208233094  5.394131590     0.140368801  0.140368801  0.185386653


 FORCES acting on ions
    electron-ion (+dipol)            ewald-force                    non-local-force                 convergence-correction
 -----------------------------------------------------------------------------------------------
   -.204E-12 0.126E-13 -.327E-13   0.995E-13 0.746E-13 -.178E-13   0.101E-21 0.311E-22 0.764E-22   -.268E-12 -.154E-12 0.459E-12
   0.935E-12 0.139E-11 -.625E-14   0.978E-13 0.675E-13 -.231E-13   0.982E-22 -.146E-21 0.999E-22   -.217E-12 0.398E-13 0.337E-12
   0.924E-12 0.594E-12 0.346E-10   0.100E-12 0.568E-13 -.142E-13   0.121E-21 -.411E-21 -.208E-21   -.817E-13 -.316E-13 0.103E-12
   0.705E-11 0.959E-11 0.157E-10   0.995E-13 0.497E-13 -.213E-13   0.836E-22 0.131E-22 -.501E-22   -.109E-12 -.535E-13 -.469E-13
   0.488E-11 0.420E-11 0.739E-11   -.127E-12 -.746E-13 -.187E-13   0.308E-22 0.181E-22 -.522E-22   -.381E-13 0.311E-12 0.288E-12
   -.442E-12 -.335E-11 0.791E-11   -.114E-12 -.604E-13 -.355E-14   -.114E-21 0.289E-21 -.158E-21   -.294E-12 0.337E-12 0.426E-12
   -.206E-10 -.254E-10 -.463E-10   -.128E-12 -.995E-13 -.107E-13   -.122E-21 0.131E-21 0.965E-22   0.690E-13 0.725E-13 0.194E-12
   0.153E-11 0.449E-11 -.448E-10   -.113E-12 -.568E-13 -.142E-13   -.124E-21 -.391E-22 -.120E-22   -.544E-13 -.134E-12 0.948E-13
   -.109E-06 0.121E-11 0.300E+03   -.819E-14 -.711E-14 -.301E+03   0.676E-18 -.114E-16 0.878E+00   0.136E-12 -.291E-13 -.359E-02
   -.109E-06 -.117E-11 0.300E+03   -.711E-14 -.640E-14 -.301E+03   -.174E-17 0.906E-17 0.878E+00   0.702E-13 -.890E-13 -.359E-02
   -.109E-06 0.184E-11 0.300E+03   -.711E-14 -.759E-14 -.301E+03   -.239E-17 -.992E-17 0.878E+00   -.821E-13 0.119E-12 -.359E-02
   -.109E-06 -.235E-11 0.300E+03   -.668E-14 0.213E-13 -.301E+03   0.165E-17 0.734E-17 0.878E+00   -.156E-12 0.636E-13 -.359E-02
   0.109E-06 0.148E-11 -.300E+03   0.147E-13 0.666E-14 0.301E+03   -.358E-17 0.616E-18 -.878E+00   0.223E-13 0.383E-14 0.359E-02
   0.109E-06 0.219E-11 -.300E+03   0.214E-13 0.163E-13 0.301E+03   -.530E-17 -.457E-17 -.878E+00   -.403E-15 -.208E-13 0.359E-02
   0.109E-06 -.107E-11 -.300E+03   0.211E-13 0.190E-13 0.301E+03   0.331E-17 0.881E-17 -.878E+00   0.251E-13 -.936E-14 0.359E-02
   0.109E-06 0.326E-11 -.300E+03   0.214E-13 0.760E-14 0.301E+03   0.349E-17 -.494E-17 -.878E+00   0.167E-14 -.289E-13 0.359E-02
 -----------------------------------------------------------------------------------------------
   -.109E-10 -.309E-11 -.312E-10   -.350E-13 0.715E-14 0.568E-13   -.389E-17 -.504E-17 -.222E-15   -.976E-12 0.397E-12 0.144E-11
 
 
 POSITION                                       TOTAL-FORCE (eV/Angst)
 -----------------------------------------------------------------------------------
      0.00000      0.00000     -0.00000         0.000000     -0.000000      0.000000
      2.34635      2.73575     -0.00000         0.000000     -0.000000      0.000000
      2.34635     -2.73575     -0.00000         0.000000     -0.000000      0.000000
      4.69270     -0.00000     -0.00000         0.000000     -0.000000      0.000000
      2.34635     -0.00000     -0.00000         0.000000     -0.000000      0.000000
      4.69270      2.73575     -0.00000         0.000000     -0.000000      0.000000
      4.69270     -2.73575     -0.00000         0.000000     -0.000000      0.000000
      7.03905     -0.00000     -0.00000         0.000000     -0.000000      0.000000
      2.34635     -1.36787      3.57145         0.000000     -0.000000     -0.084017
      4.69270      1.36787      3.57145        -0.000000     -0.000000     -0.084017
      4.69270     -4.10362      3.57145        -0.000000     -0.000000     -0.084017
      7.03905     -1.36787      3.57145        -0.000000     -0.000000     -0.084017
      2.34635      1.36787      1.82268         0.000000      0.000000      0.084017
      4.69270      4.10362      1.82268         0.000000      0.000000      0.084017
      4.69270     -1.36787      1.82268        -0.000000      0.000000      0.084017
      7.03905      1.36787      1.82268        -0.000000      0.000000      0.084017
 -----------------------------------------------------------------------------------
    total drift:                               -0.000000     -0.000000     -0.000000


--------------------------------------------------------------------------------------------------------



  FREE ENERGIE OF THE ION-ELECTRON SYSTEM (eV)
  ---------------------------------------------------
  free  energy   TOTEN  =       -98.21575347 eV

  energy  without entropy=      -98.19258923  energy(sigma->0) =      -98.20417135
 
 d Force =-0.1470132E-02[-0.314E-02, 0.199E-03]  d Energy = 0.1482557E-02-0.295E-02
 d Force =-0.1120619E+02[-0.113E+02,-0.112E+02]  d Ewald  =-0.1439984E+02 0.319E+01


--------------------------------------------------------------------------------------------------------


    POTLOK:  cpu time      0.3405: real time      0.3499


--------------------------------------------------------------------------------------------------------




--------------------------------------------------------------------------------------------------------


  
 reached required accuracy - stopping structural energy minimisation
     LOOP+:  cpu time    120.9438: real time    121.4921
    4ORBIT:  cpu time      0.0000: real time      0.0000



 total charge

# of ion       s       p       d       tot
------------------------------------------
    1        0.353   6.315   6.127  12.795
    2        0.353   6.315   6.127  12.795
    3        0.353   6.315   6.127  12.795
    4        0.353   6.315   6.127  12.795
    5        0.353   6.315   6.127  12.795
    6        0.353   6.315   6.127  12.795
    7        0.353   6.315   6.127  12.795
    8        0.353   6.315   6.127  12.795
    9        1.497   2.255   0.069   3.821
   10        1.497   2.255   0.069   3.821
   11        1.497   2.255   0.069   3.821
   12        1.497   2.255   0.069   3.821
   13        1.497   2.255   0.069   3.821
   14        1.497   2.255   0.069   3.821
   15        1.497   2.255   0.069   3.821
   16        1.497   2.255   0.069   3.821
--------------------------------------------------
tot         14.800  68.559  49.568 132.927



 magnetization (x)

# of ion       s       p       d       tot
------------------------------------------
    1        0.024   0.015   2.332   2.371
    2       -0.024  -0.015  -2.332  -2.371
    3       -0.024  -0.015  -2.332  -2.371
    4        0.024   0.015   2.332   2.371
    5        0.024   0.015   2.332   2.371
    6       -0.024  -0.015  -2.332  -2.371
    7       -0.024  -0.015  -2.332  -2.371
    8        0.024   0.015   2.332   2.371
    9        0.000   0.000   0.000   0.000
   10        0.000   0.000   0.000   0.000
   11        0.000   0.000   0.000   0.000
   12        0.000   0.000   0.000   0.000
   13        0.000   0.000   0.000   0.000
   14        0.000   0.000   0.000   0.000
   15        0.000   0.000   0.000   0.000
   16        0.000   0.000   0.000   0.000
--------------------------------------------------
tot         -0.000   0.000   0.000   0.000
 

 total amount of memory used by VASP MPI-rank0   167890. kBytes
=======================================================================

   base      :      30000. kBytes
   nonlr-proj:      11920. kBytes
   fftplans  :       2458. kBytes
   grid      :      15239. kBytes
   one-center:        497. kBytes
   wavefun   :     107776. kBytes
 
  
  
 General timing and accounting informations for this job:
 ========================================================
  
                  Total CPU time used (sec):      620.951
                            User time (sec):      619.324
                          System time (sec):        1.628
                         Elapsed time (sec):      624.702
  
                   Maximum memory used (kb):      441180.
                   Average memory used (kb):          N/A
  
                          Minor page faults:       214429
                          Major page faults:            0
                 Voluntary context switches:        22516
