 running   20 mpi-ranks, on    5 nodes
 distrk:  each k-point on   20 cores,    1 groups
 distr:  one band on    1 cores,   20 groups
 vasp.6.4.1 05Apr23 (build Jun 01 2023 13:46:15) complex                        
  
 POSCAR found type information on POSCAR FeSe
 POSCAR found :  2 types and      16 ions
 Reading from existing POTCAR
 scaLAPACK will be used
 -----------------------------------------------------------------------------
|                                                                             |
|           W    W    AA    RRRRR   N    N  II  N    N   GGGG   !!!           |
|           W    W   A  A   R    R  NN   N  II  NN   N  G    G  !!!           |
|           W    W  A    A  R    R  N N  N  II  N N  N  G       !!!           |
|           W WW W  AAAAAA  RRRRR   N  N N  II  N  N N  G  GGG   !            |
|           WW  WW  A    A  R   R   N   NN  II  N   NN  G    G                |
|           W    W  A    A  R    R  N    N  II  N    N   GGGG   !!!           |
|                                                                             |
|     For optimal performance we recommend to set                             |
|       NCORE = 2 up to number-of-cores-per-socket                            |
|     NCORE specifies how many cores store one orbital (NPAR=cpu/NCORE).      |
|     This setting can greatly improve the performance of VASP for DFT.       |
|     The default, NCORE=1 might be grossly inefficient on modern             |
|     multi-core architectures or massively parallel machines. Do your        |
|     own testing! More info at https://www.vasp.at/wiki/index.php/NCORE      |
|     Unfortunately you need to use the default for GW and RPA                |
|     calculations (for HF NCORE is supported but not extensively tested      |
|     yet).                                                                   |
|                                                                             |
 -----------------------------------------------------------------------------

 Reading from existing POTCAR
 LDA part: xc-table for Pade appr. of Perdew
 POSCAR, INCAR and KPOINTS ok, starting setup
 FFT: planning ... GRIDC
 FFT: planning ... GRID_SOFT
 FFT: planning ... GRID
 WAVECAR not read
 WARNING: random wavefunctions but no delay for mixing, default for NELMDL
 entering main loop
       N       E                     dE             d eps       ncg     rms          rms(c)
DAV:   1     0.206293102024E+04    0.20629E+04   -0.88884E+04 33380   0.203E+03
DAV:   2     0.120751855634E+03   -0.19422E+04   -0.18856E+04 32000   0.597E+02
DAV:   3    -0.832091702180E+02   -0.20396E+03   -0.18126E+03 44260   0.195E+02
DAV:   4    -0.969293584074E+02   -0.13720E+02   -0.13342E+02 46480   0.514E+01
DAV:   5    -0.972528427225E+02   -0.32348E+00   -0.32257E+00 45140   0.827E+00    0.259E+01
RMM:   6    -0.109159297361E+03   -0.11906E+02   -0.14046E+02 32026   0.779E+01    0.437E+01
RMM:   7    -0.902001886009E+02    0.18959E+02   -0.35071E+01 32010   0.458E+01    0.848E+00
RMM:   8    -0.905898926120E+02   -0.38970E+00   -0.28888E+00 41256   0.497E+00    0.361E+00
RMM:   9    -0.906345927878E+02   -0.44700E-01   -0.69222E-01 46800   0.253E+00    0.195E+00
RMM:  10    -0.906381969945E+02   -0.36042E-02   -0.16260E-01 45182   0.120E+00    0.835E-01
RMM:  11    -0.906446533449E+02   -0.64564E-02   -0.32254E-02 44260   0.662E-01    0.325E-01
RMM:  12    -0.906470285402E+02   -0.23752E-02   -0.72419E-03 41481   0.269E-01    0.124E-01
RMM:  13    -0.906469572319E+02    0.71308E-04   -0.14574E-03 26415   0.137E-01
   1 F= -.98215698E+02 E0= -.98204049E+02  d E =-.982157E+02  mag=     0.0000
 curvature:   0.00 expect dE= 0.000E+00 dE for cont linesearch  0.000E+00
 trial: gam= 0.00000 g(F)=  0.235E-02 g(S)=  0.256E-02 ort = 0.000E+00 (trialstep = 0.100E+01)
 search vector abs. value=  0.491E-02
 bond charge predicted
       N       E                     dE             d eps       ncg     rms          rms(c)
DAV:   1    -0.906652405779E+02   -0.18212E-01   -0.43518E-01 38100   0.260E+00    0.894E-01
RMM:   2    -0.906529309483E+02    0.12310E-01   -0.21141E-02 34847   0.979E-01    0.420E-01
RMM:   3    -0.906524961086E+02    0.43484E-03   -0.14739E-02 33603   0.650E-01    0.422E-01
RMM:   4    -0.906509558429E+02    0.15403E-02   -0.56192E-03 32156   0.495E-01    0.763E-02
RMM:   5    -0.906510456874E+02   -0.89844E-04   -0.17565E-03 29620   0.152E-01
   2 F= -.98219716E+02 E0= -.98208092E+02  d E =-.401747E-02  mag=     0.0000
 trial-energy change:   -0.004017  1 .order   -0.003811   -0.004910   -0.002712
 step:   2.2337(harm=  2.2337)  dis= 0.00842  next Energy=   -98.221182 (dE=-0.548E-02)
 bond charge predicted
       N       E                     dE             d eps       ncg     rms          rms(c)
DAV:   1    -0.906745644670E+02   -0.23609E-01   -0.65820E-01 35920   0.320E+00    0.111E+00
RMM:   2    -0.906559928405E+02    0.18572E-01   -0.31512E-02 34825   0.121E+00    0.514E-01
RMM:   3    -0.906549420820E+02    0.10508E-02   -0.21205E-02 34282   0.753E-01    0.481E-01
RMM:   4    -0.906530539123E+02    0.18882E-02   -0.78371E-03 32705   0.580E-01    0.958E-02
RMM:   5    -0.906531877497E+02   -0.13384E-03   -0.25634E-03 31860   0.184E-01    0.583E-02
RMM:   6    -0.906531387518E+02    0.48998E-04   -0.41357E-04 20395   0.108E-01
   3 F= -.98221662E+02 E0= -.98210057E+02  d E =-.596425E-02  mag=    -0.0000
 curvature:  -1.12 expect dE=-0.149E-03 dE for cont linesearch -0.717E-04
 trial: gam=-0.08725 g(F)=  0.133E-03 g(S)=  0.851E-07 ort = 0.561E-03 (trialstep = 0.125E+01)
 search vector abs. value=  0.724E-04
 reached required accuracy - stopping structural energy minimisation
