 vasp.6.4.1 05Apr23 (build Jun 01 2023 13:46:15) complex                        
  
 executed on             LinuxIFC date 2023.12.16  20:46:41
 running   20 mpi-ranks, on    5 nodes
 distrk:  each k-point on   20 cores,    1 groups
 distr:  one band on NCORE=   1 cores,   20 groups


--------------------------------------------------------------------------------------------------------


 INCAR:
   ALGO = Fast
   EDIFF = 0.0002
   ENCUT = 550
   IBRION = 2
   ISIF = 4
   ISMEAR = 0
   ISPIN = 2
   IVDW = 13
   LASPH = True
   LMAXMIX = 4
   LORBIT = 11
   LREAL = Auto
   LWAVE = False
   MAGMOM = 1*2.609 2*-2.609 2*2.609 2*-2.609 1*2.609 8*0.0
   NELM = 100
   NSW = 99
   PREC = Accurate
   SIGMA = 0.05

 POTCAR:   PAW_PBE Fe_pv 06Sep2000                
 POTCAR:   PAW_PBE Se 06Sep2000                   
 -----------------------------------------------------------------------------
|                                                                             |
|           W    W    AA    RRRRR   N    N  II  N    N   GGGG   !!!           |
|           W    W   A  A   R    R  NN   N  II  NN   N  G    G  !!!           |
|           W    W  A    A  R    R  N N  N  II  N N  N  G       !!!           |
|           W WW W  AAAAAA  RRRRR   N  N N  II  N  N N  G  GGG   !            |
|           WW  WW  A    A  R   R   N   NN  II  N   NN  G    G                |
|           W    W  A    A  R    R  N    N  II  N    N   GGGG   !!!           |
|                                                                             |
|     For optimal performance we recommend to set                             |
|       NCORE = 2 up to number-of-cores-per-socket                            |
|     NCORE specifies how many cores store one orbital (NPAR=cpu/NCORE).      |
|     This setting can greatly improve the performance of VASP for DFT.       |
|     The default, NCORE=1 might be grossly inefficient on modern             |
|     multi-core architectures or massively parallel machines. Do your        |
|     own testing! More info at https://www.vasp.at/wiki/index.php/NCORE      |
|     Unfortunately you need to use the default for GW and RPA                |
|     calculations (for HF NCORE is supported but not extensively tested      |
|     yet).                                                                   |
|                                                                             |
 -----------------------------------------------------------------------------

 POTCAR:   PAW_PBE Fe_pv 06Sep2000                
   VRHFIN =Fe:  3pd7s1                                                                              
   LEXCH  = PE                                                                                      
   EATOM  =  2456.8974 eV,  180.5769 Ry                                                             
                                                                                                    
   TITEL  = PAW_PBE Fe_pv 06Sep2000                                                                 
   LULTRA =        F    use ultrasoft PP ?                                                          
   IUNSCR =        1    unscreen: 0-lin 1-nonlin 2-no                                               
   RPACOR =    1.750    partial core radius                                                         
   POMASS =   55.847; ZVAL   =   14.000    mass and valenz                                          
   RCORE  =    2.200    outmost cutoff radius                                                       
   RWIGS  =    2.200; RWIGS  =    1.164    wigner-seitz radius (au A)                               
   ENMAX  =  293.238; ENMIN  =  219.929 eV                                                          
   RCLOC  =    1.701    cutoff for local pot                                                        
   LCOR   =        T    correct aug charges                                                         
   LPAW   =        T    paw PP                                                                      
   EAUG   =  578.342                                                                                
   DEXC   =    -.002                                                                                
   RMAX   =    2.693    core radius for proj-oper                                                   
   RAUG   =    1.300    factor for augmentation sphere                                              
   RDEP   =    2.296    radius for radial grids                                                     
   QCUT   =   -4.642; QGAM   =    9.285    optimization parameters                                  
                                                                                                    
   Description                                                                                      
     l     E      TYP  RCUT    TYP  RCUT                                                            
     1   .000     23  2.000                                                                         
     1  -.400     23  2.000                                                                         
     2   .000     23  2.200                                                                         
     2   .000     23  2.200                                                                         
     0   .000     23  2.000                                                                         
     0  2.000     23  2.000                                                                         
     3   .000      7   .000                                                                         
  local pseudopotential read in
  partial core-charges read in
  atomic valenz-charges read in
  non local Contribution for L=           1  read in
    real space projection operators read in
  non local Contribution for L=           1  read in
    real space projection operators read in
  non local Contribution for L=           2  read in
    real space projection operators read in
  non local Contribution for L=           2  read in
    real space projection operators read in
  non local Contribution for L=           0  read in
    real space projection operators read in
  non local Contribution for L=           0  read in
    real space projection operators read in
    PAW grid and wavefunctions read in
 
   number of l-projection  operators is LMAX  =           6
   number of lm-projection operators is LMMAX =          18
 
 POTCAR:   PAW_PBE Se 06Sep2000                   
   VRHFIN =Se: s2p4                                                                                 
   LEXCH  = PE                                                                                      
   EATOM  =   256.9644 eV,   18.8864 Ry                                                             
                                                                                                    
   TITEL  = PAW_PBE Se 06Sep2000                                                                    
   LULTRA =        F    use ultrasoft PP ?                                                          
   IUNSCR =        1    unscreen: 0-lin 1-nonlin 2-no                                               
   RPACOR =    1.900    partial core radius                                                         
   POMASS =   78.960; ZVAL   =    6.000    mass and valenz                                          
   RCORE  =    2.100    outmost cutoff radius                                                       
   RWIGS  =    2.200; RWIGS  =    1.164    wigner-seitz radius (au A)                               
   ENMAX  =  211.534; ENMIN  =  158.651 eV                                                          
   ICORE  =        3    local potential                                                             
   LCOR   =        T    correct aug charges                                                         
   LPAW   =        T    paw PP                                                                      
   EAUG   =  446.842                                                                                
   DEXC   =    -.031                                                                                
   RMAX   =    3.170    core radius for proj-oper                                                   
   RAUG   =    1.300    factor for augmentation sphere                                              
   RDEP   =    2.177    radius for radial grids                                                     
   QCUT   =   -3.943; QGAM   =    7.886    optimization parameters                                  
                                                                                                    
   Description                                                                                      
     l     E      TYP  RCUT    TYP  RCUT                                                            
     0   .000     23  2.100                                                                         
     0   .000     23  2.100                                                                         
     1   .000     23  2.100                                                                         
     1   .000     23  2.100                                                                         
     2   .000     23  2.100                                                                         
     3  -.100      7  2.100                                                                         
  local pseudopotential read in
  partial core-charges read in
  atomic valenz-charges read in
  non local Contribution for L=           0  read in
    real space projection operators read in
  non local Contribution for L=           0  read in
    real space projection operators read in
  non local Contribution for L=           1  read in
    real space projection operators read in
  non local Contribution for L=           1  read in
    real space projection operators read in
  non local Contribution for L=           2  read in
    real space projection operators read in
    PAW grid and wavefunctions read in
 
   number of l-projection  operators is LMAX  =           5
   number of lm-projection operators is LMMAX =          13
 
 Optimization of the real space projectors (new method)

 maximal supplied QI-value         = 17.01
 optimisation between [QCUT,QGAM] = [ 11.91, 23.98] = [ 39.69,161.04] Ry 
 Optimized for a Real-space Cutoff    1.45 Angstroem

   l    n(q)    QCUT    max X(q) W(low)/X(q) W(high)/X(q)  e(spline) 
   1     10    11.905     4.550    0.27E-05    0.11E-05    0.28E-07
   1     10    11.905     5.234    0.10E-04    0.61E-04    0.17E-06
   2      9    11.905     3.960    0.19E-04    0.73E-05    0.50E-07
   2      9    11.905    29.565    0.24E-03    0.51E-04    0.27E-06
   0     10    11.905    23.582    0.17E-04    0.10E-05    0.14E-07
   0     10    11.905    39.747    0.23E-04    0.68E-05    0.74E-07
 Optimization of the real space projectors (new method)

 maximal supplied QI-value         = 17.95
 optimisation between [QCUT,QGAM] = [ 11.85, 23.88] = [ 39.31,159.64] Ry 
 Optimized for a Real-space Cutoff    1.18 Angstroem

   l    n(q)    QCUT    max X(q) W(low)/X(q) W(high)/X(q)  e(spline) 
   0      8    11.849     6.499    0.17E-04    0.94E-05    0.89E-08
   0      8    11.849    52.623    0.21E-03    0.78E-04    0.81E-07
   1      8    11.849     4.229    0.79E-04    0.83E-04    0.23E-07
   1      8    11.849    29.991    0.12E-03    0.43E-03    0.14E-06
   2      7    11.849     3.719    0.22E-03    0.64E-04    0.38E-07
 PAW_PBE Fe_pv 06Sep2000                :
 energy of atom  1       EATOM=-2456.8974
 kinetic energy error for atom=    0.0060 (will be added to EATOM!!)
 PAW_PBE Se 06Sep2000                   :
 energy of atom  2       EATOM= -256.9644
 kinetic energy error for atom=    0.0007 (will be added to EATOM!!)
 
 
 POSCAR: Fe8 Se8
  positions in direct lattice
  velocities in cartesian coordinates
 exchange correlation table for  LEXCH =        8
   RHO(1)=    0.500       N(1)  =     2000
   RHO(2)=  100.500       N(2)  =     4000
 


--------------------------------------------------------------------------------------------------------


 ion  position               nearest neighbor table
   1  0.000  0.000  0.000-  11 2.29  14 2.29   5 2.42   8 2.42
   2  0.000  0.500  0.000-  12 2.29  13 2.29   6 2.42   7 2.42
   3  0.500  0.000  0.000-   9 2.29  16 2.29   6 2.42   7 2.42
   4  0.500  0.500  0.000-  10 2.29  15 2.29   5 2.42   8 2.42
   5  0.250  0.250  0.000-   9 2.29  13 2.29   1 2.42   4 2.42
   6  0.250  0.750  0.000-  10 2.29  14 2.29   2 2.42   3 2.42
   7  0.750  0.250  0.000-  11 2.29  15 2.29   2 2.42   3 2.42
   8  0.750  0.750  0.000-  12 2.29  16 2.29   1 2.42   4 2.42
   9  0.375  0.125  0.695-   3 2.29   5 2.29
  10  0.375  0.625  0.695-   4 2.29   6 2.29
  11  0.875  0.125  0.695-   1 2.29   7 2.29
  12  0.875  0.625  0.695-   2 2.29   8 2.29
  13  0.125  0.375  0.305-   2 2.29   5 2.29
  14  0.125  0.875  0.305-   1 2.29   6 2.29
  15  0.625  0.375  0.305-   4 2.29   7 2.29
  16  0.625  0.875  0.305-   3 2.29   8 2.29
 
  LATTYP: Found a base centered orthorhombic cell.
 ALAT       =     9.6605239607
 B/A-ratio  =     1.1995511179
 C/A-ratio  =     0.6028743267
  
  Lattice vectors:
  
 A1 = (   4.8302619803,  -5.7941461582,   0.0000000000)
 A2 = (   4.8302619803,   5.7941461582,   0.0000000000)
 A3 = (   0.0000000000,   0.0000000000,   5.8240818782)


Analysis of symmetry for initial positions (statically):
=====================================================================
 Subroutine PRICEL returns following result:
 
  LATTYP: Found a base centered orthorhombic cell.
 ALAT       =     4.8302619803
 B/A-ratio  =     1.1995511179
 C/A-ratio  =     1.2057486534
  
  Lattice vectors:
  
 A1 = (   2.4151309902,  -2.8970730791,   0.0000000000)
 A2 = (   2.4151309902,   2.8970730791,   0.0000000000)
 A3 = (   0.0000000000,   0.0000000000,   5.8240818782)
 
   4 primitive cells build up your supercell.
 

 Routine SETGRP: Setting up the symmetry group for a 
 base centered orthorhombic supercell.


 Subroutine GETGRP returns: Found  8 space group operations
 (whereof  4 operations were pure point group operations)
 out of a pool of  8 trial point group operations.


The static configuration has the point symmetry C_2h.
 The point group associated with its full space group is D_2h.


Analysis of symmetry for dynamics (positions and initial velocities):
=====================================================================
 Subroutine PRICEL returns following result:
 
  LATTYP: Found a base centered orthorhombic cell.
 ALAT       =     4.8302619803
 B/A-ratio  =     1.1995511179
 C/A-ratio  =     1.2057486534
  
  Lattice vectors:
  
 A1 = (   2.4151309902,  -2.8970730791,   0.0000000000)
 A2 = (   2.4151309902,   2.8970730791,   0.0000000000)
 A3 = (   0.0000000000,   0.0000000000,   5.8240818782)
 
   4 primitive cells build up your supercell.
 

 Routine SETGRP: Setting up the symmetry group for a 
 base centered orthorhombic supercell.


 Subroutine GETGRP returns: Found  8 space group operations
 (whereof  4 operations were pure point group operations)
 out of a pool of  8 trial point group operations.


The dynamic configuration has the point symmetry C_2h.
 The point group associated with its full space group is D_2h.


Analysis of structural, dynamic, and magnetic symmetry:
=====================================================================
 Subroutine PRICEL returns following result:
 
  LATTYP: Found a base centered orthorhombic cell.
 ALAT       =     4.8302619803
 B/A-ratio  =     1.1995511179
 C/A-ratio  =     1.2057486534
  
  Lattice vectors:
  
 A1 = (   2.4151309902,  -2.8970730791,   0.0000000000)
 A2 = (   2.4151309902,   2.8970730791,   0.0000000000)
 A3 = (   0.0000000000,   0.0000000000,   5.8240818782)
 
   4 primitive cells build up your supercell.
 

 Routine SETGRP: Setting up the symmetry group for a 
 base centered orthorhombic supercell.


 Subroutine GETGRP returns: Found  8 space group operations
 (whereof  4 operations were pure point group operations)
 out of a pool of  8 trial point group operations.


The overall configuration has the point symmetry C_2h.
 The point group associated with its full space group is D_2h.


 Subroutine INISYM returns: Found  8 space group operations
 (whereof  4 operations are pure point group operations),
 and found     4 'primitive' translations


----------------------------------------------------------------------------------------

                                     Primitive cell                                     

  volume of cell :      81.5000

  direct lattice vectors                    reciprocal lattice vectors
     2.415130990 -2.897073079  0.000000000     0.207028108 -0.172587983  0.000000000
     2.415130990  2.897073079  0.000000000     0.207028108  0.172587983  0.000000000
     0.000000000  0.000000000  5.824081878     0.000000000  0.000000000  0.171700883

  length of vectors
     3.771722435  3.771722435  5.824081878     0.269531537  0.269531537  0.171700883

  position of ions in fractional coordinates (direct lattice)
     0.000000000  0.000000000  0.000000000
     0.500000000  0.500000000  0.000000000
     0.750000000  0.250000000  0.694879840
     0.250000000  0.750000000  0.305120160

  ion indices of the primitive-cell ions
   primitive index   ion index
                 1           1
                 2           5
                 3          11
                 4          14

----------------------------------------------------------------------------------------

 
 
 KPOINTS: KPOINTS                                 

Automatic generation of k-mesh.
 Grid dimensions read from file:
 generate k-points for:    7    7    9

 Generating k-lattice:

  Cartesian coordinates                     Fractional coordinates (reciprocal lattice)
     0.014787722 -0.012327713  0.000000000     0.142857143  0.000000000  0.000000000
     0.014787722  0.012327713  0.000000000     0.000000000  0.142857143  0.000000000
     0.000000000  0.000000000  0.019077876     0.000000000  0.000000000  0.111111111

  Length of vectors
     0.019252253  0.019252253  0.019077876

  Shift w.r.t. Gamma in fractional coordinates (k-lattice)
     0.000000000  0.000000000  0.000000000

 
 Subroutine IBZKPT returns following result:
 ===========================================
 
 Found     80 irreducible k-points:
 
 Following reciprocal coordinates:
            Coordinates               Weight
  0.000000  0.000000  0.000000      1.000000
  0.142857  0.000000  0.000000      4.000000
  0.285714  0.000000  0.000000      4.000000
  0.428571 -0.000000  0.000000      4.000000
  0.142857  0.142857  0.000000      2.000000
  0.285714  0.142857  0.000000      4.000000
  0.428571  0.142857  0.000000      4.000000
 -0.428571  0.142857  0.000000      4.000000
 -0.285714  0.142857  0.000000      4.000000
 -0.142857  0.142857  0.000000      2.000000
  0.285714  0.285714  0.000000      2.000000
  0.428571  0.285714  0.000000      4.000000
 -0.428571  0.285714  0.000000      4.000000
 -0.285714  0.285714  0.000000      2.000000
  0.428571  0.428571  0.000000      2.000000
 -0.428571  0.428571  0.000000      2.000000
  0.000000  0.000000  0.111111      2.000000
  0.142857  0.000000  0.111111      8.000000
  0.285714  0.000000  0.111111      8.000000
  0.428571 -0.000000  0.111111      8.000000
  0.142857  0.142857  0.111111      4.000000
  0.285714  0.142857  0.111111      8.000000
  0.428571  0.142857  0.111111      8.000000
 -0.428571  0.142857  0.111111      8.000000
 -0.285714  0.142857  0.111111      8.000000
 -0.142857  0.142857  0.111111      4.000000
  0.285714  0.285714  0.111111      4.000000
  0.428571  0.285714  0.111111      8.000000
 -0.428571  0.285714  0.111111      8.000000
 -0.285714  0.285714  0.111111      4.000000
  0.428571  0.428571  0.111111      4.000000
 -0.428571  0.428571  0.111111      4.000000
  0.000000  0.000000  0.222222      2.000000
  0.142857  0.000000  0.222222      8.000000
  0.285714  0.000000  0.222222      8.000000
  0.428571 -0.000000  0.222222      8.000000
  0.142857  0.142857  0.222222      4.000000
  0.285714  0.142857  0.222222      8.000000
  0.428571  0.142857  0.222222      8.000000
 -0.428571  0.142857  0.222222      8.000000
 -0.285714  0.142857  0.222222      8.000000
 -0.142857  0.142857  0.222222      4.000000
  0.285714  0.285714  0.222222      4.000000
  0.428571  0.285714  0.222222      8.000000
 -0.428571  0.285714  0.222222      8.000000
 -0.285714  0.285714  0.222222      4.000000
  0.428571  0.428571  0.222222      4.000000
 -0.428571  0.428571  0.222222      4.000000
  0.000000  0.000000  0.333333      2.000000
  0.142857  0.000000  0.333333      8.000000
  0.285714  0.000000  0.333333      8.000000
  0.428571 -0.000000  0.333333      8.000000
  0.142857  0.142857  0.333333      4.000000
  0.285714  0.142857  0.333333      8.000000
  0.428571  0.142857  0.333333      8.000000
 -0.428571  0.142857  0.333333      8.000000
 -0.285714  0.142857  0.333333      8.000000
 -0.142857  0.142857  0.333333      4.000000
  0.285714  0.285714  0.333333      4.000000
  0.428571  0.285714  0.333333      8.000000
 -0.428571  0.285714  0.333333      8.000000
 -0.285714  0.285714  0.333333      4.000000
  0.428571  0.428571  0.333333      4.000000
 -0.428571  0.428571  0.333333      4.000000
  0.000000  0.000000  0.444444      2.000000
  0.142857  0.000000  0.444444      8.000000
  0.285714  0.000000  0.444444      8.000000
  0.428571 -0.000000  0.444444      8.000000
  0.142857  0.142857  0.444444      4.000000
  0.285714  0.142857  0.444444      8.000000
  0.428571  0.142857  0.444444      8.000000
 -0.428571  0.142857  0.444444      8.000000
 -0.285714  0.142857  0.444444      8.000000
 -0.142857  0.142857  0.444444      4.000000
  0.285714  0.285714  0.444444      4.000000
  0.428571  0.285714  0.444444      8.000000
 -0.428571  0.285714  0.444444      8.000000
 -0.285714  0.285714  0.444444      4.000000
  0.428571  0.428571  0.444444      4.000000
 -0.428571  0.428571  0.444444      4.000000
 
 Following cartesian coordinates:
            Coordinates               Weight
  0.000000  0.000000  0.000000      1.000000
  0.014788 -0.012328  0.000000      4.000000
  0.029575 -0.024655  0.000000      4.000000
  0.044363 -0.036983  0.000000      4.000000
  0.029575 -0.000000  0.000000      2.000000
  0.044363 -0.012328  0.000000      4.000000
  0.059151 -0.024655  0.000000      4.000000
 -0.029575  0.049311  0.000000      4.000000
 -0.014788  0.036983  0.000000      4.000000
 -0.000000  0.024655  0.000000      2.000000
  0.059151 -0.000000  0.000000      2.000000
  0.073939 -0.012328  0.000000      4.000000
 -0.014788  0.061639  0.000000      4.000000
 -0.000000  0.049311  0.000000      2.000000
  0.088726  0.000000  0.000000      2.000000
  0.000000  0.073966  0.000000      2.000000
  0.000000  0.000000  0.019078      2.000000
  0.014788 -0.012328  0.019078      8.000000
  0.029575 -0.024655  0.019078      8.000000
  0.044363 -0.036983  0.019078      8.000000
  0.029575 -0.000000  0.019078      4.000000
  0.044363 -0.012328  0.019078      8.000000
  0.059151 -0.024655  0.019078      8.000000
 -0.029575  0.049311  0.019078      8.000000
 -0.014788  0.036983  0.019078      8.000000
 -0.000000  0.024655  0.019078      4.000000
  0.059151 -0.000000  0.019078      4.000000
  0.073939 -0.012328  0.019078      8.000000
 -0.014788  0.061639  0.019078      8.000000
 -0.000000  0.049311  0.019078      4.000000
  0.088726  0.000000  0.019078      4.000000
  0.000000  0.073966  0.019078      4.000000
  0.000000  0.000000  0.038156      2.000000
  0.014788 -0.012328  0.038156      8.000000
  0.029575 -0.024655  0.038156      8.000000
  0.044363 -0.036983  0.038156      8.000000
  0.029575 -0.000000  0.038156      4.000000
  0.044363 -0.012328  0.038156      8.000000
  0.059151 -0.024655  0.038156      8.000000
 -0.029575  0.049311  0.038156      8.000000
 -0.014788  0.036983  0.038156      8.000000
 -0.000000  0.024655  0.038156      4.000000
  0.059151 -0.000000  0.038156      4.000000
  0.073939 -0.012328  0.038156      8.000000
 -0.014788  0.061639  0.038156      8.000000
 -0.000000  0.049311  0.038156      4.000000
  0.088726  0.000000  0.038156      4.000000
  0.000000  0.073966  0.038156      4.000000
  0.000000  0.000000  0.057234      2.000000
  0.014788 -0.012328  0.057234      8.000000
  0.029575 -0.024655  0.057234      8.000000
  0.044363 -0.036983  0.057234      8.000000
  0.029575 -0.000000  0.057234      4.000000
  0.044363 -0.012328  0.057234      8.000000
  0.059151 -0.024655  0.057234      8.000000
 -0.029575  0.049311  0.057234      8.000000
 -0.014788  0.036983  0.057234      8.000000
 -0.000000  0.024655  0.057234      4.000000
  0.059151 -0.000000  0.057234      4.000000
  0.073939 -0.012328  0.057234      8.000000
 -0.014788  0.061639  0.057234      8.000000
 -0.000000  0.049311  0.057234      4.000000
  0.088726  0.000000  0.057234      4.000000
  0.000000  0.073966  0.057234      4.000000
  0.000000  0.000000  0.076312      2.000000
  0.014788 -0.012328  0.076312      8.000000
  0.029575 -0.024655  0.076312      8.000000
  0.044363 -0.036983  0.076312      8.000000
  0.029575 -0.000000  0.076312      4.000000
  0.044363 -0.012328  0.076312      8.000000
  0.059151 -0.024655  0.076312      8.000000
 -0.029575  0.049311  0.076312      8.000000
 -0.014788  0.036983  0.076312      8.000000
 -0.000000  0.024655  0.076312      4.000000
  0.059151 -0.000000  0.076312      4.000000
  0.073939 -0.012328  0.076312      8.000000
 -0.014788  0.061639  0.076312      8.000000
 -0.000000  0.049311  0.076312      4.000000
  0.088726  0.000000  0.076312      4.000000
  0.000000  0.073966  0.076312      4.000000
 


--------------------------------------------------------------------------------------------------------




 Dimension of arrays:
   k-points           NKPTS =     80   k-points in BZ     NKDIM =     80   number of bands    NBANDS=    100
   number of dos      NEDOS =    301   number of ions     NIONS =     16
   non local maximal  LDIM  =      6   non local SUM 2l+1 LMDIM =     18
   total plane-waves  NPLWV = 172800
   max r-space proj   IRMAX =   6790   max aug-charges    IRDMAX=  23313
   dimension x,y,z NGX =    60 NGY =   60 NGZ =   48
   dimension x,y,z NGXF=   120 NGYF=  120 NGZF=   96
   support grid    NGXF=   120 NGYF=  120 NGZF=   96
   ions per type =               8   8
   NGX,Y,Z   is equivalent  to a cutoff of  13.22, 13.22, 13.70 a.u.
   NGXF,Y,Z  is equivalent  to a cutoff of  26.45, 26.45, 27.40 a.u.

 SYSTEM =  unknown system                          
 POSCAR =  Fe8 Se8                                 

 Startparameter for this run:
   NWRITE =      2    write-flag & timer
   PREC   = accura    normal or accurate (medium, high low for compatibility)
   ISTART =      0    job   : 0-new  1-cont  2-samecut
   ICHARG =      2    charge: 1-file 2-atom 10-const
   ISPIN  =      2    spin polarized calculation?
   LNONCOLLINEAR =      F non collinear calculations
   LSORBIT =      F    spin-orbit coupling
   INIWAV =      1    electr: 0-lowe 1-rand  2-diag
   LASPH  =      T    aspherical Exc in radial PAW
 Electronic Relaxation 1
   ENCUT  =  550.0 eV  40.42 Ry    6.36 a.u.  14.42 14.42 11.14*2*pi/ulx,y,z
   ENINI  =  550.0     initial cutoff
   ENAUG  =  578.3 eV  augmentation charge cutoff
   NELM   =    100;   NELMIN=  2; NELMDL=  0     # of ELM steps 
   EDIFF  = 0.2E-03   stopping-criterion for ELM
   LREAL  =      T    real-space projection
   NLSPLINE    = F    spline interpolate recip. space projectors
   LCOMPAT=      F    compatible to vasp.4.4
   GGA_COMPAT  = T    GGA compatible to vasp.4.4-vasp.4.6
   LMAXPAW     = -100 max onsite density
   LMAXMIX     =    4 max onsite mixed and CHGCAR
   VOSKOWN=      0    Vosko Wilk Nusair interpolation
   ROPT   =   -0.00025  -0.00025
 Ionic relaxation
   EDIFFG = 0.2E-02   stopping-criterion for IOM
   NSW    =     99    number of steps for IOM
   NBLOCK =      1;   KBLOCK =     99    inner block; outer block 
   IBRION =      2    ionic relax: 0-MD 1-quasi-New 2-CG
   NFREE  =      1    steps in history (QN), initial steepest desc. (CG)
   ISIF   =      4    stress and relaxation
   IWAVPR =     11    prediction:  0-non 1-charg 2-wave 3-comb
   ISYM   =      2    0-nonsym 1-usesym 2-fastsym
   LCORR  =      T    Harris-Foulkes like correction to forces

   POTIM  = 0.5000    time-step for ionic-motion
   TEIN   =    0.0    initial temperature
   TEBEG  =    0.0;   TEEND  =   0.0 temperature during run
   SMASS  =  -3.00    Nose mass-parameter (am)
   estimated Nose-frequenzy (Omega)   =  0.10E-29 period in steps = 0.13E+47 mass=  -0.130E-26a.u.
   SCALEE = 1.0000    scale energy and forces
   NPACO  =    256;   APACO  = 10.0  distance and # of slots for P.C.
   PSTRESS=    0.0 pullay stress

  Mass of Ions in am
   POMASS =  55.85 78.96
  Ionic Valenz
   ZVAL   =  14.00  6.00
  Atomic Wigner-Seitz radii
   RWIGS  =  -1.00 -1.00
  virtual crystal weights 
   VCA    =   1.00  1.00
   NELECT =     160.0000    total number of electrons
   NUPDOWN=      -1.0000    fix difference up-down

 DOS related values:
   EMIN   =  10.00;   EMAX   =-10.00  energy-range for DOS
   EFERMI =   0.00;   METHOD = LEGACY      
   ISMEAR =     0;   SIGMA  =   0.05  broadening in eV -4-tet -1-fermi 0-gaus

 Electronic relaxation 2 (details)
   IALGO  =     68    algorithm
   LDIAG  =      T    sub-space diagonalisation (order eigenvalues)
   LSUBROT=      F    optimize rotation matrix (better conditioning)
   TURBO    =      0    0=normal 1=particle mesh
   IRESTART =      0    0=no restart 2=restart with 2 vectors
   NREBOOT  =      0    no. of reboots
   NMIN     =      0    reboot dimension
   EREF     =   0.00    reference energy to select bands
   IMIX   =      4    mixing-type and parameters
     AMIX     =   0.40;   BMIX     =  1.00
     AMIX_MAG =   1.60;   BMIX_MAG =  1.00
     AMIN     =   0.10
     WC   =   100.;   INIMIX=   1;  MIXPRE=   1;  MAXMIX= -45

 Intra band minimization:
   WEIMIN = 0.0010     energy-eigenvalue tresh-hold
   EBREAK =  0.50E-06  absolut break condition
   DEPER  =   0.30     relativ break condition  

   TIME   =   0.40     timestep for ELM

  volume/ion in A,a.u.               =      20.37       137.50
  Fermi-wavevector in a.u.,A,eV,Ry     =   1.291345  2.440288 22.688694  1.667572
  Thomas-Fermi vector in A             =   2.423121
 
 Write flags
   LWAVE        =      F    write WAVECAR
   LDOWNSAMPLE  =      F    k-point downsampling of WAVECAR
   LCHARG       =      T    write CHGCAR
   LVTOT        =      F    write LOCPOT, total local potential
   LVHAR        =      F    write LOCPOT, Hartree potential only
   LELF         =      F    write electronic localiz. function (ELF)
   LORBIT       =     11    0 simple, 1 ext, 2 COOP (PROOUT), +10 PAW based schemes


 Dipole corrections
   LMONO  =      F    monopole corrections only (constant potential shift)
   LDIPOL =      F    correct potential (dipole corrections)
   IDIPOL =      0    1-x, 2-y, 3-z, 4-all directions 
   EPSILON=  1.0000000 bulk dielectric constant

 Exchange correlation treatment:
   GGA     =    --    GGA type
   LEXCH   =     8    internal setting for exchange type
   LIBXC   =     F    Libxc                    
   VOSKOWN =     0    Vosko Wilk Nusair interpolation
   LHFCALC =     F    Hartree Fock is set to
   LHFONE  =     F    Hartree Fock one center treatment
   AEXX    =    0.0000 exact exchange contribution

 Linear response parameters
   LEPSILON=     F    determine dielectric tensor
   LRPA    =     F    only Hartree local field effects (RPA)
   LNABLA  =     F    use nabla operator in PAW spheres
   LVEL    =     F    velocity operator in full k-point grid
   CSHIFT  =0.1000    complex shift for real part using Kramers Kronig
   OMEGAMAX=  -1.0    maximum frequency
   DEG_THRESHOLD= 0.2000000E-02 threshold for treating states as degnerate
   RTIME   =   -0.100 relaxation time in fs
  (WPLASMAI=    0.000 imaginary part of plasma frequency in eV, 0.658/RTIME)
   DFIELD  = 0.0000000 0.0000000 0.0000000 field for delta impulse in time
 
  Optional k-point grid parameters
   LKPOINTS_OPT  =     F    use optional k-point grid
   KPOINTS_OPT_MODE=     1    mode for optional k-point grid
 
 Orbital magnetization related:
   ORBITALMAG=     F  switch on orbital magnetization
   LCHIMAG   =     F  perturbation theory with respect to B field
   DQ        =  0.001000  dq finite difference perturbation B field
   LLRAUG    =     F  two centre corrections for induced B field
   LBONE     =     F  B-component reconstruction in AE one-centre
   LVGVCALC  =     T  calculate vGv susceptibility
   LVGVAPPL  =     F  apply vGv susceptibility instead of pGv for G=0

 Random number generation:
   RANDOM_GENERATOR = DEFAULT
   PCG_SEED         = not used


--------------------------------------------------------------------------------------------------------


 conjugate gradient relaxation of ions
 charge density and potential will be updated during run
 spin polarized calculation
 RMM-DIIS sequential band-by-band and
  variant of blocked Davidson during initial phase
 perform sub-space diagonalisation
    before iterative eigenvector-optimisation
 modified Broyden-mixing scheme, WC =      100.0
 initial mixing is a Kerker type mixing with AMIX =  0.4000 and BMIX =      1.0000
 Hartree-type preconditioning will be used
 using additional bands           20
 real space projection scheme for non local part
 use partial core corrections
 calculate Harris-corrections to forces 
   (improved forces if not selfconsistent)
 use gradient corrections 
 use of overlap-Matrix (Vanderbilt PP)
 Gauss-broadening in eV      SIGMA  =   0.05


--------------------------------------------------------------------------------------------------------


  energy-cutoff  :      550.00
  volume of cell :      326.00
      direct lattice vectors                 reciprocal lattice vectors
     4.830261980 -5.794146158  0.000000000     0.103514054 -0.086293992  0.000000000
     4.830261980  5.794146158  0.000000000     0.103514054  0.086293992  0.000000000
     0.000000000  0.000000000  5.824081878     0.000000000  0.000000000  0.171700883

  length of vectors
     7.543444870  7.543444870  5.824081878     0.134765769  0.134765769  0.171700883


 
 k-points in units of 2pi/SCALE and weight: KPOINTS                                 
   0.00000000  0.00000000  0.00000000       0.002
   0.01478772 -0.01232771  0.00000000       0.009
   0.02957544 -0.02465543  0.00000000       0.009
   0.04436317 -0.03698314  0.00000000       0.009
   0.02957544  0.00000000  0.00000000       0.005
   0.04436317 -0.01232771  0.00000000       0.009
   0.05915089 -0.02465543  0.00000000       0.009
  -0.02957544  0.04931085  0.00000000       0.009
  -0.01478772  0.03698314  0.00000000       0.009
   0.00000000  0.02465543  0.00000000       0.005
   0.05915089 -0.00000000  0.00000000       0.005
   0.07393861 -0.01232771  0.00000000       0.009
  -0.01478772  0.06163857  0.00000000       0.009
   0.00000000  0.04931085  0.00000000       0.005
   0.08872633 -0.00000000  0.00000000       0.005
   0.00000000  0.07396628  0.00000000       0.005
   0.00000000  0.00000000  0.01907788       0.005
   0.01478772 -0.01232771  0.01907788       0.018
   0.02957544 -0.02465543  0.01907788       0.018
   0.04436317 -0.03698314  0.01907788       0.018
   0.02957544  0.00000000  0.01907788       0.009
   0.04436317 -0.01232771  0.01907788       0.018
   0.05915089 -0.02465543  0.01907788       0.018
  -0.02957544  0.04931085  0.01907788       0.018
  -0.01478772  0.03698314  0.01907788       0.018
   0.00000000  0.02465543  0.01907788       0.009
   0.05915089 -0.00000000  0.01907788       0.009
   0.07393861 -0.01232771  0.01907788       0.018
  -0.01478772  0.06163857  0.01907788       0.018
   0.00000000  0.04931085  0.01907788       0.009
   0.08872633 -0.00000000  0.01907788       0.009
   0.00000000  0.07396628  0.01907788       0.009
   0.00000000  0.00000000  0.03815575       0.005
   0.01478772 -0.01232771  0.03815575       0.018
   0.02957544 -0.02465543  0.03815575       0.018
   0.04436317 -0.03698314  0.03815575       0.018
   0.02957544  0.00000000  0.03815575       0.009
   0.04436317 -0.01232771  0.03815575       0.018
   0.05915089 -0.02465543  0.03815575       0.018
  -0.02957544  0.04931085  0.03815575       0.018
  -0.01478772  0.03698314  0.03815575       0.018
   0.00000000  0.02465543  0.03815575       0.009
   0.05915089 -0.00000000  0.03815575       0.009
   0.07393861 -0.01232771  0.03815575       0.018
  -0.01478772  0.06163857  0.03815575       0.018
   0.00000000  0.04931085  0.03815575       0.009
   0.08872633 -0.00000000  0.03815575       0.009
   0.00000000  0.07396628  0.03815575       0.009
   0.00000000  0.00000000  0.05723363       0.005
   0.01478772 -0.01232771  0.05723363       0.018
   0.02957544 -0.02465543  0.05723363       0.018
   0.04436317 -0.03698314  0.05723363       0.018
   0.02957544  0.00000000  0.05723363       0.009
   0.04436317 -0.01232771  0.05723363       0.018
   0.05915089 -0.02465543  0.05723363       0.018
  -0.02957544  0.04931085  0.05723363       0.018
  -0.01478772  0.03698314  0.05723363       0.018
   0.00000000  0.02465543  0.05723363       0.009
   0.05915089 -0.00000000  0.05723363       0.009
   0.07393861 -0.01232771  0.05723363       0.018
  -0.01478772  0.06163857  0.05723363       0.018
   0.00000000  0.04931085  0.05723363       0.009
   0.08872633 -0.00000000  0.05723363       0.009
   0.00000000  0.07396628  0.05723363       0.009
   0.00000000  0.00000000  0.07631150       0.005
   0.01478772 -0.01232771  0.07631150       0.018
   0.02957544 -0.02465543  0.07631150       0.018
   0.04436317 -0.03698314  0.07631150       0.018
   0.02957544  0.00000000  0.07631150       0.009
   0.04436317 -0.01232771  0.07631150       0.018
   0.05915089 -0.02465543  0.07631150       0.018
  -0.02957544  0.04931085  0.07631150       0.018
  -0.01478772  0.03698314  0.07631150       0.018
   0.00000000  0.02465543  0.07631150       0.009
   0.05915089 -0.00000000  0.07631150       0.009
   0.07393861 -0.01232771  0.07631150       0.018
  -0.01478772  0.06163857  0.07631150       0.018
   0.00000000  0.04931085  0.07631150       0.009
   0.08872633 -0.00000000  0.07631150       0.009
   0.00000000  0.07396628  0.07631150       0.009
 
 k-points in reciprocal lattice and weights: KPOINTS                                 
   0.00000000  0.00000000  0.00000000       0.002
   0.14285714  0.00000000  0.00000000       0.009
   0.28571429  0.00000000  0.00000000       0.009
   0.42857143 -0.00000000  0.00000000       0.009
   0.14285714  0.14285714  0.00000000       0.005
   0.28571429  0.14285714  0.00000000       0.009
   0.42857143  0.14285714  0.00000000       0.009
  -0.42857143  0.14285714  0.00000000       0.009
  -0.28571429  0.14285714  0.00000000       0.009
  -0.14285714  0.14285714  0.00000000       0.005
   0.28571429  0.28571429  0.00000000       0.005
   0.42857143  0.28571429  0.00000000       0.009
  -0.42857143  0.28571429  0.00000000       0.009
  -0.28571429  0.28571429  0.00000000       0.005
   0.42857143  0.42857143  0.00000000       0.005
  -0.42857143  0.42857143  0.00000000       0.005
   0.00000000  0.00000000  0.11111111       0.005
   0.14285714  0.00000000  0.11111111       0.018
   0.28571429  0.00000000  0.11111111       0.018
   0.42857143 -0.00000000  0.11111111       0.018
   0.14285714  0.14285714  0.11111111       0.009
   0.28571429  0.14285714  0.11111111       0.018
   0.42857143  0.14285714  0.11111111       0.018
  -0.42857143  0.14285714  0.11111111       0.018
  -0.28571429  0.14285714  0.11111111       0.018
  -0.14285714  0.14285714  0.11111111       0.009
   0.28571429  0.28571429  0.11111111       0.009
   0.42857143  0.28571429  0.11111111       0.018
  -0.42857143  0.28571429  0.11111111       0.018
  -0.28571429  0.28571429  0.11111111       0.009
   0.42857143  0.42857143  0.11111111       0.009
  -0.42857143  0.42857143  0.11111111       0.009
   0.00000000  0.00000000  0.22222222       0.005
   0.14285714  0.00000000  0.22222222       0.018
   0.28571429  0.00000000  0.22222222       0.018
   0.42857143 -0.00000000  0.22222222       0.018
   0.14285714  0.14285714  0.22222222       0.009
   0.28571429  0.14285714  0.22222222       0.018
   0.42857143  0.14285714  0.22222222       0.018
  -0.42857143  0.14285714  0.22222222       0.018
  -0.28571429  0.14285714  0.22222222       0.018
  -0.14285714  0.14285714  0.22222222       0.009
   0.28571429  0.28571429  0.22222222       0.009
   0.42857143  0.28571429  0.22222222       0.018
  -0.42857143  0.28571429  0.22222222       0.018
  -0.28571429  0.28571429  0.22222222       0.009
   0.42857143  0.42857143  0.22222222       0.009
  -0.42857143  0.42857143  0.22222222       0.009
   0.00000000  0.00000000  0.33333333       0.005
   0.14285714  0.00000000  0.33333333       0.018
   0.28571429  0.00000000  0.33333333       0.018
   0.42857143 -0.00000000  0.33333333       0.018
   0.14285714  0.14285714  0.33333333       0.009
   0.28571429  0.14285714  0.33333333       0.018
   0.42857143  0.14285714  0.33333333       0.018
  -0.42857143  0.14285714  0.33333333       0.018
  -0.28571429  0.14285714  0.33333333       0.018
  -0.14285714  0.14285714  0.33333333       0.009
   0.28571429  0.28571429  0.33333333       0.009
   0.42857143  0.28571429  0.33333333       0.018
  -0.42857143  0.28571429  0.33333333       0.018
  -0.28571429  0.28571429  0.33333333       0.009
   0.42857143  0.42857143  0.33333333       0.009
  -0.42857143  0.42857143  0.33333333       0.009
   0.00000000  0.00000000  0.44444444       0.005
   0.14285714  0.00000000  0.44444444       0.018
   0.28571429  0.00000000  0.44444444       0.018
   0.42857143 -0.00000000  0.44444444       0.018
   0.14285714  0.14285714  0.44444444       0.009
   0.28571429  0.14285714  0.44444444       0.018
   0.42857143  0.14285714  0.44444444       0.018
  -0.42857143  0.14285714  0.44444444       0.018
  -0.28571429  0.14285714  0.44444444       0.018
  -0.14285714  0.14285714  0.44444444       0.009
   0.28571429  0.28571429  0.44444444       0.009
   0.42857143  0.28571429  0.44444444       0.018
  -0.42857143  0.28571429  0.44444444       0.018
  -0.28571429  0.28571429  0.44444444       0.009
   0.42857143  0.42857143  0.44444444       0.009
  -0.42857143  0.42857143  0.44444444       0.009
 
 position of ions in fractional coordinates (direct lattice) 
   0.00000000  0.00000000  0.00000000
   0.00000000  0.50000000  0.00000000
   0.50000000  0.00000000  0.00000000
   0.50000000  0.50000000  0.00000000
   0.25000000  0.25000000  0.00000000
   0.25000000  0.75000000  0.00000000
   0.75000000  0.25000000  0.00000000
   0.75000000  0.75000000  0.00000000
   0.37500000  0.12500000  0.69487984
   0.37500000  0.62500000  0.69487984
   0.87500000  0.12500000  0.69487984
   0.87500000  0.62500000  0.69487984
   0.12500000  0.37500000  0.30512016
   0.12500000  0.87500000  0.30512016
   0.62500000  0.37500000  0.30512016
   0.62500000  0.87500000  0.30512016
 
 position of ions in cartesian coordinates  (Angst):
   0.00000000  0.00000000  0.00000000
   2.41513099  2.89707308  0.00000000
   2.41513099 -2.89707308  0.00000000
   4.83026198  0.00000000  0.00000000
   2.41513099  0.00000000  0.00000000
   4.83026198  2.89707308  0.00000000
   4.83026198 -2.89707308  0.00000000
   7.24539297  0.00000000  0.00000000
   2.41513099 -1.44853654  4.04703709
   4.83026198  1.44853654  4.04703709
   4.83026198 -4.34560962  4.04703709
   7.24539297 -1.44853654  4.04703709
   2.41513099  1.44853654  1.77704479
   4.83026198  4.34560962  1.77704479
   4.83026198 -1.44853654  1.77704479
   7.24539297  1.44853654  1.77704479
 


--------------------------------------------------------------------------------------------------------


 k-point   1 :   0.0000 0.0000 0.0000  plane waves:    9559
 k-point   2 :   0.1429 0.0000 0.0000  plane waves:    9556
 k-point   3 :   0.2857 0.0000 0.0000  plane waves:    9560
 k-point   4 :   0.4286-0.0000 0.0000  plane waves:    9542
 k-point   5 :   0.1429 0.1429 0.0000  plane waves:    9565
 k-point   6 :   0.2857 0.1429 0.0000  plane waves:    9548
 k-point   7 :   0.4286 0.1429 0.0000  plane waves:    9536
 k-point   8 :  -0.4286 0.1429 0.0000  plane waves:    9536
 k-point   9 :  -0.2857 0.1429 0.0000  plane waves:    9560
 k-point  10 :  -0.1429 0.1429 0.0000  plane waves:    9564
 k-point  11 :   0.2857 0.2857 0.0000  plane waves:    9546
 k-point  12 :   0.4286 0.2857 0.0000  plane waves:    9521
 k-point  13 :  -0.4286 0.2857 0.0000  plane waves:    9534
 k-point  14 :  -0.2857 0.2857 0.0000  plane waves:    9546
 k-point  15 :   0.4286 0.4286 0.0000  plane waves:    9530
 k-point  16 :  -0.4286 0.4286 0.0000  plane waves:    9536
 k-point  17 :   0.0000 0.0000 0.1111  plane waves:    9537
 k-point  18 :   0.1429 0.0000 0.1111  plane waves:    9549
 k-point  19 :   0.2857 0.0000 0.1111  plane waves:    9542
 k-point  20 :   0.4286-0.0000 0.1111  plane waves:    9545
 k-point  21 :   0.1429 0.1429 0.1111  plane waves:    9560
 k-point  22 :   0.2857 0.1429 0.1111  plane waves:    9538
 k-point  23 :   0.4286 0.1429 0.1111  plane waves:    9522
 k-point  24 :  -0.4286 0.1429 0.1111  plane waves:    9538
 k-point  25 :  -0.2857 0.1429 0.1111  plane waves:    9549
 k-point  26 :  -0.1429 0.1429 0.1111  plane waves:    9566
 k-point  27 :   0.2857 0.2857 0.1111  plane waves:    9542
 k-point  28 :   0.4286 0.2857 0.1111  plane waves:    9523
 k-point  29 :  -0.4286 0.2857 0.1111  plane waves:    9542
 k-point  30 :  -0.2857 0.2857 0.1111  plane waves:    9560
 k-point  31 :   0.4286 0.4286 0.1111  plane waves:    9544
 k-point  32 :  -0.4286 0.4286 0.1111  plane waves:    9535
 k-point  33 :   0.0000 0.0000 0.2222  plane waves:    9548
 k-point  34 :   0.1429 0.0000 0.2222  plane waves:    9557
 k-point  35 :   0.2857 0.0000 0.2222  plane waves:    9545
 k-point  36 :   0.4286-0.0000 0.2222  plane waves:    9536
 k-point  37 :   0.1429 0.1429 0.2222  plane waves:    9551
 k-point  38 :   0.2857 0.1429 0.2222  plane waves:    9532
 k-point  39 :   0.4286 0.1429 0.2222  plane waves:    9545
 k-point  40 :  -0.4286 0.1429 0.2222  plane waves:    9540
 k-point  41 :  -0.2857 0.1429 0.2222  plane waves:    9554
 k-point  42 :  -0.1429 0.1429 0.2222  plane waves:    9556
 k-point  43 :   0.2857 0.2857 0.2222  plane waves:    9538
 k-point  44 :   0.4286 0.2857 0.2222  plane waves:    9540
 k-point  45 :  -0.4286 0.2857 0.2222  plane waves:    9557
 k-point  46 :  -0.2857 0.2857 0.2222  plane waves:    9583
 k-point  47 :   0.4286 0.4286 0.2222  plane waves:    9539
 k-point  48 :  -0.4286 0.4286 0.2222  plane waves:    9543
 k-point  49 :   0.0000 0.0000 0.3333  plane waves:    9556
 k-point  50 :   0.1429 0.0000 0.3333  plane waves:    9566
 k-point  51 :   0.2857 0.0000 0.3333  plane waves:    9562
 k-point  52 :   0.4286-0.0000 0.3333  plane waves:    9547
 k-point  53 :   0.1429 0.1429 0.3333  plane waves:    9564
 k-point  54 :   0.2857 0.1429 0.3333  plane waves:    9547
 k-point  55 :   0.4286 0.1429 0.3333  plane waves:    9542
 k-point  56 :  -0.4286 0.1429 0.3333  plane waves:    9544
 k-point  57 :  -0.2857 0.1429 0.3333  plane waves:    9560
 k-point  58 :  -0.1429 0.1429 0.3333  plane waves:    9553
 k-point  59 :   0.2857 0.2857 0.3333  plane waves:    9546
 k-point  60 :   0.4286 0.2857 0.3333  plane waves:    9537
 k-point  61 :  -0.4286 0.2857 0.3333  plane waves:    9555
 k-point  62 :  -0.2857 0.2857 0.3333  plane waves:    9556
 k-point  63 :   0.4286 0.4286 0.3333  plane waves:    9546
 k-point  64 :  -0.4286 0.4286 0.3333  plane waves:    9539
 k-point  65 :   0.0000 0.0000 0.4444  plane waves:    9582
 k-point  66 :   0.1429 0.0000 0.4444  plane waves:    9575
 k-point  67 :   0.2857 0.0000 0.4444  plane waves:    9556
 k-point  68 :   0.4286-0.0000 0.4444  plane waves:    9565
 k-point  69 :   0.1429 0.1429 0.4444  plane waves:    9573
 k-point  70 :   0.2857 0.1429 0.4444  plane waves:    9564
 k-point  71 :   0.4286 0.1429 0.4444  plane waves:    9550
 k-point  72 :  -0.4286 0.1429 0.4444  plane waves:    9557
 k-point  73 :  -0.2857 0.1429 0.4444  plane waves:    9551
 k-point  74 :  -0.1429 0.1429 0.4444  plane waves:    9576
 k-point  75 :   0.2857 0.2857 0.4444  plane waves:    9532
 k-point  76 :   0.4286 0.2857 0.4444  plane waves:    9556
 k-point  77 :  -0.4286 0.2857 0.4444  plane waves:    9536
 k-point  78 :  -0.2857 0.2857 0.4444  plane waves:    9548
 k-point  79 :   0.4286 0.4286 0.4444  plane waves:    9533
 k-point  80 :  -0.4286 0.4286 0.4444  plane waves:    9527

 maximum and minimum number of plane-waves per node :      9583     9521

 maximum number of plane-waves:      9583
 maximum index in each direction: 
   IXMAX=   14   IYMAX=   14   IZMAX=   11
   IXMIN=  -14   IYMIN=  -14   IZMIN=  -11


 serial   3D FFT for wavefunctions
 parallel 3D FFT for charge:
    minimum data exchange during FFTs selected (reduces bandwidth)


 total amount of memory used by VASP MPI-rank0   192708. kBytes
=======================================================================

   base      :      30000. kBytes
   nonlr-proj:      13359. kBytes
   fftplans  :       3084. kBytes
   grid      :      19560. kBytes
   one-center:        497. kBytes
   wavefun   :     126208. kBytes
 
     INWAV:  cpu time      0.0000: real time      0.0002
 Broyden mixing: mesh for mixing (old mesh)
   NGX = 29   NGY = 29   NGZ = 23
  (NGX  =120   NGY  =120   NGZ  = 96)
  gives a total of  19343 points

 initial charge density was supplied:
 charge density of overlapping atoms calculated
 number of electron     160.0000000 magnetization      -0.0000000
 keeping initial charge density in first step


--------------------------------------------------------------------------------------------------------


 Maximum index for non-local projection operator         6553
 Maximum index for augmentation-charges         1141 (set IRDMAX)


--------------------------------------------------------------------------------------------------------


 First call to EWALD:  gamma=   0.258
 Maximum number of real-space cells 3x 3x 3
 Maximum number of reciprocal cells 3x 3x 2

    FEWALD:  cpu time      0.0016: real time      0.0017


--------------------------------------- Ionic step        1  -------------------------------------------




--------------------------------------- Iteration      1(   1)  ---------------------------------------


    POTLOK:  cpu time      0.0686: real time      0.0843
    SETDIJ:  cpu time      0.2744: real time      0.2756
     EDDAV:  cpu time     30.0141: real time     30.1711
       DOS:  cpu time      0.0026: real time      0.0027
    --------------------------------------------
      LOOP:  cpu time     30.3598: real time     30.5338

 eigenvalue-minimisations  : 35580
 total energy-change (2. order) : 0.1999633E+04  (-0.8899126E+04)
 number of electron     160.0000000 magnetization      -0.0000000
 augmentation part      160.0000000 magnetization      -0.0000000

 Free energy of the ion-electron system (eV)
  ---------------------------------------------------
  alpha Z        PSCENC =       778.99259288
  Ewald energy   TEWEN  =    -10828.34184500
  -Hartree energ DENC   =     -9424.11785344
  -exchange      EXHF   =         0.00000000
  -V(xc)+E(xc)   XCENC  =       564.56644085
  PAW double counting   =     15528.04585519   -16123.82046358
  entropy T*S    EENTRO =        -0.00963602
  eigenvalues    EBANDS =      -206.52341700
  atomic energy  EATOM  =     21710.84102437
  Solvation  Ediel_sol  =         0.00000000
  ---------------------------------------------------
  free energy    TOTEN  =      1999.63269827 eV

  energy without entropy =     1999.64233429  energy(sigma->0) =     1999.63751628


--------------------------------------------------------------------------------------------------------




--------------------------------------- Iteration      1(   2)  ---------------------------------------


     EDDAV:  cpu time     27.4253: real time     27.5687
       DOS:  cpu time      0.0024: real time      0.0024
    --------------------------------------------
      LOOP:  cpu time     27.4276: real time     27.5711

 eigenvalue-minimisations  : 32000
 total energy-change (2. order) :-0.1878845E+04  (-0.1825892E+04)
 number of electron     160.0000000 magnetization      -0.0000000
 augmentation part      160.0000000 magnetization      -0.0000000

 Free energy of the ion-electron system (eV)
  ---------------------------------------------------
  alpha Z        PSCENC =       778.99259288
  Ewald energy   TEWEN  =    -10828.34184500
  -Hartree energ DENC   =     -9424.11785344
  -exchange      EXHF   =         0.00000000
  -V(xc)+E(xc)   XCENC  =       564.56644085
  PAW double counting   =     15528.04585519   -16123.82046358
  entropy T*S    EENTRO =        -0.01418942
  eigenvalues    EBANDS =     -2085.36426339
  atomic energy  EATOM  =     21710.84102437
  Solvation  Ediel_sol  =         0.00000000
  ---------------------------------------------------
  free energy    TOTEN  =       120.78729848 eV

  energy without entropy =      120.80148789  energy(sigma->0) =      120.79439318


--------------------------------------------------------------------------------------------------------




--------------------------------------- Iteration      1(   3)  ---------------------------------------


     EDDAV:  cpu time     37.3708: real time     37.6056
       DOS:  cpu time      0.0021: real time      0.0021
    --------------------------------------------
      LOOP:  cpu time     37.3729: real time     37.6078

 eigenvalue-minimisations  : 46080
 total energy-change (2. order) :-0.2062293E+03  (-0.1839680E+03)
 number of electron     160.0000000 magnetization      -0.0000000
 augmentation part      160.0000000 magnetization      -0.0000000

 Free energy of the ion-electron system (eV)
  ---------------------------------------------------
  alpha Z        PSCENC =       778.99259288
  Ewald energy   TEWEN  =    -10828.34184500
  -Hartree energ DENC   =     -9424.11785344
  -exchange      EXHF   =         0.00000000
  -V(xc)+E(xc)   XCENC  =       564.56644085
  PAW double counting   =     15528.04585519   -16123.82046358
  entropy T*S    EENTRO =        -0.02831681
  eigenvalues    EBANDS =     -2291.57946235
  atomic energy  EATOM  =     21710.84102437
  Solvation  Ediel_sol  =         0.00000000
  ---------------------------------------------------
  free energy    TOTEN  =       -85.44202788 eV

  energy without entropy =      -85.41371107  energy(sigma->0) =      -85.42786947


--------------------------------------------------------------------------------------------------------




--------------------------------------- Iteration      1(   4)  ---------------------------------------


     EDDAV:  cpu time     38.0094: real time     38.2022
       DOS:  cpu time      0.0022: real time      0.0022
    --------------------------------------------
      LOOP:  cpu time     38.0116: real time     38.2045

 eigenvalue-minimisations  : 47040
 total energy-change (2. order) :-0.1458058E+02  (-0.1426251E+02)
 number of electron     160.0000000 magnetization      -0.0000000
 augmentation part      160.0000000 magnetization      -0.0000000

 Free energy of the ion-electron system (eV)
  ---------------------------------------------------
  alpha Z        PSCENC =       778.99259288
  Ewald energy   TEWEN  =    -10828.34184500
  -Hartree energ DENC   =     -9424.11785344
  -exchange      EXHF   =         0.00000000
  -V(xc)+E(xc)   XCENC  =       564.56644085
  PAW double counting   =     15528.04585519   -16123.82046358
  entropy T*S    EENTRO =        -0.02958138
  eigenvalues    EBANDS =     -2306.15878144
  atomic energy  EATOM  =     21710.84102437
  Solvation  Ediel_sol  =         0.00000000
  ---------------------------------------------------
  free energy    TOTEN  =      -100.02261154 eV

  energy without entropy =      -99.99303016  energy(sigma->0) =     -100.00782085


--------------------------------------------------------------------------------------------------------




--------------------------------------- Iteration      1(   5)  ---------------------------------------


     EDDAV:  cpu time     36.4531: real time     36.6812
       DOS:  cpu time      0.0023: real time      0.0023
    CHARGE:  cpu time      1.0963: real time      1.1031
    MIXING:  cpu time      0.0016: real time      0.0016
    --------------------------------------------
      LOOP:  cpu time     37.5532: real time     37.7881

 eigenvalue-minimisations  : 45060
 total energy-change (2. order) :-0.3469124E+00  (-0.3460029E+00)
 number of electron     160.0000017 magnetization      -0.0000000
 augmentation part       53.0551100 magnetization      -0.0000000

 Broyden mixing:
  rms(total) = 0.27880E+01    rms(broyden)= 0.27877E+01
  rms(prec ) = 0.43763E+01
  weight for this iteration     100.00

 Free energy of the ion-electron system (eV)
  ---------------------------------------------------
  alpha Z        PSCENC =       778.99259288
  Ewald energy   TEWEN  =    -10828.34184500
  -Hartree energ DENC   =     -9424.11785344
  -exchange      EXHF   =         0.00000000
  -V(xc)+E(xc)   XCENC  =       564.56644085
  PAW double counting   =     15528.04585519   -16123.82046358
  entropy T*S    EENTRO =        -0.02952506
  eigenvalues    EBANDS =     -2306.50575015
  atomic energy  EATOM  =     21710.84102437
  Solvation  Ediel_sol  =         0.00000000
  ---------------------------------------------------
  free energy    TOTEN  =      -100.36952392 eV

  energy without entropy =     -100.33999886  energy(sigma->0) =     -100.35476139


--------------------------------------------------------------------------------------------------------




--------------------------------------- Iteration      1(   6)  ---------------------------------------


    POTLOK:  cpu time      0.3124: real time      0.3138
    SETDIJ:  cpu time      0.2723: real time      0.2732
    EDDIAG:  cpu time      4.6008: real time      4.6258
  RMM-DIIS:  cpu time     17.5519: real time     17.6355
    ORTHCH:  cpu time      0.5913: real time      0.5940
       DOS:  cpu time      0.0022: real time      0.0022
    CHARGE:  cpu time      1.0927: real time      1.0999
    MIXING:  cpu time      0.0018: real time      0.0018
    --------------------------------------------
      LOOP:  cpu time     24.4256: real time     24.5462

 eigenvalue-minimisations  : 32085
 total energy-change (2. order) :-0.1341299E+02  (-0.1763640E+02)
 number of electron     160.0000021 magnetization      -0.0000000
 augmentation part       70.4272269 magnetization      -0.0000000

 Broyden mixing:
  rms(total) = 0.54225E+01    rms(broyden)= 0.54223E+01
  rms(prec ) = 0.86004E+01
  weight for this iteration     100.00

 eigenvalues of (default mixing * dielectric matrix)
  average eigenvalue GAMMA=   0.2931
  0.2931

 Free energy of the ion-electron system (eV)
  ---------------------------------------------------
  alpha Z        PSCENC =       778.99259288
  Ewald energy   TEWEN  =    -10828.34184500
  -Hartree energ DENC   =     -8955.74971234
  -exchange      EXHF   =         0.00000000
  -V(xc)+E(xc)   XCENC  =       552.60926959
  PAW double counting   =     14966.59315759   -15530.22893514
  entropy T*S    EENTRO =        -0.03640705
  eigenvalues    EBANDS =     -2808.46166204
  atomic energy  EATOM  =     21710.84102437
  Solvation  Ediel_sol  =         0.00000000
  ---------------------------------------------------
  free energy    TOTEN  =      -113.78251715 eV

  energy without entropy =     -113.74611010  energy(sigma->0) =     -113.76431362


--------------------------------------------------------------------------------------------------------




--------------------------------------- Iteration      1(   7)  ---------------------------------------


    POTLOK:  cpu time      0.0566: real time      0.1025
    SETDIJ:  cpu time      0.2714: real time      0.2722
    EDDIAG:  cpu time      4.6177: real time      4.6432
  RMM-DIIS:  cpu time     17.4442: real time     17.5270
    ORTHCH:  cpu time      0.5959: real time      0.5984
       DOS:  cpu time      0.0022: real time      0.0022
    CHARGE:  cpu time      1.1180: real time      1.1239
    MIXING:  cpu time      0.0016: real time      0.0016
    --------------------------------------------
      LOOP:  cpu time     24.1075: real time     24.2711

 eigenvalue-minimisations  : 32020
 total energy-change (2. order) : 0.2276199E+02  (-0.4516382E+01)
 number of electron     160.0000015 magnetization      -0.0000000
 augmentation part       57.7529785 magnetization      -0.0000000

 Broyden mixing:
  rms(total) = 0.11757E+01    rms(broyden)= 0.11751E+01
  rms(prec ) = 0.14175E+01
  weight for this iteration     100.00

 eigenvalues of (default mixing * dielectric matrix)
  average eigenvalue GAMMA=   0.4397
  0.6176  0.2617

 Free energy of the ion-electron system (eV)
  ---------------------------------------------------
  alpha Z        PSCENC =       778.99259288
  Ewald energy   TEWEN  =    -10828.34184500
  -Hartree energ DENC   =     -9245.97081186
  -exchange      EXHF   =         0.00000000
  -V(xc)+E(xc)   XCENC  =       557.70625374
  PAW double counting   =     15468.27585371   -16065.60157538
  entropy T*S    EENTRO =        -0.03546737
  eigenvalues    EBANDS =     -2466.88654808
  atomic energy  EATOM  =     21710.84102437
  Solvation  Ediel_sol  =         0.00000000
  ---------------------------------------------------
  free energy    TOTEN  =       -91.02052298 eV

  energy without entropy =      -90.98505562  energy(sigma->0) =      -91.00278930


--------------------------------------------------------------------------------------------------------




--------------------------------------- Iteration      1(   8)  ---------------------------------------


    POTLOK:  cpu time      0.0575: real time      0.0580
    SETDIJ:  cpu time      0.2711: real time      0.2723
    EDDIAG:  cpu time      4.6455: real time      4.6687
  RMM-DIIS:  cpu time     22.0013: real time     22.1086
    ORTHCH:  cpu time      0.6028: real time      0.6054
       DOS:  cpu time      0.0021: real time      0.0021
    CHARGE:  cpu time      1.0927: real time      1.0986
    MIXING:  cpu time      0.0017: real time      0.0017
    --------------------------------------------
      LOOP:  cpu time     28.6746: real time     28.8154

 eigenvalue-minimisations  : 41204
 total energy-change (2. order) :-0.5696574E+00  (-0.3036360E+00)
 number of electron     160.0000013 magnetization      -0.0000000
 augmentation part       58.3020896 magnetization      -0.0000000

 Broyden mixing:
  rms(total) = 0.55948E+00    rms(broyden)= 0.55920E+00
  rms(prec ) = 0.73819E+00
  weight for this iteration     100.00

 eigenvalues of (default mixing * dielectric matrix)
  average eigenvalue GAMMA=   0.6279
  0.3032  0.7902  0.7902

 Free energy of the ion-electron system (eV)
  ---------------------------------------------------
  alpha Z        PSCENC =       778.99259288
  Ewald energy   TEWEN  =    -10828.34184500
  -Hartree energ DENC   =     -9233.76982496
  -exchange      EXHF   =         0.00000000
  -V(xc)+E(xc)   XCENC  =       558.19060606
  PAW double counting   =     15517.44368347   -16121.68192693
  entropy T*S    EENTRO =        -0.03032581
  eigenvalues    EBANDS =     -2473.23416446
  atomic energy  EATOM  =     21710.84102437
  Solvation  Ediel_sol  =         0.00000000
  ---------------------------------------------------
  free energy    TOTEN  =       -91.59018036 eV

  energy without entropy =      -91.55985456  energy(sigma->0) =      -91.57501746


--------------------------------------------------------------------------------------------------------




--------------------------------------- Iteration      1(   9)  ---------------------------------------


    POTLOK:  cpu time      0.0720: real time      0.0725
    SETDIJ:  cpu time      0.2725: real time      0.2735
    EDDIAG:  cpu time      4.6176: real time      4.6419
  RMM-DIIS:  cpu time     22.8468: real time     22.9605
    ORTHCH:  cpu time      0.6154: real time      0.6182
       DOS:  cpu time      0.0021: real time      0.0022
    CHARGE:  cpu time      1.0857: real time      1.0918
    MIXING:  cpu time      0.0025: real time      0.0025
    --------------------------------------------
      LOOP:  cpu time     29.5146: real time     29.6631

 eigenvalue-minimisations  : 44288
 total energy-change (2. order) :-0.8859185E-01  (-0.9242801E-01)
 number of electron     160.0000012 magnetization      -0.0000000
 augmentation part       58.7664063 magnetization      -0.0000000

 Broyden mixing:
  rms(total) = 0.29057E+00    rms(broyden)= 0.29008E+00
  rms(prec ) = 0.35457E+00
  weight for this iteration     100.00

 eigenvalues of (default mixing * dielectric matrix)
  average eigenvalue GAMMA=   0.8122
  1.1287  1.1287  0.2976  0.6937

 Free energy of the ion-electron system (eV)
  ---------------------------------------------------
  alpha Z        PSCENC =       778.99259288
  Ewald energy   TEWEN  =    -10828.34184500
  -Hartree energ DENC   =     -9216.85703681
  -exchange      EXHF   =         0.00000000
  -V(xc)+E(xc)   XCENC  =       558.43496754
  PAW double counting   =     15596.32537686   -16207.02975561
  entropy T*S    EENTRO =        -0.02027233
  eigenvalues    EBANDS =     -2484.02382412
  atomic energy  EATOM  =     21710.84102437
  Solvation  Ediel_sol  =         0.00000000
  ---------------------------------------------------
  free energy    TOTEN  =       -91.67877222 eV

  energy without entropy =      -91.65849988  energy(sigma->0) =      -91.66863605


--------------------------------------------------------------------------------------------------------




--------------------------------------- Iteration      1(  10)  ---------------------------------------


    POTLOK:  cpu time      0.0624: real time      0.1065
    SETDIJ:  cpu time      0.2682: real time      0.2691
    EDDIAG:  cpu time      4.7296: real time      4.7545
  RMM-DIIS:  cpu time     25.6548: real time     25.7787
    ORTHCH:  cpu time      0.6029: real time      0.6055
       DOS:  cpu time      0.0023: real time      0.0023
    CHARGE:  cpu time      1.1075: real time      1.1133
    MIXING:  cpu time      0.0018: real time      0.0018
    --------------------------------------------
      LOOP:  cpu time     32.4295: real time     32.6317

 eigenvalue-minimisations  : 46252
 total energy-change (2. order) :-0.2919922E-01  (-0.2960432E-01)
 number of electron     160.0000013 magnetization       0.0000000
 augmentation part       58.9521614 magnetization       0.0000000

 Broyden mixing:
  rms(total) = 0.17465E+00    rms(broyden)= 0.17444E+00
  rms(prec ) = 0.20152E+00
  weight for this iteration     100.00

 eigenvalues of (default mixing * dielectric matrix)
  average eigenvalue GAMMA=   1.0246
  1.6370  1.6370  0.2981  0.8031  0.7478

 Free energy of the ion-electron system (eV)
  ---------------------------------------------------
  alpha Z        PSCENC =       778.99259288
  Ewald energy   TEWEN  =    -10828.34184500
  -Hartree energ DENC   =     -9210.55789909
  -exchange      EXHF   =         0.00000000
  -V(xc)+E(xc)   XCENC  =       558.45245309
  PAW double counting   =     15646.36607911   -16260.59845260
  entropy T*S    EENTRO =        -0.01847179
  eigenvalues    EBANDS =     -2486.84345241
  atomic energy  EATOM  =     21710.84102437
  Solvation  Ediel_sol  =         0.00000000
  ---------------------------------------------------
  free energy    TOTEN  =       -91.70797144 eV

  energy without entropy =      -91.68949965  energy(sigma->0) =      -91.69873555


--------------------------------------------------------------------------------------------------------




--------------------------------------- Iteration      1(  11)  ---------------------------------------


    POTLOK:  cpu time      0.0741: real time      0.0747
    SETDIJ:  cpu time      0.2701: real time      0.2716
    EDDIAG:  cpu time      4.7224: real time      4.7472
  RMM-DIIS:  cpu time     22.0146: real time     22.1222
    ORTHCH:  cpu time      0.6019: real time      0.6045
       DOS:  cpu time      0.0022: real time      0.0022
    CHARGE:  cpu time      1.0529: real time      1.0586
    MIXING:  cpu time      0.0018: real time      0.0018
    --------------------------------------------
      LOOP:  cpu time     28.7399: real time     28.8828

 eigenvalue-minimisations  : 41189
 total energy-change (2. order) : 0.2599685E-02  (-0.6951578E-02)
 number of electron     160.0000013 magnetization      -0.0000000
 augmentation part       58.9261613 magnetization      -0.0000000

 Broyden mixing:
  rms(total) = 0.69250E-01    rms(broyden)= 0.69176E-01
  rms(prec ) = 0.79629E-01
  weight for this iteration     100.00

 eigenvalues of (default mixing * dielectric matrix)
  average eigenvalue GAMMA=   1.1014
  1.8965  1.8965  0.2980  0.9186  0.9186  0.6802

 Free energy of the ion-electron system (eV)
  ---------------------------------------------------
  alpha Z        PSCENC =       778.99259288
  Ewald energy   TEWEN  =    -10828.34184500
  -Hartree energ DENC   =     -9208.21368730
  -exchange      EXHF   =         0.00000000
  -V(xc)+E(xc)   XCENC  =       558.58191830
  PAW double counting   =     15703.35927360   -16320.72742415
  entropy T*S    EENTRO =        -0.01848260
  eigenvalues    EBANDS =     -2486.17874186
  atomic energy  EATOM  =     21710.84102437
  Solvation  Ediel_sol  =         0.00000000
  ---------------------------------------------------
  free energy    TOTEN  =       -91.70537175 eV

  energy without entropy =      -91.68688915  energy(sigma->0) =      -91.69613045


--------------------------------------------------------------------------------------------------------




--------------------------------------- Iteration      1(  12)  ---------------------------------------


    POTLOK:  cpu time      0.0523: real time      0.0959
    SETDIJ:  cpu time      0.2691: real time      0.2701
    EDDIAG:  cpu time      4.5272: real time      4.5503
  RMM-DIIS:  cpu time     23.3137: real time     23.4276
    ORTHCH:  cpu time      0.6082: real time      0.6108
       DOS:  cpu time      0.0021: real time      0.0022
    CHARGE:  cpu time      1.1027: real time      1.1083
    MIXING:  cpu time      0.0022: real time      0.0022
    --------------------------------------------
      LOOP:  cpu time     29.8777: real time     30.0674

 eigenvalue-minimisations  : 43314
 total energy-change (2. order) :-0.9917627E-02  (-0.2404640E-02)
 number of electron     160.0000013 magnetization      -0.0000000
 augmentation part       58.9606971 magnetization      -0.0000000

 Broyden mixing:
  rms(total) = 0.39258E-01    rms(broyden)= 0.39250E-01
  rms(prec ) = 0.46973E-01
  weight for this iteration     100.00

 eigenvalues of (default mixing * dielectric matrix)
  average eigenvalue GAMMA=   1.0844
  2.2288  1.3682  1.3682  0.2980  0.8528  0.8052  0.6699

 Free energy of the ion-electron system (eV)
  ---------------------------------------------------
  alpha Z        PSCENC =       778.99259288
  Ewald energy   TEWEN  =    -10828.34184500
  -Hartree energ DENC   =     -9207.13757387
  -exchange      EXHF   =         0.00000000
  -V(xc)+E(xc)   XCENC  =       558.59680345
  PAW double counting   =     15711.20193681   -16328.96548541
  entropy T*S    EENTRO =        -0.01913391
  eigenvalues    EBANDS =     -2486.88360870
  atomic energy  EATOM  =     21710.84102437
  Solvation  Ediel_sol  =         0.00000000
  ---------------------------------------------------
  free energy    TOTEN  =       -91.71528938 eV

  energy without entropy =      -91.69615547  energy(sigma->0) =      -91.70572242


--------------------------------------------------------------------------------------------------------




--------------------------------------- Iteration      1(  13)  ---------------------------------------


    POTLOK:  cpu time      0.0582: real time      0.0587
    SETDIJ:  cpu time      0.2690: real time      0.2700
    EDDIAG:  cpu time      4.6601: real time      4.6839
  RMM-DIIS:  cpu time     21.7679: real time     21.8717
    ORTHCH:  cpu time      0.6082: real time      0.6109
       DOS:  cpu time      0.0022: real time      0.0022
    CHARGE:  cpu time      1.0921: real time      1.0983
    MIXING:  cpu time      0.0019: real time      0.0019
    --------------------------------------------
      LOOP:  cpu time     28.4596: real time     28.5975

 eigenvalue-minimisations  : 39590
 total energy-change (2. order) : 0.6758900E-04  (-0.6022227E-03)
 number of electron     160.0000013 magnetization      -0.0000000
 augmentation part       58.9806053 magnetization      -0.0000000

 Broyden mixing:
  rms(total) = 0.15721E-01    rms(broyden)= 0.15713E-01
  rms(prec ) = 0.19157E-01
  weight for this iteration     100.00

 eigenvalues of (default mixing * dielectric matrix)
  average eigenvalue GAMMA=   1.1304
  2.6294  1.4020  1.4020  0.2980  1.0732  0.8785  0.7155  0.6441

 Free energy of the ion-electron system (eV)
  ---------------------------------------------------
  alpha Z        PSCENC =       778.99259288
  Ewald energy   TEWEN  =    -10828.34184500
  -Hartree energ DENC   =     -9206.66861830
  -exchange      EXHF   =         0.00000000
  -V(xc)+E(xc)   XCENC  =       558.63200182
  PAW double counting   =     15713.64943282   -16331.57212884
  entropy T*S    EENTRO =        -0.01904080
  eigenvalues    EBANDS =     -2487.22864074
  atomic energy  EATOM  =     21710.84102437
  Solvation  Ediel_sol  =         0.00000000
  ---------------------------------------------------
  free energy    TOTEN  =       -91.71522179 eV

  energy without entropy =      -91.69618099  energy(sigma->0) =      -91.70570139


--------------------------------------------------------------------------------------------------------




--------------------------------------- Iteration      1(  14)  ---------------------------------------


    POTLOK:  cpu time      0.0730: real time      0.0735
    SETDIJ:  cpu time      0.2701: real time      0.2710
    EDDIAG:  cpu time      4.6569: real time      4.6802
  RMM-DIIS:  cpu time     15.4900: real time     15.5680
    ORTHCH:  cpu time      0.5846: real time      0.5870
       DOS:  cpu time      0.0021: real time      0.0021
    --------------------------------------------
      LOOP:  cpu time     21.0767: real time     21.1818

 eigenvalue-minimisations  : 29838
 total energy-change (2. order) : 0.5768340E-04  (-0.1885713E-03)
 number of electron     160.0000013 magnetization      -0.0000000
 augmentation part       58.9806053 magnetization      -0.0000000

 Free energy of the ion-electron system (eV)
  ---------------------------------------------------
  alpha Z        PSCENC =       778.99259288
  Ewald energy   TEWEN  =    -10828.34184500
  -Hartree energ DENC   =     -9206.50378242
  -exchange      EXHF   =         0.00000000
  -V(xc)+E(xc)   XCENC  =       558.64586860
  PAW double counting   =     15714.30967729   -16332.24776556
  entropy T*S    EENTRO =        -0.01888944
  eigenvalues    EBANDS =     -2487.39204483
  atomic energy  EATOM  =     21710.84102437
  Solvation  Ediel_sol  =         0.00000000
  ---------------------------------------------------
  free energy    TOTEN  =       -91.71516411 eV

  energy without entropy =      -91.69627467  energy(sigma->0) =      -91.70571939


--------------------------------------------------------------------------------------------------------




 average (electrostatic) potential at core
  the test charge radii are     0.9500  1.0808
  (the norm of the test charge is              1.0000)
       1 -47.8202       2 -47.8202       3 -47.8202       4 -47.8202       5 -47.8202
       6 -47.8202       7 -47.8202       8 -47.8202       9 -55.2670      10 -55.2670
      11 -55.2670      12 -55.2670      13 -55.2670      14 -55.2670      15 -55.2670
      16 -55.2670
 
 
 
 E-fermi :   3.3922     XC(G=0): -10.1730     alpha+bet : -8.9256

 Fermi energy:         3.3922402346

 spin component 1

 k-point     1 :       0.0000    0.0000    0.0000
  band No.  band energies     occupation 
      1     -51.4729      1.00000
      2     -51.4652      1.00000
      3     -51.4652      1.00000
      4     -51.4601      1.00000
      5     -51.3316      1.00000
      6     -51.2859      1.00000
      7     -51.2806      1.00000
      8     -51.2806      1.00000
      9     -51.2729      1.00000
     10     -51.1697      1.00000
     11     -51.1697      1.00000
     12     -51.0054      1.00000
     13     -48.5910      1.00000
     14     -48.5892      1.00000
     15     -48.5892      1.00000
     16     -48.5891      1.00000
     17     -48.5733      1.00000
     18     -48.3937      1.00000
     19     -48.3937      1.00000
     20     -48.2455      1.00000
     21     -48.2455      1.00000
     22     -48.2452      1.00000
     23     -48.2435      1.00000
     24     -48.2108      1.00000
     25     -10.6594      1.00000
     26      -9.6432      1.00000
     27      -9.6432      1.00000
     28      -9.6271      1.00000
     29      -9.6271      1.00000
     30      -9.3571      1.00000
     31      -9.2641      1.00000
     32      -9.2083      1.00000
     33      -2.5922      1.00000
     34      -2.2395      1.00000
     35      -1.2894      1.00000
     36      -1.2894      1.00000
     37      -1.2458      1.00000
     38      -1.2458      1.00000
     39      -1.0253      1.00000
     40      -0.9087      1.00000
     41      -0.8266      1.00000
     42      -0.8266      1.00000
     43      -0.6772      1.00000
     44      -0.6314      1.00000
     45      -0.5786      1.00000
     46      -0.5786      1.00000
     47      -0.5778      1.00000
     48      -0.3161      1.00000
     49      -0.0698      1.00000
     50      -0.0698      1.00000
     51       0.0215      1.00000
     52       0.3513      1.00000
     53       0.3513      1.00000
     54       0.5052      1.00000
     55       0.6447      1.00000
     56       0.7144      1.00000
     57       0.9237      1.00000
     58       0.9237      1.00000
     59       1.0049      1.00000
     60       1.0049      1.00000
     61       1.1391      1.00000
     62       1.1636      1.00000
     63       1.2657      1.00000
     64       1.3926      1.00000
     65       1.5124      1.00000
     66       1.5330      1.00000
     67       1.5330      1.00000
     68       1.6543      1.00000
     69       1.7506      1.00000
     70       1.8760      1.00000
     71       1.8760      1.00000
     72       2.1491      1.00000
     73       2.5522      1.00000
     74       2.6368      1.00000
     75       2.6368      1.00000
     76       2.7100      1.00000
     77       2.7100      1.00000
     78       3.1195      1.00000
     79       3.1408      1.00000
     80       3.2137      1.00000
     81       3.3417      0.92375
     82       3.8400      0.00000
     83       3.8400      0.00000
     84       3.9139      0.00000
     85       3.9166      0.00000
     86       3.9166      0.00000
     87       3.9278      0.00000
     88       4.2055      0.00000
     89       4.2085      0.00000
     90       4.2086      0.00000
     91       4.2134      0.00000
     92       4.2135      0.00000
[...]
         0         1         2         3         4         5         6         7         8         9
 total charge-density along one line
 
 soft charge-density along one line, spin component           2
         0         1         2         3         4         5         6         7         8         9
 total charge-density along one line
 
 pseudopotential strength for first ion, spin component:           1
-55.540   0.055  -0.000  28.628  -0.044   0.000   0.000   0.000
  0.055 -55.599  -0.000  -0.044  28.673   0.000  -0.000   0.000
 -0.000  -0.000 -55.425   0.000   0.000  28.537   0.000  -0.000
 28.628  -0.044   0.000 -10.306   0.032  -0.000  -0.000  -0.000
 -0.044  28.673   0.000   0.032 -10.337  -0.000   0.000  -0.000
  0.000   0.000  28.537  -0.000  -0.000 -10.245  -0.000   0.000
  0.000  -0.000   0.000  -0.000   0.000  -0.000  -9.192  -0.000
  0.000   0.000  -0.000  -0.000  -0.000   0.000  -0.000  -8.981
 -0.000   0.000  -0.000   0.000  -0.000   0.000   0.000  -0.012
 -0.000   0.000   0.000   0.000  -0.000  -0.000  -0.028  -0.000
 -0.000  -0.000   0.000   0.000   0.000  -0.000  -0.000  -0.101
 -0.000   0.000  -0.000   0.000  -0.000   0.000   0.001   0.000
 -0.000  -0.000   0.000   0.000   0.000  -0.000   0.000  -0.049
  0.000  -0.000   0.000  -0.000   0.000  -0.000  -0.000   0.003
  0.000  -0.000  -0.000  -0.000   0.000   0.000   0.006   0.000
  0.000   0.000  -0.000  -0.000  -0.000   0.000   0.000   0.024
 -0.000  -0.000  -0.000   0.000   0.000   0.000   0.000  -0.013
  0.000   0.000   0.000  -0.000  -0.000  -0.000  -0.000   0.003
 pseudopotential strength for first ion, spin component:           2
-53.321   0.101  -0.000  26.933  -0.072   0.000   0.000   0.000
  0.101 -53.336  -0.000  -0.072  26.942   0.000  -0.000   0.000
 -0.000  -0.000 -53.304   0.000   0.000  26.912   0.000  -0.000
 26.933  -0.072   0.000  -9.106   0.054  -0.000  -0.000  -0.000
 -0.072  26.942   0.000   0.054  -9.114  -0.000   0.000  -0.000
  0.000   0.000  26.912  -0.000  -0.000  -9.095  -0.000   0.000
  0.000  -0.000   0.000  -0.000   0.000  -0.000  -7.007  -0.000
  0.000   0.000  -0.000  -0.000  -0.000   0.000  -0.000  -7.394
 -0.000   0.000  -0.000   0.000  -0.000   0.000   0.000   0.083
 -0.000   0.000   0.000   0.000  -0.000  -0.000   0.115  -0.000
 -0.000  -0.000   0.000   0.000   0.000  -0.000  -0.000   0.012
 -0.000   0.000  -0.000   0.000  -0.000   0.000  -0.508   0.000
 -0.000  -0.000   0.000   0.000   0.000  -0.000   0.000  -0.419
  0.000  -0.000   0.000  -0.000   0.000  -0.000  -0.000  -0.018
  0.000  -0.000  -0.000  -0.000   0.000   0.000  -0.025   0.000
  0.000   0.000  -0.000  -0.000  -0.000   0.000   0.000  -0.004
 -0.000  -0.000  -0.000   0.000   0.000   0.000   0.000  -0.011
  0.000   0.000   0.000  -0.000  -0.000  -0.000  -0.000   0.003
 total augmentation occupancy for first ion, spin component:           1
  2.009  -0.019   0.000   0.055  -0.047  -0.000   0.000   0.000  -0.000   0.000   0.000  -0.000   0.000   0.000   0.000   0.000
 -0.019   2.012   0.000  -0.047   0.063  -0.000   0.000   0.000   0.000  -0.000   0.000   0.000  -0.000  -0.000  -0.000  -0.000
  0.000  -0.000   2.008  -0.000  -0.000   0.049  -0.000  -0.000  -0.000   0.000   0.000   0.000   0.000  -0.000   0.000  -0.000
  0.055  -0.047  -0.000   0.193  -0.114  -0.000   0.000   0.000  -0.000  -0.000  -0.000  -0.000   0.000   0.000   0.000  -0.000
 -0.047   0.063  -0.000  -0.114   0.212   0.000  -0.000   0.000   0.000  -0.000  -0.000   0.000   0.000   0.000   0.000  -0.000
 -0.000   0.000   0.049  -0.000  -0.000   0.172  -0.000   0.000   0.000   0.000   0.000   0.000   0.000   0.000  -0.000   0.000
  0.000   0.000   0.000   0.000  -0.000  -0.000   1.230   0.000  -0.000  -0.094   0.000  -0.087  -0.000   0.000  -0.055  -0.000
  0.000   0.000  -0.000   0.000   0.000   0.000  -0.000   1.476   0.002   0.000  -0.095  -0.000   0.079  -0.136  -0.000   0.103
 -0.000   0.000  -0.000  -0.000   0.000   0.000   0.000   0.002   1.302  -0.000  -0.171   0.000  -0.138   0.033  -0.000  -0.087
  0.000  -0.000   0.000  -0.000  -0.000  -0.000  -0.094  -0.000  -0.000   1.205   0.000  -0.056   0.000   0.000  -0.066   0.000
  0.000   0.000   0.000   0.000  -0.000   0.000   0.000  -0.095  -0.171  -0.000   1.505   0.000   0.107  -0.085  -0.000   0.128
 -0.000   0.000  -0.000  -0.000   0.000   0.000  -0.087  -0.000  -0.000  -0.056  -0.000   0.159   0.000   0.000  -0.028   0.000
  0.000   0.000   0.000  -0.000  -0.000   0.000  -0.000   0.079  -0.138   0.000   0.107   0.000   0.245  -0.068  -0.000   0.090
  0.000   0.000   0.000   0.000  -0.000   0.000   0.000  -0.136   0.033   0.000  -0.085   0.000  -0.068   0.164  -0.000  -0.007
  0.000  -0.000  -0.000   0.000   0.000   0.000  -0.055   0.000   0.000  -0.066  -0.000  -0.028  -0.000   0.000   0.157   0.000
  0.000   0.000  -0.000   0.000  -0.000   0.000  -0.000   0.103  -0.087  -0.000   0.128   0.000   0.090  -0.007  -0.000   0.136
  0.000   0.000   0.000   0.000   0.000   0.000   0.000  -0.014  -0.029   0.000   0.089  -0.000  -0.333   0.031   0.000  -0.014
  0.000  -0.000  -0.000   0.000   0.000   0.000  -0.000   0.002   0.017   0.000  -0.014   0.000   0.021  -0.005  -0.000   0.004
 total augmentation occupancy for first ion, spin component:           2
 -0.006   0.000  -0.000  -0.002  -0.000   0.000   0.000   0.000   0.000  -0.000  -0.000  -0.000   0.000   0.000   0.000  -0.000
  0.000  -0.008  -0.000  -0.000  -0.008   0.000  -0.000   0.000  -0.000  -0.000   0.000  -0.000  -0.000  -0.000   0.000   0.000
  0.000   0.000  -0.008  -0.000   0.000  -0.006  -0.000  -0.000   0.000  -0.000  -0.000   0.000   0.000   0.000  -0.000  -0.000
 -0.002  -0.000   0.000   0.015  -0.002  -0.000   0.000  -0.000   0.000   0.000   0.000   0.000  -0.000  -0.000   0.000   0.000
 -0.000  -0.008  -0.000  -0.002   0.001   0.000  -0.000  -0.000   0.000  -0.000  -0.000   0.000   0.000   0.000   0.000  -0.000
  0.000   0.000  -0.006   0.000   0.000   0.009  -0.000  -0.000  -0.000  -0.000  -0.000   0.000   0.000  -0.000   0.000   0.000
  0.000  -0.000   0.000   0.000  -0.000  -0.000   0.725   0.000   0.000   0.110  -0.000  -0.273   0.000  -0.000   0.009   0.000
  0.000  -0.000  -0.000  -0.000  -0.000  -0.000  -0.000   0.376   0.082  -0.000   0.041   0.000  -0.206  -0.002  -0.000  -0.034
 -0.000   0.000   0.000  -0.000  -0.000  -0.000  -0.000   0.082   0.558   0.000   0.221   0.000  -0.003  -0.226   0.000  -0.032
 -0.000  -0.000  -0.000   0.000  -0.000  -0.000   0.110  -0.000  -0.000   0.726  -0.000   0.011  -0.000   0.000  -0.271   0.000
  0.000   0.000  -0.000   0.000  -0.000  -0.000   0.000   0.041   0.221   0.000   0.261   0.000  -0.019  -0.027  -0.000  -0.159
 -0.000  -0.000   0.000   0.000   0.000   0.000  -0.273   0.000  -0.000   0.011   0.000   0.056  -0.000  -0.000   0.005   0.000
 -0.000  -0.000   0.000  -0.000   0.000   0.000   0.000  -0.206  -0.003   0.000  -0.019  -0.000   0.010   0.023  -0.000  -0.002
 -0.000  -0.000   0.000   0.000   0.000  -0.000  -0.000  -0.002  -0.226   0.000  -0.027   0.000   0.023   0.019   0.000   0.013
  0.000   0.000  -0.000   0.000   0.000   0.000   0.009   0.000   0.000  -0.271   0.000   0.005   0.000  -0.000   0.043   0.000
 -0.000  -0.000  -0.000  -0.000   0.000   0.000  -0.000  -0.034  -0.032   0.000  -0.159  -0.000  -0.002   0.013  -0.000  -0.008
  0.000   0.000   0.000   0.000   0.000   0.000  -0.000   0.130   0.016   0.000  -0.047  -0.000  -0.038   0.004   0.000  -0.027
  0.000  -0.000   0.000   0.000   0.000   0.000   0.000   0.013   0.018   0.000  -0.020   0.000  -0.004  -0.002  -0.000  -0.000


------------------------ aborting loop because EDIFF is reached ----------------------------------------





 total charge

# of ion       s       p       d       tot
------------------------------------------
    1        0.340   6.290   6.050  12.680
    2        0.340   6.290   6.050  12.680
    3        0.340   6.290   6.050  12.680
    4        0.340   6.290   6.050  12.680
    5        0.340   6.290   6.050  12.680
    6        0.340   6.290   6.050  12.680
    7        0.340   6.290   6.050  12.680
    8        0.340   6.290   6.050  12.680
    9        1.486   2.270   0.049   3.805
   10        1.486   2.270   0.049   3.805
   11        1.486   2.270   0.049   3.805
   12        1.486   2.270   0.049   3.805
   13        1.486   2.270   0.049   3.805
   14        1.486   2.270   0.049   3.805
   15        1.486   2.270   0.049   3.805
   16        1.486   2.270   0.049   3.805
--------------------------------------------------
tot         14.604  68.483  48.795 131.882



 magnetization (x)

# of ion       s       p       d       tot
------------------------------------------
    1        0.029   0.012   2.581   2.623
    2       -0.029  -0.012  -2.581  -2.623
    3       -0.029  -0.012  -2.581  -2.623
    4        0.029   0.012   2.581   2.623
    5        0.029   0.012   2.581   2.623
    6       -0.029  -0.012  -2.581  -2.623
    7       -0.029  -0.012  -2.581  -2.623
    8        0.029   0.012   2.581   2.623
    9        0.000   0.000   0.000   0.000
   10        0.000   0.000   0.000   0.000
   11        0.000   0.000   0.000   0.000
   12        0.000   0.000   0.000   0.000
   13        0.000   0.000   0.000   0.000
   14        0.000   0.000   0.000   0.000
   15        0.000   0.000   0.000   0.000
   16        0.000   0.000   0.000   0.000
--------------------------------------------------
tot          0.000   0.000   0.000   0.000
 
    CHARGE:  cpu time      1.0529: real time      1.0581
    FORLOC:  cpu time      0.0033: real time      0.0033
    FORNL :  cpu time      7.0853: real time      7.1187
    STRESS:  cpu time     19.9612: real time     20.0603
    FORCOR:  cpu time      0.0508: real time      0.0510
    FORHAR:  cpu time      0.0074: real time      0.0075
    MIXING:  cpu time      0.0016: real time      0.0016
    OFIELD:  cpu time      0.0000: real time      0.0000
    FORVDW:  cpu time      0.7469: real time      0.7494

  FORCE on cell =-STRESS in cart. coord.  units (eV):
  Direction    XX          YY          ZZ          XY          YZ          ZX
  --------------------------------------------------------------------------------------
  Alpha Z   778.99259   778.99259   778.99259
  Ewald    -807.40808 -1582.87890 -8544.26145     0.00000     0.00000     0.00000
  Hartree  5627.96297  4878.12224 -1402.63690     0.00000     0.00000    -0.00000
  E(xc)    -896.37408  -898.22484  -897.54642    -0.00000     0.00000    -0.00000
  Local   -6656.48362 -5131.71588  8129.81889    -0.00000    -0.00000     0.00000
  n-local  -273.69720  -246.49259  -238.56155    -0.97422    -0.26013    -0.69282
  augment   531.06202   516.75550   514.89854     0.00000    -0.00000     0.00000
  Kinetic  1699.04030  1688.59987  1662.04710     3.58497    -0.20272     0.18323
  Fock        0.00000     0.00000     0.00000     0.00000     0.00000     0.00000
  vdW        -6.08096    -6.16974    -6.32778     0.00000    -0.00000     0.00000
  -------------------------------------------------------------------------------------
  Total      -2.98606    -3.01175    -3.57698     0.00000     0.00000     0.00000
  in kB     -14.67544   -14.80169   -17.57960     0.00000     0.00000     0.00000
  external pressure =      -15.69 kB  Pullay stress =        0.00 kB


 VOLUME and BASIS-vectors are now :
 -----------------------------------------------------------------------------
  energy-cutoff  :      550.00
  volume of cell :      326.00
      direct lattice vectors                 reciprocal lattice vectors
     4.866131522 -5.793697392  0.000000000     0.102751025 -0.086300676  0.000000000
     4.866131522  5.793697392 -0.000000000     0.102751025  0.086300676 -0.000000000
     0.000000000  0.000000000  5.781598826     0.000000000  0.000000000  0.172962537

  length of vectors
     7.566119577  7.566119577  5.781598826     0.134184871  0.134184871  0.172962537


 FORCES acting on ions
    electron-ion (+dipol)            ewald-force                    non-local-force                 convergence-correction
 -----------------------------------------------------------------------------------------------
   0.203E-13 -.906E-14 0.806E-13   -.163E-12 0.426E-13 -.142E-13   -.586E-22 0.288E-21 0.115E-21   -.590E-12 0.528E-12 -.395E-12
   0.617E-12 0.779E-12 0.102E-12   -.164E-12 0.426E-13 -.124E-13   0.196E-22 -.148E-21 0.466E-22   -.505E-12 0.711E-12 -.649E-12
   0.706E-12 -.146E-11 -.118E-10   -.163E-12 0.568E-13 0.284E-13   -.502E-22 0.194E-21 0.461E-22   0.644E-12 -.519E-12 0.583E-12
   -.499E-11 -.959E-11 -.881E-11   -.163E-12 0.462E-13 -.355E-14   -.189E-21 -.132E-21 -.814E-22   0.922E-12 -.451E-13 0.332E-13
   -.266E-11 -.391E-11 -.388E-11   0.179E-12 -.711E-14 0.293E-13   0.934E-22 0.162E-21 -.157E-21   -.268E-12 0.115E-11 0.640E-14
   0.433E-11 0.578E-11 -.453E-11   0.185E-12 0.142E-13 0.000E+00   0.107E-21 -.170E-21 -.341E-23   -.772E-12 0.264E-12 -.400E-12
   -.146E-10 -.294E-10 0.373E-10   0.171E-12 -.711E-14 0.178E-13   -.523E-22 0.177E-21 0.321E-22   0.101E-11 -.536E-12 0.424E-13
   0.931E-12 -.644E-11 0.354E-10   0.172E-12 0.000E+00 0.142E-13   0.105E-21 -.250E-21 0.829E-22   0.340E-12 -.114E-11 -.353E-12
   0.935E-07 0.711E-12 0.341E+03   0.670E-14 -.320E-13 -.342E+03   0.155E-17 0.518E-17 0.112E+01   -.823E-13 0.129E-12 -.227E-01
   0.935E-07 -.990E-12 0.341E+03   0.142E-13 -.283E-13 -.342E+03   -.115E-17 -.395E-17 0.112E+01   -.652E-13 0.648E-13 -.227E-01
   0.935E-07 0.102E-11 0.341E+03   0.711E-14 -.255E-13 -.342E+03   0.191E-17 0.386E-17 0.112E+01   0.101E-12 -.844E-13 -.227E-01
   0.935E-07 0.352E-15 0.341E+03   0.155E-13 -.355E-13 -.342E+03   -.194E-17 0.460E-19 0.112E+01   0.967E-13 -.515E-13 -.227E-01
   -.935E-07 0.247E-12 -.341E+03   -.302E-13 -.163E-13 0.342E+03   -.215E-18 -.232E-18 -.112E+01   0.454E-13 -.136E-12 0.227E-01
   -.935E-07 -.564E-12 -.341E+03   -.198E-13 -.424E-14 0.342E+03   0.204E-17 -.184E-17 -.112E+01   0.172E-12 -.355E-13 0.227E-01
   -.935E-07 -.112E-11 -.341E+03   -.229E-13 -.167E-13 0.342E+03   0.158E-17 -.198E-17 -.112E+01   -.203E-12 0.123E-13 0.227E-01
   -.935E-07 0.238E-11 -.341E+03   -.206E-13 -.192E-13 0.342E+03   -.896E-18 0.458E-17 -.112E+01   -.370E-13 0.134E-12 0.227E-01
 -----------------------------------------------------------------------------------------------
   -.179E-10 -.425E-10 0.389E-10   0.187E-14 0.106E-13 -.227E-12   0.287E-17 0.567E-17 0.888E-15   0.810E-12 0.449E-12 -.736E-12
 
 
 POSITION                                       TOTAL-FORCE (eV/Angst)
 -----------------------------------------------------------------------------------
      0.00000      0.00000     -0.00000         0.000000     -0.000000     -0.000000
      2.43307      2.89685     -0.00000         0.000000     -0.000000     -0.000000
      2.43307     -2.89685      0.00000         0.000000     -0.000000     -0.000000
      4.86613     -0.00000     -0.00000         0.000000     -0.000000     -0.000000
      2.43307     -0.00000     -0.00000         0.000000     -0.000000     -0.000000
      4.86613      2.89685     -0.00000         0.000000     -0.000000     -0.000000
      4.86613     -2.89685      0.00000         0.000000     -0.000000     -0.000000
      7.29920     -0.00000     -0.00000         0.000000     -0.000000     -0.000000
      2.43307     -1.44842      4.00022        -0.000000      0.000000      0.019079
      4.86613      1.44842      4.00022         0.000000      0.000000      0.019079
      4.86613     -4.34527      4.00022        -0.000000      0.000000      0.019079
      7.29920     -1.44842      4.00022         0.000000      0.000000      0.019079
      2.43307      1.44842      1.78138         0.000000     -0.000000     -0.019079
      4.86613      4.34527      1.78138        -0.000000     -0.000000     -0.019079
      4.86613     -1.44842      1.78138        -0.000000     -0.000000     -0.019079
      7.29920      1.44842      1.78138         0.000000     -0.000000     -0.019079
 -----------------------------------------------------------------------------------
    total drift:                               -0.000000     -0.000000      0.000000


--------------------------------------------------------------------------------------------------------



  FREE ENERGIE OF THE ION-ELECTRON SYSTEM (eV)
  ---------------------------------------------------
  free  energy   TOTEN  =       -98.21360766 eV

  energy  without entropy=      -98.19449290  energy(sigma->0) =      -98.20405028
 
 d Force =-0.2331648E-04[-0.699E-04, 0.233E-04]  d Energy = 0.3804213E-04-0.614E-04
 d Force = 0.1255060E+01[ 0.125E+01, 0.126E+01]  d Ewald  =-0.4569868E+01 0.582E+01


--------------------------------------------------------------------------------------------------------


    POTLOK:  cpu time      0.3291: real time      0.3303


--------------------------------------------------------------------------------------------------------




--------------------------------------------------------------------------------------------------------


  
 reached required accuracy - stopping structural energy minimisation
     LOOP+:  cpu time    152.3838: real time    153.3379
    4ORBIT:  cpu time      0.0000: real time      0.0000



 total charge

# of ion       s       p       d       tot
------------------------------------------
    1        0.340   6.290   6.050  12.680
    2        0.340   6.290   6.050  12.680
    3        0.340   6.290   6.050  12.680
    4        0.340   6.290   6.050  12.680
    5        0.340   6.290   6.050  12.680
    6        0.340   6.290   6.050  12.680
    7        0.340   6.290   6.050  12.680
    8        0.340   6.290   6.050  12.680
    9        1.486   2.270   0.049   3.805
   10        1.486   2.270   0.049   3.805
   11        1.486   2.270   0.049   3.805
   12        1.486   2.270   0.049   3.805
   13        1.486   2.270   0.049   3.805
   14        1.486   2.270   0.049   3.805
   15        1.486   2.270   0.049   3.805
   16        1.486   2.270   0.049   3.805
--------------------------------------------------
tot         14.604  68.483  48.795 131.882



 magnetization (x)

# of ion       s       p       d       tot
------------------------------------------
    1        0.029   0.012   2.581   2.623
    2       -0.029  -0.012  -2.581  -2.623
    3       -0.029  -0.012  -2.581  -2.623
    4        0.029   0.012   2.581   2.623
    5        0.029   0.012   2.581   2.623
    6       -0.029  -0.012  -2.581  -2.623
    7       -0.029  -0.012  -2.581  -2.623
    8        0.029   0.012   2.581   2.623
    9        0.000   0.000   0.000   0.000
   10        0.000   0.000   0.000   0.000
   11        0.000   0.000   0.000   0.000
   12        0.000   0.000   0.000   0.000
   13        0.000   0.000   0.000   0.000
   14        0.000   0.000   0.000   0.000
   15        0.000   0.000   0.000   0.000
   16        0.000   0.000   0.000   0.000
--------------------------------------------------
tot          0.000   0.000   0.000   0.000
 

 total amount of memory used by VASP MPI-rank0   192708. kBytes
=======================================================================

   base      :      30000. kBytes
   nonlr-proj:      13359. kBytes
   fftplans  :       3084. kBytes
   grid      :      19560. kBytes
   one-center:        497. kBytes
   wavefun   :     126208. kBytes
 
  
  
 General timing and accounting informations for this job:
 ========================================================
  
                  Total CPU time used (sec):     1500.579
                            User time (sec):     1496.628
                          System time (sec):        3.951
                         Elapsed time (sec):     1512.035
  
                   Maximum memory used (kb):      480384.
                   Average memory used (kb):          N/A
  
                          Minor page faults:       445152
                          Major page faults:            0
                 Voluntary context switches:        42506
