 running   20 mpi-ranks, on    5 nodes
 distrk:  each k-point on   20 cores,    1 groups
 distr:  one band on    1 cores,   20 groups
 vasp.6.4.1 05Apr23 (build Jun 01 2023 13:46:15) complex                        
  
 POSCAR found type information on POSCAR FeSe
 POSCAR found :  2 types and      16 ions
 Reading from existing POTCAR
 scaLAPACK will be used
 -----------------------------------------------------------------------------
|                                                                             |
|           W    W    AA    RRRRR   N    N  II  N    N   GGGG   !!!           |
|           W    W   A  A   R    R  NN   N  II  NN   N  G    G  !!!           |
|           W    W  A    A  R    R  N N  N  II  N N  N  G       !!!           |
|           W WW W  AAAAAA  RRRRR   N  N N  II  N  N N  G  GGG   !            |
|           WW  WW  A    A  R   R   N   NN  II  N   NN  G    G                |
|           W    W  A    A  R    R  N    N  II  N    N   GGGG   !!!           |
|                                                                             |
|     For optimal performance we recommend to set                             |
|       NCORE = 2 up to number-of-cores-per-socket                            |
|     NCORE specifies how many cores store one orbital (NPAR=cpu/NCORE).      |
|     This setting can greatly improve the performance of VASP for DFT.       |
|     The default, NCORE=1 might be grossly inefficient on modern             |
|     multi-core architectures or massively parallel machines. Do your        |
|     own testing! More info at https://www.vasp.at/wiki/index.php/NCORE      |
|     Unfortunately you need to use the default for GW and RPA                |
|     calculations (for HF NCORE is supported but not extensively tested      |
|     yet).                                                                   |
|                                                                             |
 -----------------------------------------------------------------------------

 Reading from existing POTCAR
 LDA part: xc-table for Pade appr. of Perdew
 POSCAR, INCAR and KPOINTS ok, starting setup
 FFT: planning ... GRIDC
 FFT: planning ... GRID_SOFT
 FFT: planning ... GRID
 WAVECAR not read
 WARNING: random wavefunctions but no delay for mixing, default for NELMDL
 entering main loop
       N       E                     dE             d eps       ncg     rms          rms(c)
DAV:   1     0.200387334827E+04    0.20039E+04   -0.88985E+04 35640   0.193E+03
DAV:   2     0.122644462606E+03   -0.18812E+04   -0.18278E+04 32000   0.564E+02
DAV:   3    -0.853372077664E+02   -0.20798E+03   -0.18572E+03 46220   0.185E+02
DAV:   4    -0.100013793642E+03   -0.14677E+02   -0.14358E+02 47140   0.510E+01
DAV:   5    -0.100346800052E+03   -0.33301E+00   -0.33224E+00 44380   0.823E+00    0.277E+01
RMM:   6    -0.112913451176E+03   -0.12567E+02   -0.17460E+02 32084   0.854E+01    0.531E+01
RMM:   7    -0.909929751485E+02    0.21920E+02   -0.44444E+01 32025   0.514E+01    0.115E+01
RMM:   8    -0.915727245369E+02   -0.57975E+00   -0.31425E+00 41157   0.507E+00    0.534E+00
RMM:   9    -0.916727619604E+02   -0.10004E+00   -0.92420E-01 44344   0.291E+00    0.290E+00
RMM:  10    -0.916925530576E+02   -0.19791E-01   -0.29071E-01 46246   0.163E+00    0.165E+00
RMM:  11    -0.916925972409E+02   -0.44183E-04   -0.67249E-02 41095   0.112E+00    0.653E-01
RMM:  12    -0.917020736712E+02   -0.94764E-02   -0.22158E-02 42907   0.529E-01    0.371E-01
RMM:  13    -0.917018136344E+02    0.26004E-03   -0.55852E-03 39003   0.247E-01    0.141E-01
RMM:  14    -0.917018442628E+02   -0.30628E-04   -0.16465E-03 28378   0.143E-01
   1 F= -.98189343E+02 E0= -.98180681E+02  d E =-.981893E+02  mag=    -0.0000
 curvature:   0.00 expect dE= 0.000E+00 dE for cont linesearch  0.000E+00
 trial: gam= 0.00000 g(F)=  0.193E-01 g(S)=  0.296E-02 ort = 0.000E+00 (trialstep = 0.100E+01)
 search vector abs. value=  0.223E-01
 bond charge predicted
       N       E                     dE             d eps       ncg     rms          rms(c)
DAV:   1    -0.917267832316E+02   -0.24970E-01   -0.12020E+00 37780   0.368E+00    0.103E+00
RMM:   2    -0.917205012960E+02    0.62819E-02   -0.84510E-02 37467   0.151E+00    0.793E-01
RMM:   3    -0.917172064022E+02    0.32949E-02   -0.32823E-02 33706   0.107E+00    0.530E-01
RMM:   4    -0.917145283442E+02    0.26781E-02   -0.10275E-02 33413   0.558E-01    0.150E-01
RMM:   5    -0.917149300323E+02   -0.40169E-03   -0.38562E-03 32360   0.212E-01    0.106E-01
RMM:   6    -0.917148677341E+02    0.62298E-04   -0.62931E-04 22382   0.126E-01
   2 F= -.98202311E+02 E0= -.98193041E+02  d E =-.129680E-01  mag=    -0.0000
 trial-energy change:   -0.012968  1 .order   -0.013134   -0.022261   -0.004006
 step:   1.2195(harm=  1.2195)  dis= 0.01316  next Energy=   -98.202916 (dE=-0.136E-01)
 bond charge predicted
       N       E                     dE             d eps       ncg     rms          rms(c)
DAV:   1    -0.917158709101E+02   -0.94088E-03   -0.56233E-02 38340   0.796E-01    0.236E-01
RMM:   2    -0.917155097076E+02    0.36120E-03   -0.39063E-03 32981   0.328E-01    0.179E-01
RMM:   3    -0.917153405785E+02    0.16913E-03   -0.16085E-03 28541   0.241E-01
   3 F= -.98202776E+02 E0= -.98193270E+02  d E =-.134330E-01  mag=     0.0000
 curvature:  -0.61 expect dE=-0.192E-03 dE for cont linesearch -0.616E-04
 trial: gam=-0.05323 g(F)=  0.215E-03 g(S)=  0.100E-03 ort = 0.150E-02 (trialstep = 0.104E+01)
 search vector abs. value=  0.218E-03
 reached required accuracy - stopping structural energy minimisation
