       N       E                     dE             d eps       ncg     rms          rms(c)
DAV:   1     0.176161192167E+04    0.17616E+04   -0.83998E+04 43136   0.184E+03
DAV:   2     0.595465615495E+01   -0.17557E+04   -0.16650E+04 43040   0.485E+02
DAV:   3    -0.103214506162E+03   -0.10917E+03   -0.10784E+03 50560   0.129E+02
DAV:   4    -0.104712253056E+03   -0.14977E+01   -0.14974E+01 46016   0.153E+01
DAV:   5    -0.104738694413E+03   -0.26441E-01   -0.26441E-01 52736   0.198E+00    0.429E+01
DAV:   6    -0.112739572206E+03   -0.80009E+01   -0.19773E+02 53088   0.615E+01    0.642E+01
DAV:   7    -0.115247811544E+03   -0.25082E+01   -0.29740E+02 52992   0.638E+01    0.738E+01
DAV:   8    -0.961102480313E+02    0.19138E+02   -0.21120E+02 51904   0.463E+01    0.291E+01
DAV:   9    -0.109601154957E+03   -0.13491E+02   -0.18466E+02 49728   0.476E+01    0.568E+01
DAV:  10    -0.923490461485E+02    0.17252E+02   -0.35665E+01 49728   0.276E+01    0.175E+01
DAV:  11    -0.939905993228E+02   -0.16416E+01   -0.23596E+01 51712   0.180E+01    0.281E+01
DAV:  12    -0.918400415486E+02    0.21506E+01   -0.22350E+01 50656   0.123E+01    0.758E+00
DAV:  13    -0.920068163352E+02   -0.16677E+00   -0.94998E-01 51712   0.322E+00    0.691E+00
DAV:  14    -0.920713589081E+02   -0.64543E-01   -0.11282E-01 52064   0.145E+00    0.628E+00
DAV:  15    -0.922387310782E+02   -0.16737E+00   -0.23210E-01 52544   0.146E+00    0.697E+00
DAV:  16    -0.923518336796E+02   -0.11310E+00   -0.13788E-01 52800   0.128E+00    0.654E+00
DAV:  17    -0.926350020538E+02   -0.28317E+00   -0.11146E+00 51616   0.377E+00    0.457E+00
DAV:  18    -0.927181060639E+02   -0.83104E-01   -0.38464E-01 51200   0.227E+00    0.356E+00
DAV:  19    -0.927769190801E+02   -0.58813E-01   -0.37388E-01 52896   0.195E+00    0.263E+00
DAV:  20    -0.927588662203E+02    0.18053E-01   -0.15573E-01 52768   0.128E+00    0.101E+00
DAV:  21    -0.927604657461E+02   -0.15995E-02   -0.34707E-02 47712   0.692E-01    0.640E-01
DAV:  22    -0.927606856190E+02   -0.21987E-03   -0.44158E-03 55200   0.289E-01    0.371E-01
DAV:  23    -0.927610819516E+02   -0.39633E-03   -0.35369E-03 56448   0.319E-01    0.150E-01
DAV:  24    -0.927610989383E+02   -0.16987E-04   -0.10602E-03 50752   0.174E-01    0.137E-01
DAV:  25    -0.927612810139E+02   -0.18208E-03   -0.61650E-04 49952   0.971E-02    0.586E-02
DAV:  26    -0.927612915732E+02   -0.10559E-04   -0.62236E-05 52352   0.484E-02    0.289E-02
DAV:  27    -0.927612822344E+02    0.93388E-05   -0.68910E-05 51040   0.420E-02    0.244E-02
DAV:  28    -0.927612933278E+02   -0.11093E-04   -0.21650E-05 50528   0.193E-02    0.108E-02
DAV:  29    -0.927612946916E+02   -0.13638E-05   -0.21072E-06 31552   0.640E-03    0.834E-03
DAV:  30    -0.927612966866E+02   -0.19950E-05   -0.10279E-06 30432   0.435E-03    0.535E-03
DAV:  31    -0.927612993989E+02   -0.27123E-05   -0.60571E-07 29440   0.319E-03    0.314E-03
DAV:  32    -0.927613015053E+02   -0.21064E-05   -0.54985E-07 27904   0.283E-03    0.100E-03
DAV:  33    -0.927613028366E+02   -0.13313E-05   -0.11780E-07 26144   0.139E-03    0.408E-04
DAV:  34    -0.927613042762E+02   -0.14396E-05   -0.62241E-08 25440   0.914E-04    0.287E-04
DAV:  35    -0.927613063556E+02   -0.20794E-05   -0.90738E-08 25792   0.107E-03    0.159E-04
DAV:  36    -0.927613086453E+02   -0.22897E-05   -0.98819E-08 26208   0.109E-03    0.170E-04
DAV:  37    -0.927613106746E+02   -0.20293E-05   -0.74388E-08 25248   0.937E-04    0.762E-05
DAV:  38    -0.927613131865E+02   -0.25120E-05   -0.11327E-07 25088   0.116E-03    0.184E-04
DAV:  39    -0.927613150292E+02   -0.18427E-05   -0.66819E-08 24704   0.873E-04    0.582E-05
DAV:  40    -0.927613157929E+02   -0.76366E-06   -0.15284E-08 23808   0.358E-04
   1 F= -.92761316E+02 E0= -.92761316E+02  d E =0.000000E+00  mag=    12.3630
