 vasp.6.4.3 19Mar24 (build Mar 26 2024 14:05:37) complex                        
  
 executed on             LinuxIFC date 2024.12.17  12:34:33
 running  128 mpi-ranks, on    1 nodes
 distrk:  each k-point on   32 cores,    4 groups
 distr:  one band on NCORE=   1 cores,   32 groups


--------------------------------------------------------------------------------------------------------


 INCAR:
   ALGO = Normal
   EDIFF = 1e-06
   EDIFFG = -0.01
   ENCUT = 520
   GGA = Pe
   IBRION = -1
   ISIF = 4
   ISMEAR = -5
   ISPIN = 2
   KPAR = 4
   LCHARG = True
   LORBIT = 11
   LREAL = False
   LWAVE = False
   MAGMOM = 1*-2.05 2*2.394 2*2.158 1*2.492 1*-2.05 2*2.394 2*0.031 1*0.262
   NELM = 200
   NSW = 0
   PREC = Accurate
   SIGMA = 0.2
   SYMPREC = 9.999999999999999e-05

 POTCAR:    PAW_PBE Fe_pv 02Aug2007               
 POTCAR:    PAW_PBE Pt 04Feb2005                  
 -----------------------------------------------------------------------------
|                                                                             |
|           W    W    AA    RRRRR   N    N  II  N    N   GGGG   !!!           |
|           W    W   A  A   R    R  NN   N  II  NN   N  G    G  !!!           |
|           W    W  A    A  R    R  N N  N  II  N N  N  G       !!!           |
|           W WW W  AAAAAA  RRRRR   N  N N  II  N  N N  G  GGG   !            |
|           WW  WW  A    A  R   R   N   NN  II  N   NN  G    G                |
|           W    W  A    A  R    R  N    N  II  N    N   GGGG   !!!           |
|                                                                             |
|     For optimal performance we recommend to set                             |
|       NCORE = 2 up to number-of-cores-per-socket                            |
|     NCORE specifies how many cores store one orbital (NPAR=cpu/NCORE).      |
|     This setting can greatly improve the performance of VASP for DFT.       |
|     The default, NCORE=1 might be grossly inefficient on modern             |
|     multi-core architectures or massively parallel machines. Do your        |
|     own testing! More info at https://www.vasp.at/wiki/index.php/NCORE      |
|     Unfortunately you need to use the default for GW and RPA                |
|     calculations (for HF NCORE is supported but not extensively tested      |
|     yet).                                                                   |
|                                                                             |
 -----------------------------------------------------------------------------

 POTCAR:    PAW_PBE Fe_pv 02Aug2007               
   SHA256 =  5d22e414b1f82158bf2c7ecb8b97b28fd0923e48cadc1c3bf74d524558f5dd32 Fe_pv/POTCAR          
   COPYR  = (c) Copyright 02Aug2007 Georg Kresse                                                    
   COPYR  = This file is part of the software VASP. Any use, copying, and all other rights are regul
   COPYR  = If you do not have a valid VASP license, you may not use, copy or distribute this file. 
   VRHFIN =Fe:  3pd7s1                                                                              
   LEXCH  = PE                                                                                      
   EATOM  =  2457.4239 eV,  180.6156 Ry                                                             
                                                                                                    
   TITEL  = PAW_PBE Fe_pv 02Aug2007                                                                 
   LULTRA =        F    use ultrasoft PP ?                                                          
   IUNSCR =        1    unscreen: 0-lin 1-nonlin 2-no                                               
   RPACOR =    1.750    partial core radius                                                         
   POMASS =   55.847; ZVAL   =   14.000    mass and valenz                                          
   RCORE  =    2.200    outmost cutoff radius                                                       
   RWIGS  =    2.200; RWIGS  =    1.164    wigner-seitz radius (au A)                               
   ENMAX  =  293.238; ENMIN  =  219.928 eV                                                          
   ICORE  =        3    local potential                                                             
   LCOR   =        T    correct aug charges                                                         
   LPAW   =        T    paw PP                                                                      
   EAUG   =  578.342                                                                                
   DEXC   =    0.000                                                                                
   RMAX   =    2.249    core radius for proj-oper                                                   
   RAUG   =    1.300    factor for augmentation sphere                                              
   RDEP   =    2.296    radius for radial grids                                                     
   RDEPT  =    1.766    core radius for aug-charge                                                  
                                                                                                    
   Atomic configuration                                                                             
    8 entries                                                                                       
     n  l   j            E        occ.                                                              
     1  0  0.50     -6993.8440   2.0000                                                             
     2  0  0.50      -814.6047   2.0000                                                             
     2  1  1.50      -693.3689   6.0000                                                             
     3  0  0.50       -89.4732   2.0000                                                             
     3  1  1.50       -55.6373   6.0000                                                             
     3  2  2.50        -3.8151   7.0000                                                             
     4  0  0.50        -4.2551   1.0000                                                             
     4  3  2.50        -1.3606   0.0000                                                             
   Description                                                                                      
     l       E           TYP  RCUT    TYP  RCUT                                                     
     1    -55.6372668     23  2.000                                                                 
     1     -5.4423304     23  2.000                                                                 
     2     -3.8151096     23  2.200                                                                 
     2     -5.1756922     23  2.200                                                                 
     0     -4.2550951     23  2.200                                                                 
     0     27.2116520     23  2.200                                                                 
     3     -1.3605826     23  2.200                                                                 
  local pseudopotential read in
  partial core-charges read in
  partial kinetic energy density read in
  atomic valenz-charges read in
  non local Contribution for L=           1  read in
    real space projection operators read in
  non local Contribution for L=           1  read in
    real space projection operators read in
  non local Contribution for L=           2  read in
    real space projection operators read in
  non local Contribution for L=           2  read in
    real space projection operators read in
  non local Contribution for L=           0  read in
    real space projection operators read in
  non local Contribution for L=           0  read in
    real space projection operators read in
    PAW grid and wavefunctions read in
 
   number of l-projection  operators is LMAX  =           6
   number of lm-projection operators is LMMAX =          18
 
 POTCAR:    PAW_PBE Pt 04Feb2005                  
   SHA256 =  3ed90460adef76debcff1cfb73ee1349b515b1a3db03439735b44de3a8db7dc8 Pt/POTCAR             
   COPYR  = (c) Copyright 04Feb2005 Georg Kresse                                                    
   COPYR  = This file is part of the software VASP. Any use, copying, and all other rights are regul
   COPYR  = If you do not have a valid VASP license, you may not use, copy or distribute this file. 
   VRHFIN =Pt: s1d9                                                                                 
   LEXCH  = PE                                                                                      
   EATOM  =   729.1176 eV,   53.5886 Ry                                                             
                                                                                                    
   TITEL  = PAW_PBE Pt 04Feb2005                                                                    
   LULTRA =        F    use ultrasoft PP ?                                                          
   IUNSCR =        1    unscreen: 0-lin 1-nonlin 2-no                                               
   RPACOR =    2.330    partial core radius                                                         
   POMASS =  195.080; ZVAL   =   10.000    mass and valenz                                          
   RCORE  =    2.600    outmost cutoff radius                                                       
   RWIGS  =    2.750; RWIGS  =    1.455    wigner-seitz radius (au A)                               
   ENMAX  =  230.283; ENMIN  =  172.712 eV                                                          
   ICORE  =        3    local potential                                                             
   LCOR   =        T    correct aug charges                                                         
   LPAW   =        T    paw PP                                                                      
   EAUG   =  358.966                                                                                
   DEXC   =    0.000                                                                                
   RMAX   =    2.658    core radius for proj-oper                                                   
   RAUG   =    1.300    factor for augmentation sphere                                              
   RDEP   =    2.761    radius for radial grids                                                     
   RDEPT  =    2.203    core radius for aug-charge                                                  
                                                                                                    
   Atomic configuration                                                                             
   16 entries                                                                                       
     n  l   j            E        occ.                                                              
     1  0  0.50    -78401.1885   2.0000                                                             
     2  0  0.50    -13770.7750   2.0000                                                             
     2  1  1.50    -11931.0468   6.0000                                                             
     3  0  0.50     -3234.7234   2.0000                                                             
     3  1  1.50     -2699.2216   6.0000                                                             
     3  2  2.50     -2119.5714  10.0000                                                             
     4  0  0.50      -695.1528   2.0000                                                             
     4  1  1.50      -519.6034   6.0000                                                             
     4  2  2.50      -306.6786  10.0000                                                             
     4  3  3.50       -70.1041  14.0000                                                             
     5  0  0.50      -101.7747   2.0000                                                             
     5  1  1.50       -55.9873   6.0000                                                             
     5  2  2.50        -6.1423   9.0000                                                             
     6  0  0.50        -5.6573   1.0000                                                             
     6  1  1.50        -6.8029   0.0000                                                             
     5  3  2.50        -1.3606   0.0000                                                             
   Description                                                                                      
     l       E           TYP  RCUT    TYP  RCUT                                                     
     2     -6.1423404     23  2.500                                                                 
     2     -7.5029230     23  2.500                                                                 
     0     -5.6573207     23  2.500                                                                 
     0      0.7416693     23  2.500                                                                 
     1     -2.7211652     23  2.600                                                                 
     1     20.4087390     23  2.600                                                                 
     3     -1.3605826     23  2.500                                                                 
  local pseudopotential read in
  partial core-charges read in
  partial kinetic energy density read in
  atomic valenz-charges read in
  non local Contribution for L=           2  read in
    real space projection operators read in
  non local Contribution for L=           2  read in
    real space projection operators read in
  non local Contribution for L=           0  read in
    real space projection operators read in
  non local Contribution for L=           0  read in
    real space projection operators read in
  non local Contribution for L=           1  read in
    real space projection operators read in
  non local Contribution for L=           1  read in
    real space projection operators read in
    PAW grid and wavefunctions read in
 
   number of l-projection  operators is LMAX  =           6
   number of lm-projection operators is LMMAX =          18
 
  PAW_PBE Fe_pv 02Aug2007               :
 energy of atom  1       EATOM=-2457.4239
 kinetic energy error for atom=    0.0062 (will be added to EATOM!!)
  PAW_PBE Pt 04Feb2005                  :
 energy of atom  2       EATOM= -729.1176
 kinetic energy error for atom=    0.0032 (will be added to EATOM!!)
 
 
 POSCAR: Fe9 Pt3
  positions in direct lattice
  velocities in cartesian coordinates


 exchange-correlation table for PE
   RHO(1)=    0.500       N(1)  =     2000
   RHO(2)=  100.500       N(2)  =     4000
 


--------------------------------------------------------------------------------------------------------


 ion  position               nearest neighbor table
   1  0.000  0.500  0.167-  11 2.53  11 2.53  10 2.53  10 2.53   7 2.55   7 2.55   7 2.55   7 2.55
                             4 2.58   4 2.58   5 2.58   5 2.58
   2  0.000  0.500  0.499-   5 2.53   5 2.53   8 2.55   8 2.55   8 2.55   8 2.55   6 2.57   6 2.57
                            12 2.57  12 2.57  11 2.58  11 2.58
   3  0.000  0.500  0.835-   4 2.53   4 2.53   9 2.55   9 2.55   9 2.55   9 2.55  12 2.57  12 2.57
                             6 2.57   6 2.57  10 2.58  10 2.58
   4  0.500  0.500  0.997-   9 2.53   9 2.53   3 2.53   3 2.53  10 2.55  10 2.55  10 2.55  10 2.55
                             1 2.58   1 2.58   7 2.58   7 2.58
   5  0.500  0.500  0.336-   8 2.53   8 2.53   2 2.53   2 2.53  11 2.55  11 2.55  11 2.55  11 2.55
                             1 2.58   1 2.58   7 2.58   7 2.58
   6  0.500  0.500  0.667-  12 2.55  12 2.55  12 2.55  12 2.55   2 2.57   2 2.57   3 2.57   3 2.57
                             8 2.57   8 2.57   9 2.57   9 2.57
   7  0.500  0.000  0.167-  11 2.53  11 2.53  10 2.53  10 2.53   1 2.55   1 2.55   1 2.55   1 2.55
                             4 2.58   4 2.58   5 2.58   5 2.58
   8  0.500  0.000  0.499-   5 2.53   5 2.53   2 2.55   2 2.55   2 2.55   2 2.55   6 2.57   6 2.57
                            12 2.57  12 2.57  11 2.58  11 2.58
   9  0.500  0.000  0.835-   4 2.53   4 2.53   3 2.55   3 2.55   3 2.55   3 2.55  12 2.57  12 2.57
                             6 2.57   6 2.57  10 2.58  10 2.58
  10  0.000  0.000  0.004-   7 2.53   7 2.53   1 2.53   1 2.53   4 2.55   4 2.55   4 2.55   4 2.55
                             9 2.58   9 2.58   3 2.58   3 2.58
  11  0.000  0.000  0.329-   7 2.53   7 2.53   1 2.53   1 2.53   5 2.55   5 2.55   5 2.55   5 2.55
                             8 2.58   8 2.58   2 2.58   2 2.58
  12  0.000  0.000  0.667-   6 2.55   6 2.55   6 2.55   6 2.55   3 2.57   3 2.57   9 2.57   9 2.57
                             2 2.57   2 2.57   8 2.57   8 2.57
 
  LATTYP: Found a simple tetragonal cell.
 ALAT       =     3.6094984168
 C/A-ratio  =     3.0194922011
  
  Lattice vectors:
  
 A1 = (   3.6094984168,   0.0000000000,   0.0000000000)
 A2 = (   0.0000000000,   3.6096136546,   0.0000000000)
 A3 = (   0.0000000000,   0.0000000000,  10.8988523194)


Analysis of symmetry for initial positions (statically):
=====================================================================
 Subroutine PRICEL returns:
 Original cell was already a primitive cell.
 

 Routine SETGRP: Setting up the symmetry group for a 
 simple tetragonal supercell.


 Subroutine GETGRP returns: Found 16 space group operations
 (whereof  8 operations were pure point group operations)
 out of a pool of 16 trial point group operations.


The static configuration has the point symmetry C_4v.
 The point group associated with its full space group is D_4h.


Analysis of symmetry for dynamics (positions and initial velocities):
=====================================================================
 Subroutine PRICEL returns:
 Original cell was already a primitive cell.
 

 Routine SETGRP: Setting up the symmetry group for a 
 simple tetragonal supercell.


 Subroutine GETGRP returns: Found 16 space group operations
 (whereof  8 operations were pure point group operations)
 out of a pool of 16 trial point group operations.


The dynamic configuration has the point symmetry C_4v.
 The point group associated with its full space group is D_4h.


Analysis of structural, dynamic, and magnetic symmetry:
=====================================================================
 Subroutine PRICEL returns:
 Original cell was already a primitive cell.
 

 Routine SETGRP: Setting up the symmetry group for a 
 simple tetragonal supercell.


 Subroutine GETGRP returns: Found 16 space group operations
 (whereof  8 operations were pure point group operations)
 out of a pool of 16 trial point group operations.


The overall configuration has the point symmetry C_4v.
 The point group associated with its full space group is D_4h.


 Subroutine INISYM returns: Found 16 space group operations
 (whereof  8 operations are pure point group operations),
 and found     1 'primitive' translations


----------------------------------------------------------------------------------------

                                     Primitive cell                                     

  volume of cell :     142.0000

  direct lattice vectors                    reciprocal lattice vectors
     3.609498417  0.000000000  0.000000000     0.277046804  0.000000000  0.000000000
     0.000000000  3.609613655  0.000000000     0.000000000  0.277037959  0.000000000
     0.000000000  0.000000000 10.898852319     0.000000000  0.000000000  0.091752780

  length of vectors
     3.609498417  3.609613655 10.898852319     0.277046804  0.277037959  0.091752780

  position of ions in fractional coordinates (direct lattice)
     0.000000000  0.500000000  0.166660318
     0.000000000  0.500000000  0.498704014
     0.000000000  0.500000000  0.834634720
     0.500000000  0.500000000  0.997277742
     0.500000000  0.500000000  0.336069455
     0.500000000  0.500000000  0.666664342
     0.500000000  0.000000000  0.166660235
     0.500000000  0.000000000  0.498695498
     0.500000000  0.000000000  0.834643302
     0.000000000  0.000000000  0.003832762
     0.000000000  0.000000000  0.329486294
     0.000000000  0.000000000  0.666671319

  ion indices of the primitive-cell ions
   primitive index   ion index
                 1           1
                 2           2
                 3           3
                 4           4
                 5           5
                 6           6
                 7           7
                 8           8
                 9           9
                10          10
                11          11
                12          12

----------------------------------------------------------------------------------------

 
 
 KPOINTS: pymatgen with grid density = 8800 / numb

Automatic generation of k-mesh.
 Grid dimensions read from file:
 generate k-points for:   13   13    4

 Generating k-lattice:

  Cartesian coordinates                     Fractional coordinates (reciprocal lattice)
     0.021311293  0.000000000  0.000000000     0.076923077  0.000000000  0.000000000
     0.000000000  0.021310612  0.000000000     0.000000000  0.076923077  0.000000000
     0.000000000  0.000000000  0.022938195     0.000000000  0.000000000  0.250000000

  Length of vectors
     0.021311293  0.021310612  0.022938195

  Shift w.r.t. Gamma in fractional coordinates (k-lattice)
     0.000000000  0.000000000  0.000000000

 TETIRR: Found   1010 inequivalent tetrahedra from     4056
 
 Subroutine IBZKPT returns following result:
 ===========================================
 
 Found     84 irreducible k-points:
 
 Following reciprocal coordinates:
            Coordinates               Weight
  0.000000  0.000000  0.000000      1.000000
  0.076923  0.000000  0.000000      4.000000
  0.153846  0.000000  0.000000      4.000000
  0.230769  0.000000  0.000000      4.000000
  0.307692  0.000000  0.000000      4.000000
  0.384615  0.000000  0.000000      4.000000
  0.461538  0.000000  0.000000      4.000000
  0.076923  0.076923  0.000000      4.000000
  0.153846  0.076923  0.000000      8.000000
  0.230769  0.076923  0.000000      8.000000
  0.307692  0.076923  0.000000      8.000000
  0.384615  0.076923  0.000000      8.000000
  0.461538  0.076923  0.000000      8.000000
  0.153846  0.153846  0.000000      4.000000
  0.230769  0.153846  0.000000      8.000000
  0.307692  0.153846  0.000000      8.000000
  0.384615  0.153846  0.000000      8.000000
  0.461538  0.153846  0.000000      8.000000
  0.230769  0.230769  0.000000      4.000000
  0.307692  0.230769  0.000000      8.000000
  0.384615  0.230769  0.000000      8.000000
  0.461538  0.230769  0.000000      8.000000
  0.307692  0.307692  0.000000      4.000000
  0.384615  0.307692  0.000000      8.000000
  0.461538  0.307692  0.000000      8.000000
  0.384615  0.384615  0.000000      4.000000
  0.461538  0.384615  0.000000      8.000000
  0.461538  0.461538  0.000000      4.000000
  0.000000  0.000000  0.250000      2.000000
  0.076923  0.000000  0.250000      8.000000
  0.153846  0.000000  0.250000      8.000000
  0.230769  0.000000  0.250000      8.000000
  0.307692  0.000000  0.250000      8.000000
  0.384615  0.000000  0.250000      8.000000
  0.461538  0.000000  0.250000      8.000000
  0.076923  0.076923  0.250000      8.000000
  0.153846  0.076923  0.250000     16.000000
  0.230769  0.076923  0.250000     16.000000
  0.307692  0.076923  0.250000     16.000000
  0.384615  0.076923  0.250000     16.000000
  0.461538  0.076923  0.250000     16.000000
  0.153846  0.153846  0.250000      8.000000
  0.230769  0.153846  0.250000     16.000000
  0.307692  0.153846  0.250000     16.000000
  0.384615  0.153846  0.250000     16.000000
  0.461538  0.153846  0.250000     16.000000
  0.230769  0.230769  0.250000      8.000000
  0.307692  0.230769  0.250000     16.000000
  0.384615  0.230769  0.250000     16.000000
  0.461538  0.230769  0.250000     16.000000
  0.307692  0.307692  0.250000      8.000000
  0.384615  0.307692  0.250000     16.000000
  0.461538  0.307692  0.250000     16.000000
  0.384615  0.384615  0.250000      8.000000
  0.461538  0.384615  0.250000     16.000000
  0.461538  0.461538  0.250000      8.000000
  0.000000  0.000000  0.500000      1.000000
  0.076923  0.000000  0.500000      4.000000
  0.153846  0.000000  0.500000      4.000000
  0.230769  0.000000  0.500000      4.000000
  0.307692  0.000000  0.500000      4.000000
  0.384615  0.000000  0.500000      4.000000
  0.461538  0.000000  0.500000      4.000000
  0.076923  0.076923  0.500000      4.000000
  0.153846  0.076923  0.500000      8.000000
  0.230769  0.076923  0.500000      8.000000
  0.307692  0.076923  0.500000      8.000000
  0.384615  0.076923  0.500000      8.000000
  0.461538  0.076923  0.500000      8.000000
  0.153846  0.153846  0.500000      4.000000
  0.230769  0.153846  0.500000      8.000000
  0.307692  0.153846  0.500000      8.000000
  0.384615  0.153846  0.500000      8.000000
  0.461538  0.153846  0.500000      8.000000
  0.230769  0.230769  0.500000      4.000000
  0.307692  0.230769  0.500000      8.000000
  0.384615  0.230769  0.500000      8.000000
  0.461538  0.230769  0.500000      8.000000
  0.307692  0.307692  0.500000      4.000000
  0.384615  0.307692  0.500000      8.000000
  0.461538  0.307692  0.500000      8.000000
  0.384615  0.384615  0.500000      4.000000
  0.461538  0.384615  0.500000      8.000000
  0.461538  0.461538  0.500000      4.000000
 
 Following cartesian coordinates:
            Coordinates               Weight
  0.000000  0.000000  0.000000      1.000000
  0.021311  0.000000  0.000000      4.000000
  0.042623  0.000000  0.000000      4.000000
  0.063934  0.000000  0.000000      4.000000
  0.085245  0.000000  0.000000      4.000000
  0.106556  0.000000  0.000000      4.000000
  0.127868  0.000000  0.000000      4.000000
  0.021311  0.021311  0.000000      4.000000
  0.042623  0.021311  0.000000      8.000000
  0.063934  0.021311  0.000000      8.000000
  0.085245  0.021311  0.000000      8.000000
  0.106556  0.021311  0.000000      8.000000
  0.127868  0.021311  0.000000      8.000000
  0.042623  0.042621  0.000000      4.000000
  0.063934  0.042621  0.000000      8.000000
  0.085245  0.042621  0.000000      8.000000
  0.106556  0.042621  0.000000      8.000000
  0.127868  0.042621  0.000000      8.000000
  0.063934  0.063932  0.000000      4.000000
  0.085245  0.063932  0.000000      8.000000
  0.106556  0.063932  0.000000      8.000000
  0.127868  0.063932  0.000000      8.000000
  0.085245  0.085242  0.000000      4.000000
  0.106556  0.085242  0.000000      8.000000
  0.127868  0.085242  0.000000      8.000000
  0.106556  0.106553  0.000000      4.000000
  0.127868  0.106553  0.000000      8.000000
  0.127868  0.127864  0.000000      4.000000
  0.000000  0.000000  0.022938      2.000000
  0.021311  0.000000  0.022938      8.000000
  0.042623  0.000000  0.022938      8.000000
  0.063934  0.000000  0.022938      8.000000
  0.085245  0.000000  0.022938      8.000000
  0.106556  0.000000  0.022938      8.000000
  0.127868  0.000000  0.022938      8.000000
  0.021311  0.021311  0.022938      8.000000
  0.042623  0.021311  0.022938     16.000000
  0.063934  0.021311  0.022938     16.000000
  0.085245  0.021311  0.022938     16.000000
  0.106556  0.021311  0.022938     16.000000
  0.127868  0.021311  0.022938     16.000000
  0.042623  0.042621  0.022938      8.000000
  0.063934  0.042621  0.022938     16.000000
  0.085245  0.042621  0.022938     16.000000
  0.106556  0.042621  0.022938     16.000000
  0.127868  0.042621  0.022938     16.000000
  0.063934  0.063932  0.022938      8.000000
  0.085245  0.063932  0.022938     16.000000
  0.106556  0.063932  0.022938     16.000000
  0.127868  0.063932  0.022938     16.000000
  0.085245  0.085242  0.022938      8.000000
  0.106556  0.085242  0.022938     16.000000
  0.127868  0.085242  0.022938     16.000000
  0.106556  0.106553  0.022938      8.000000
  0.127868  0.106553  0.022938     16.000000
  0.127868  0.127864  0.022938      8.000000
  0.000000  0.000000  0.045876      1.000000
  0.021311  0.000000  0.045876      4.000000
  0.042623  0.000000  0.045876      4.000000
  0.063934  0.000000  0.045876      4.000000
  0.085245  0.000000  0.045876      4.000000
  0.106556  0.000000  0.045876      4.000000
  0.127868  0.000000  0.045876      4.000000
  0.021311  0.021311  0.045876      4.000000
  0.042623  0.021311  0.045876      8.000000
  0.063934  0.021311  0.045876      8.000000
  0.085245  0.021311  0.045876      8.000000
  0.106556  0.021311  0.045876      8.000000
  0.127868  0.021311  0.045876      8.000000
  0.042623  0.042621  0.045876      4.000000
  0.063934  0.042621  0.045876      8.000000
  0.085245  0.042621  0.045876      8.000000
  0.106556  0.042621  0.045876      8.000000
  0.127868  0.042621  0.045876      8.000000
  0.063934  0.063932  0.045876      4.000000
  0.085245  0.063932  0.045876      8.000000
  0.106556  0.063932  0.045876      8.000000
  0.127868  0.063932  0.045876      8.000000
  0.085245  0.085242  0.045876      4.000000
  0.106556  0.085242  0.045876      8.000000
  0.127868  0.085242  0.045876      8.000000
  0.106556  0.106553  0.045876      4.000000
  0.127868  0.106553  0.045876      8.000000
  0.127868  0.127864  0.045876      4.000000
 


--------------------------------------------------------------------------------------------------------




 Dimension of arrays:
   k-points           NKPTS =     84   k-points in BZ     NKDIM =     84   number of bands    NBANDS=    128
   number of dos      NEDOS =    301   number of ions     NIONS =     12
   non local maximal  LDIM  =      6   non local SUM 2l+1 LMDIM =     18
   total plane-waves  NPLWV =  65856
   max r-space proj   IRMAX =      1   max aug-charges    IRDMAX=  28286
   dimension x,y,z NGX =    28 NGY =   28 NGZ =   84
   dimension x,y,z NGXF=    56 NGYF=   56 NGZF=  168
   support grid    NGXF=    56 NGYF=   56 NGZF=  168
   ions per type =               9   3
   NGX,Y,Z   is equivalent  to a cutoff of  12.90, 12.90, 12.81 a.u.
   NGXF,Y,Z  is equivalent  to a cutoff of  25.79, 25.79, 25.63 a.u.

 SYSTEM =  unknown system                          
 POSCAR =  Fe9 Pt3                                 

 Startparameter for this run:
   NWRITE =      2    write-flag & timer
   PREC   = accura    normal or accurate (medium, high low for compatibility)
   ISTART =      0    job   : 0-new  1-cont  2-samecut
   ICHARG =      2    charge: 1-file 2-atom 10-const
   ISPIN  =      2    spin polarized calculation?
   LNONCOLLINEAR =      F non collinear calculations
   LSORBIT =      F    spin-orbit coupling
   INIWAV =      1    electr: 0-lowe 1-rand  2-diag
   LASPH  =      F    aspherical Exc in radial PAW
 Electronic Relaxation 1
   ENCUT  =  520.0 eV  38.22 Ry    6.18 a.u.   6.71  6.71 20.26*2*pi/ulx,y,z
   ENINI  =  520.0     initial cutoff
   ENAUG  =  578.3 eV  augmentation charge cutoff
   NELM   =    200;   NELMIN=  2; NELMDL=  0     # of ELM steps 
   EDIFF  = 0.1E-05   stopping-criterion for ELM
   LREAL  =      F    real-space projection
   NLSPLINE    = F    spline interpolate recip. space projectors
   LCOMPAT=      F    compatible to vasp.4.4
   GGA_COMPAT  = T    GGA compatible to vasp.4.4-vasp.4.6
   LMAXPAW     = -100 max onsite density
   LMAXMIX     =    2 max onsite mixed and CHGCAR
   VOSKOWN=      0    Vosko Wilk Nusair interpolation
   ROPT   =    0.00000   0.00000
 Ionic relaxation
   EDIFFG = -.1E-01   stopping-criterion for IOM
   NSW    =      0    number of steps for IOM
   NBLOCK =      1;   KBLOCK =      1    inner block; outer block 
   IBRION =     -1    ionic relax: 0-MD 1-quasi-New 2-CG
   NFREE  =      0    steps in history (QN), initial steepest desc. (CG)
   ISIF   =      4    stress and relaxation
   IWAVPR =     10    prediction:  0-non 1-charg 2-wave 3-comb
   ISYM   =      2    0-nonsym 1-usesym 2-fastsym
   LCORR  =      T    Harris-Foulkes like correction to forces

   POTIM  = 0.5000    time-step for ionic-motion
   TEIN   =    0.0    initial temperature
   TEBEG  =    0.0;   TEEND  =   0.0 temperature during run
   SMASS  =  -3.00    Nose mass-parameter (am)
   estimated Nose-frequenzy (Omega)   =  0.10E-29 period in steps = 0.13E+47 mass=  -0.298E-27a.u.
   SCALEE = 1.0000    scale energy and forces
   NPACO  =    256;   APACO  = 10.0  distance and # of slots for P.C.
   PSTRESS=    0.0 pullay stress

  Mass of Ions in am
   POMASS =  55.85195.08
  Ionic Valenz
   ZVAL   =  14.00 10.00
  Atomic Wigner-Seitz radii
   RWIGS  =  -1.00 -1.00
  virtual crystal weights 
   VCA    =   1.00  1.00
   NELECT =     156.0000    total number of electrons
   NUPDOWN=      -1.0000    fix difference up-down

 DOS related values:
   EMIN   =  10.00;   EMAX   =-10.00  energy-range for DOS
   EFERMI =   0.00;   METHOD = LEGACY      
   ISMEAR =    -5;   SIGMA  =   0.20  broadening in eV -4-tet -1-fermi 0-gaus

 Electronic relaxation 2 (details)
   IALGO  =     38    algorithm
   LDIAG  =      T    sub-space diagonalisation (order eigenvalues)
   LSUBROT=      F    optimize rotation matrix (better conditioning)
   TURBO    =      0    0=normal 1=particle mesh
   IRESTART =      0    0=no restart 2=restart with 2 vectors
   NREBOOT  =      0    no. of reboots
   NMIN     =      0    reboot dimension
   EREF     =   0.00    reference energy to select bands
   IMIX   =      4    mixing-type and parameters
     AMIX     =   0.40;   BMIX     =  1.00
     AMIX_MAG =   1.60;   BMIX_MAG =  1.00
     AMIN     =   0.10
     WC   =   100.;   INIMIX=   1;  MIXPRE=   1;  MAXMIX= -45

 Intra band minimization:
   WEIMIN = 0.0000     energy-eigenvalue tresh-hold
   EBREAK =  0.20E-08  absolut break condition
   DEPER  =   0.30     relativ break condition  

   TIME   =   0.40     timestep for ELM

  volume/ion in A,a.u.               =      11.83        79.86
  Fermi-wavevector in a.u.,A,eV,Ry     =   1.689223  3.192168 38.823863  2.853473
  Thomas-Fermi vector in A             =   2.771388
 
 Write flags
   LWAVE        =      F    write WAVECAR
   LDOWNSAMPLE  =      F    k-point downsampling of WAVECAR
   LCHARG       =      T    write CHGCAR
   LVTOT        =      F    write LOCPOT, total local potential
   LVHAR        =      F    write LOCPOT, Hartree potential only
   WRT_POTENTIAL= false  ! write potential to hdf5 file
   LELF         =      F    write electronic localiz. function (ELF)
   LORBIT       =     11    0 simple, 1 ext, 2 COOP (PROOUT), +10 PAW based schemes


 Dipole corrections
   LMONO      =      F    monopole corrections only (constant potential shift)
   LDIPOL     =      F    correct potential (dipole corrections)
   IDIPOL     =      0    1-x, 2-y, 3-z, 4-all directions 
   EPSILON    =  1.0000000 bulk dielectric constant
   LVACPOTAV  =      F  vacuum potentials using an averaging scheme for the charge density
   VACPOTFLAT =  0.1000000 required flatness to determine vacuum potential
 Exchange correlation treatment:
   GGA     = PE    functional components
   XC_C    = 1    coefficients multiplying the functional components
   LIBXC   =     F    Libxc                    
   VOSKOWN =     0    Vosko Wilk Nusair interpolation
   LHFCALC =     F    Hartree Fock is set to
   LHFONE  =     F    Hartree Fock one center treatment
   AEXX    =    0.0000 exact exchange contribution

 Parameters of functionals:
   PE:
     No parameter
 
 Van der Waals corrections
   IVDW    =     0    specifies the selected vdW correction

 Linear response parameters
   LEPSILON=     F    determine dielectric tensor
   LRPA    =     F    only Hartree local field effects (RPA)
   LNABLA  =     F    use nabla operator in PAW spheres
   LVEL    =     F    velocity operator in full k-point grid
   CSHIFT  =0.1000    complex shift for real part using Kramers Kronig
   OMEGAMAX=  -1.0    maximum frequency
   DEG_THRESHOLD= 0.2000000E-02 threshold for treating states as degnerate
   RTIME   =   -0.100 relaxation time in fs
  (WPLASMAI=    0.000 imaginary part of plasma frequency in eV, 0.658/RTIME)
   DFIELD  = 0.0000000 0.0000000 0.0000000 field for delta impulse in time
 
  Optional k-point grid parameters
   LKPOINTS_OPT  =     F    use optional k-point grid
   KPOINTS_OPT_MODE=     1    mode for optional k-point grid
 
 Orbital magnetization related:
   ORBITALMAG=     F  switch on orbital magnetization
   LCHIMAG   =     F  perturbation theory with respect to B field
   DQ        =  0.001000  dq finite difference perturbation B field
   LLRAUG    =     F  two centre corrections for induced B field
   LBONE     =     F  B-component reconstruction in AE one-centre
   LVGVCALC  =     T  calculate vGv susceptibility
   LVGVAPPL  =     F  apply vGv susceptibility instead of pGv for G=0

 Random number generation:
   RANDOM_GENERATOR = DEFAULT
   PCG_SEED         = not used


--------------------------------------------------------------------------------------------------------


 Static calculation
 charge density and potential will be updated during run
 spin polarized calculation
 Variant of blocked Davidson
 Davidson routine will perform the subspace rotation
 perform sub-space diagonalisation
    after iterative eigenvector-optimisation
 modified Broyden-mixing scheme, WC =      100.0
 initial mixing is a Kerker type mixing with AMIX =  0.4000 and BMIX =      1.0000
 Hartree-type preconditioning will be used
 using additional bands           50
 reciprocal scheme for non local part
 use partial core corrections
 calculate Harris-corrections to forces 
   (improved forces if not selfconsistent)
 use gradient corrections 
 use of overlap-Matrix (Vanderbilt PP)
 Fermi weights with tetrahedron method with Bloechl corrections


--------------------------------------------------------------------------------------------------------


  energy-cutoff  :      520.00
  volume of cell :      142.00
      direct lattice vectors                 reciprocal lattice vectors
     3.609498417  0.000000000  0.000000000     0.277046804  0.000000000  0.000000000
     0.000000000  3.609613655  0.000000000     0.000000000  0.277037959  0.000000000
     0.000000000  0.000000000 10.898852319     0.000000000  0.000000000  0.091752780

  length of vectors
     3.609498417  3.609613655 10.898852319     0.277046804  0.277037959  0.091752780


 
 k-points in units of 2pi/SCALE and weight: pymatgen with grid density = 8800 / numb
   0.00000000  0.00000000  0.00000000       0.001
   0.02131129  0.00000000  0.00000000       0.006
   0.04262259  0.00000000  0.00000000       0.006
   0.06393388  0.00000000  0.00000000       0.006
   0.08524517  0.00000000  0.00000000       0.006
   0.10655646  0.00000000  0.00000000       0.006
   0.12786776  0.00000000  0.00000000       0.006
   0.02131129  0.02131061  0.00000000       0.006
   0.04262259  0.02131061  0.00000000       0.012
   0.06393388  0.02131061  0.00000000       0.012
   0.08524517  0.02131061  0.00000000       0.012
   0.10655646  0.02131061  0.00000000       0.012
   0.12786776  0.02131061  0.00000000       0.012
   0.04262259  0.04262122  0.00000000       0.006
   0.06393388  0.04262122  0.00000000       0.012
   0.08524517  0.04262122  0.00000000       0.012
   0.10655646  0.04262122  0.00000000       0.012
   0.12786776  0.04262122  0.00000000       0.012
   0.06393388  0.06393184  0.00000000       0.006
   0.08524517  0.06393184  0.00000000       0.012
   0.10655646  0.06393184  0.00000000       0.012
   0.12786776  0.06393184  0.00000000       0.012
   0.08524517  0.08524245  0.00000000       0.006
   0.10655646  0.08524245  0.00000000       0.012
   0.12786776  0.08524245  0.00000000       0.012
   0.10655646  0.10655306  0.00000000       0.006
   0.12786776  0.10655306  0.00000000       0.012
   0.12786776  0.12786367  0.00000000       0.006
   0.00000000  0.00000000  0.02293820       0.003
   0.02131129  0.00000000  0.02293820       0.012
   0.04262259  0.00000000  0.02293820       0.012
   0.06393388  0.00000000  0.02293820       0.012
   0.08524517  0.00000000  0.02293820       0.012
   0.10655646  0.00000000  0.02293820       0.012
   0.12786776  0.00000000  0.02293820       0.012
   0.02131129  0.02131061  0.02293820       0.012
   0.04262259  0.02131061  0.02293820       0.024
   0.06393388  0.02131061  0.02293820       0.024
   0.08524517  0.02131061  0.02293820       0.024
   0.10655646  0.02131061  0.02293820       0.024
   0.12786776  0.02131061  0.02293820       0.024
   0.04262259  0.04262122  0.02293820       0.012
   0.06393388  0.04262122  0.02293820       0.024
   0.08524517  0.04262122  0.02293820       0.024
   0.10655646  0.04262122  0.02293820       0.024
   0.12786776  0.04262122  0.02293820       0.024
   0.06393388  0.06393184  0.02293820       0.012
   0.08524517  0.06393184  0.02293820       0.024
   0.10655646  0.06393184  0.02293820       0.024
   0.12786776  0.06393184  0.02293820       0.024
   0.08524517  0.08524245  0.02293820       0.012
   0.10655646  0.08524245  0.02293820       0.024
   0.12786776  0.08524245  0.02293820       0.024
   0.10655646  0.10655306  0.02293820       0.012
   0.12786776  0.10655306  0.02293820       0.024
   0.12786776  0.12786367  0.02293820       0.012
   0.00000000  0.00000000  0.04587639       0.001
   0.02131129  0.00000000  0.04587639       0.006
   0.04262259  0.00000000  0.04587639       0.006
   0.06393388  0.00000000  0.04587639       0.006
   0.08524517  0.00000000  0.04587639       0.006
   0.10655646  0.00000000  0.04587639       0.006
   0.12786776  0.00000000  0.04587639       0.006
   0.02131129  0.02131061  0.04587639       0.006
   0.04262259  0.02131061  0.04587639       0.012
   0.06393388  0.02131061  0.04587639       0.012
   0.08524517  0.02131061  0.04587639       0.012
   0.10655646  0.02131061  0.04587639       0.012
   0.12786776  0.02131061  0.04587639       0.012
   0.04262259  0.04262122  0.04587639       0.006
   0.06393388  0.04262122  0.04587639       0.012
   0.08524517  0.04262122  0.04587639       0.012
   0.10655646  0.04262122  0.04587639       0.012
   0.12786776  0.04262122  0.04587639       0.012
   0.06393388  0.06393184  0.04587639       0.006
   0.08524517  0.06393184  0.04587639       0.012
   0.10655646  0.06393184  0.04587639       0.012
   0.12786776  0.06393184  0.04587639       0.012
   0.08524517  0.08524245  0.04587639       0.006
   0.10655646  0.08524245  0.04587639       0.012
   0.12786776  0.08524245  0.04587639       0.012
   0.10655646  0.10655306  0.04587639       0.006
   0.12786776  0.10655306  0.04587639       0.012
   0.12786776  0.12786367  0.04587639       0.006
 
 k-points in reciprocal lattice and weights: pymatgen with grid density = 8800 / numb
   0.00000000  0.00000000  0.00000000       0.001
   0.07692308  0.00000000  0.00000000       0.006
   0.15384615  0.00000000  0.00000000       0.006
   0.23076923  0.00000000  0.00000000       0.006
   0.30769231  0.00000000  0.00000000       0.006
   0.38461538  0.00000000  0.00000000       0.006
   0.46153846  0.00000000  0.00000000       0.006
   0.07692308  0.07692308  0.00000000       0.006
   0.15384615  0.07692308  0.00000000       0.012
   0.23076923  0.07692308  0.00000000       0.012
   0.30769231  0.07692308  0.00000000       0.012
   0.38461538  0.07692308  0.00000000       0.012
   0.46153846  0.07692308  0.00000000       0.012
   0.15384615  0.15384615  0.00000000       0.006
   0.23076923  0.15384615  0.00000000       0.012
   0.30769231  0.15384615  0.00000000       0.012
   0.38461538  0.15384615  0.00000000       0.012
   0.46153846  0.15384615  0.00000000       0.012
   0.23076923  0.23076923  0.00000000       0.006
   0.30769231  0.23076923  0.00000000       0.012
   0.38461538  0.23076923  0.00000000       0.012
   0.46153846  0.23076923  0.00000000       0.012
   0.30769231  0.30769231  0.00000000       0.006
   0.38461538  0.30769231  0.00000000       0.012
   0.46153846  0.30769231  0.00000000       0.012
   0.38461538  0.38461538  0.00000000       0.006
   0.46153846  0.38461538  0.00000000       0.012
   0.46153846  0.46153846  0.00000000       0.006
   0.00000000  0.00000000  0.25000000       0.003
   0.07692308  0.00000000  0.25000000       0.012
   0.15384615  0.00000000  0.25000000       0.012
   0.23076923  0.00000000  0.25000000       0.012
   0.30769231  0.00000000  0.25000000       0.012
   0.38461538  0.00000000  0.25000000       0.012
   0.46153846  0.00000000  0.25000000       0.012
   0.07692308  0.07692308  0.25000000       0.012
   0.15384615  0.07692308  0.25000000       0.024
   0.23076923  0.07692308  0.25000000       0.024
   0.30769231  0.07692308  0.25000000       0.024
   0.38461538  0.07692308  0.25000000       0.024
   0.46153846  0.07692308  0.25000000       0.024
   0.15384615  0.15384615  0.25000000       0.012
   0.23076923  0.15384615  0.25000000       0.024
   0.30769231  0.15384615  0.25000000       0.024
   0.38461538  0.15384615  0.25000000       0.024
   0.46153846  0.15384615  0.25000000       0.024
   0.23076923  0.23076923  0.25000000       0.012
   0.30769231  0.23076923  0.25000000       0.024
   0.38461538  0.23076923  0.25000000       0.024
   0.46153846  0.23076923  0.25000000       0.024
   0.30769231  0.30769231  0.25000000       0.012
   0.38461538  0.30769231  0.25000000       0.024
   0.46153846  0.30769231  0.25000000       0.024
   0.38461538  0.38461538  0.25000000       0.012
   0.46153846  0.38461538  0.25000000       0.024
   0.46153846  0.46153846  0.25000000       0.012
   0.00000000  0.00000000  0.50000000       0.001
   0.07692308  0.00000000  0.50000000       0.006
   0.15384615  0.00000000  0.50000000       0.006
   0.23076923  0.00000000  0.50000000       0.006
   0.30769231  0.00000000  0.50000000       0.006
   0.38461538  0.00000000  0.50000000       0.006
   0.46153846  0.00000000  0.50000000       0.006
   0.07692308  0.07692308  0.50000000       0.006
   0.15384615  0.07692308  0.50000000       0.012
   0.23076923  0.07692308  0.50000000       0.012
   0.30769231  0.07692308  0.50000000       0.012
   0.38461538  0.07692308  0.50000000       0.012
   0.46153846  0.07692308  0.50000000       0.012
   0.15384615  0.15384615  0.50000000       0.006
   0.23076923  0.15384615  0.50000000       0.012
   0.30769231  0.15384615  0.50000000       0.012
   0.38461538  0.15384615  0.50000000       0.012
   0.46153846  0.15384615  0.50000000       0.012
   0.23076923  0.23076923  0.50000000       0.006
   0.30769231  0.23076923  0.50000000       0.012
   0.38461538  0.23076923  0.50000000       0.012
   0.46153846  0.23076923  0.50000000       0.012
   0.30769231  0.30769231  0.50000000       0.006
   0.38461538  0.30769231  0.50000000       0.012
   0.46153846  0.30769231  0.50000000       0.012
   0.38461538  0.38461538  0.50000000       0.006
   0.46153846  0.38461538  0.50000000       0.012
   0.46153846  0.46153846  0.50000000       0.006
 
 position of ions in fractional coordinates (direct lattice) 
   0.00000000  0.50000000  0.16666032
   0.00000000  0.50000000  0.49870401
   0.00000000  0.50000000  0.83463472
   0.50000000  0.50000000  0.99727774
   0.50000000  0.50000000  0.33606946
   0.50000000  0.50000000  0.66666434
   0.50000000  0.00000000  0.16666024
   0.50000000  0.00000000  0.49869550
   0.50000000  0.00000000  0.83464330
   0.00000000  0.00000000  0.00383276
   0.00000000  0.00000000  0.32948629
   0.00000000  0.00000000  0.66667132
 
 position of ions in cartesian coordinates  (Angst):
   0.00000000  1.80480683  1.81640619
   0.00000000  1.80480683  5.43530140
   0.00000000  1.80480683  9.09656055
   1.80474921  1.80480683 10.86918283
   1.80474921  1.80480683  3.66277136
   1.80474921  1.80480683  7.26587621
   1.80474921  0.00000000  1.81640529
   1.80474921  0.00000000  5.43520858
   1.80474921  0.00000000  9.09665408
   0.00000000  0.00000000  0.04177271
   0.00000000  0.00000000  3.59102246
   0.00000000  0.00000000  7.26595225
 


--------------------------------------------------------------------------------------------------------


 k-point     1 :   0.0000 0.0000 0.0000  plane waves:    3857
 k-point     2 :   0.0769 0.0000 0.0000  plane waves:    3851
 k-point     3 :   0.1538 0.0000 0.0000  plane waves:    3841
 k-point     4 :   0.2308 0.0000 0.0000  plane waves:    3837
 k-point     5 :   0.3077 0.0000 0.0000  plane waves:    3838
 k-point     6 :   0.3846 0.0000 0.0000  plane waves:    3822
 k-point     7 :   0.4615 0.0000 0.0000  plane waves:    3804
 k-point     8 :   0.0769 0.0769 0.0000  plane waves:    3843
 k-point     9 :   0.1538 0.0769 0.0000  plane waves:    3840
 k-point    10 :   0.2308 0.0769 0.0000  plane waves:    3829
 k-point    11 :   0.3077 0.0769 0.0000  plane waves:    3830
 k-point    12 :   0.3846 0.0769 0.0000  plane waves:    3822
 k-point    13 :   0.4615 0.0769 0.0000  plane waves:    3806
 k-point    14 :   0.1538 0.1538 0.0000  plane waves:    3827
 k-point    15 :   0.2308 0.1538 0.0000  plane waves:    3829
 k-point    16 :   0.3077 0.1538 0.0000  plane waves:    3809
 k-point    17 :   0.3846 0.1538 0.0000  plane waves:    3817
 k-point    18 :   0.4615 0.1538 0.0000  plane waves:    3803
 k-point    19 :   0.2308 0.2308 0.0000  plane waves:    3819
 k-point    20 :   0.3077 0.2308 0.0000  plane waves:    3819
 k-point    21 :   0.3846 0.2308 0.0000  plane waves:    3821
 k-point    22 :   0.4615 0.2308 0.0000  plane waves:    3820
 k-point    23 :   0.3077 0.3077 0.0000  plane waves:    3806
 k-point    24 :   0.3846 0.3077 0.0000  plane waves:    3801
 k-point    25 :   0.4615 0.3077 0.0000  plane waves:    3828
 k-point    26 :   0.3846 0.3846 0.0000  plane waves:    3828
 k-point    27 :   0.4615 0.3846 0.0000  plane waves:    3855
 k-point    28 :   0.4615 0.4615 0.0000  plane waves:    3840
 k-point    29 :   0.0000 0.0000 0.2500  plane waves:    3821
 k-point    30 :   0.0769 0.0000 0.2500  plane waves:    3835
 k-point    31 :   0.1538 0.0000 0.2500  plane waves:    3840
 k-point    32 :   0.2308 0.0000 0.2500  plane waves:    3842
 k-point    33 :   0.3077 0.0000 0.2500  plane waves:    3830
 k-point    34 :   0.3846 0.0000 0.2500  plane waves:    3814
 k-point    35 :   0.4615 0.0000 0.2500  plane waves:    3817
 k-point    36 :   0.0769 0.0769 0.2500  plane waves:    3838
 k-point    37 :   0.1538 0.0769 0.2500  plane waves:    3830
 k-point    38 :   0.2308 0.0769 0.2500  plane waves:    3834
 k-point    39 :   0.3077 0.0769 0.2500  plane waves:    3822
 k-point    40 :   0.3846 0.0769 0.2500  plane waves:    3816
 k-point    41 :   0.4615 0.0769 0.2500  plane waves:    3815
 k-point    42 :   0.1538 0.1538 0.2500  plane waves:    3835
 k-point    43 :   0.2308 0.1538 0.2500  plane waves:    3828
 k-point    44 :   0.3077 0.1538 0.2500  plane waves:    3815
 k-point    45 :   0.3846 0.1538 0.2500  plane waves:    3815
 k-point    46 :   0.4615 0.1538 0.2500  plane waves:    3823
 k-point    47 :   0.2308 0.2308 0.2500  plane waves:    3817
 k-point    48 :   0.3077 0.2308 0.2500  plane waves:    3814
 k-point    49 :   0.3846 0.2308 0.2500  plane waves:    3812
 k-point    50 :   0.4615 0.2308 0.2500  plane waves:    3808
 k-point    51 :   0.3077 0.3077 0.2500  plane waves:    3810
 k-point    52 :   0.3846 0.3077 0.2500  plane waves:    3820
 k-point    53 :   0.4615 0.3077 0.2500  plane waves:    3823
 k-point    54 :   0.3846 0.3846 0.2500  plane waves:    3829
 k-point    55 :   0.4615 0.3846 0.2500  plane waves:    3836
 k-point    56 :   0.4615 0.4615 0.2500  plane waves:    3831
 k-point    57 :   0.0000 0.0000 0.5000  plane waves:    3840
 k-point    58 :   0.0769 0.0000 0.5000  plane waves:    3828
 k-point    59 :   0.1538 0.0000 0.5000  plane waves:    3828
 k-point    60 :   0.2308 0.0000 0.5000  plane waves:    3830
 k-point    61 :   0.3077 0.0000 0.5000  plane waves:    3834
 k-point    62 :   0.3846 0.0000 0.5000  plane waves:    3812
 k-point    63 :   0.4615 0.0000 0.5000  plane waves:    3818
 k-point    64 :   0.0769 0.0769 0.5000  plane waves:    3826
 k-point    65 :   0.1538 0.0769 0.5000  plane waves:    3840
 k-point    66 :   0.2308 0.0769 0.5000  plane waves:    3838
 k-point    67 :   0.3077 0.0769 0.5000  plane waves:    3826
 k-point    68 :   0.3846 0.0769 0.5000  plane waves:    3814
 k-point    69 :   0.4615 0.0769 0.5000  plane waves:    3808
 k-point    70 :   0.1538 0.1538 0.5000  plane waves:    3844
 k-point    71 :   0.2308 0.1538 0.5000  plane waves:    3822
 k-point    72 :   0.3077 0.1538 0.5000  plane waves:    3800
 k-point    73 :   0.3846 0.1538 0.5000  plane waves:    3826
 k-point    74 :   0.4615 0.1538 0.5000  plane waves:    3820
 k-point    75 :   0.2308 0.2308 0.5000  plane waves:    3818
 k-point    76 :   0.3077 0.2308 0.5000  plane waves:    3822
 k-point    77 :   0.3846 0.2308 0.5000  plane waves:    3814
 k-point    78 :   0.4615 0.2308 0.5000  plane waves:    3816
 k-point    79 :   0.3077 0.3077 0.5000  plane waves:    3810
 k-point    80 :   0.3846 0.3077 0.5000  plane waves:    3828
 k-point    81 :   0.4615 0.3077 0.5000  plane waves:    3822
 k-point    82 :   0.3846 0.3846 0.5000  plane waves:    3830
 k-point    83 :   0.4615 0.3846 0.5000  plane waves:    3824
 k-point    84 :   0.4615 0.4615 0.5000  plane waves:    3836

 maximum and minimum number of plane-waves per node :      3857     3800

 maximum number of plane-waves:      3857
 maximum index in each direction: 
   IXMAX=    6   IYMAX=    6   IZMAX=   20
   IXMIN=   -7   IYMIN=   -7   IZMIN=  -20


 serial   3D FFT for wavefunctions
 parallel 3D FFT for charge:
    minimum data exchange during FFTs selected (reduces bandwidth)


 total amount of memory used by VASP MPI-rank0   176528. kBytes
=======================================================================

   base      :      30000. kBytes
   nonl-proj :      94414. kBytes
   fftplans  :        888. kBytes
   grid      :       6813. kBytes
   one-center:        373. kBytes
   wavefun   :      44040. kBytes
 
     INWAV:  cpu time      0.0001: real time      0.0001
 Broyden mixing: mesh for mixing (old mesh)
   NGX = 13   NGY = 13   NGZ = 41
  (NGX  = 56   NGY  = 56   NGZ  =168)
  gives a total of   6929 points

 initial charge density was supplied:
 charge density of overlapping atoms calculated
 number of electron     156.0000000 magnetization      12.6080000
 keeping initial charge density in first step


--------------------------------------------------------------------------------------------------------


 Maximum index for augmentation-charges         1097 (set IRDMAX)


--------------------------------------------------------------------------------------------------------


 First call to EWALD:  gamma=   0.340
 Maximum number of real-space cells 4x 4x 2
 Maximum number of reciprocal cells 2x 2x 5

    FEWALD:  cpu time      0.0030: real time      0.0030


--------------------------------------- Ionic step        1  -------------------------------------------




--------------------------------------- Iteration      1(   1)  ---------------------------------------


    POTLOK:  cpu time      0.0262: real time      0.1062
    SETDIJ:  cpu time      0.0106: real time      0.0107
     EDDAV:  cpu time      5.6204: real time      5.6643
 BZINTS: Fermi energy:   24.598614;  156.000000 electrons
         Band energy: 0.696396E+03;  BLOECHL correction:   -0.063923
       DOS:  cpu time      0.1289: real time      0.1304
    --------------------------------------------
      LOOP:  cpu time      5.7861: real time      5.9117

 eigenvalue-minimisations  : 43136
 total energy-change (2. order) : 0.1761612E+04  (-0.8399818E+04)
 number of electron     156.0000000 magnetization      12.6080000
 augmentation part      156.0000000 magnetization      12.6080000

 Free energy of the ion-electron system (eV)
  ---------------------------------------------------
  alpha Z        PSCENC =      1198.52203918
  Ewald energy   TEWEN  =    -18666.02068683
  -Hartree energ DENC   =     -5707.07220179
  -exchange      EXHF   =         0.00000000
  -V(xc)+E(xc)   XCENC  =       659.77247779
  PAW double counting   =     20095.68437031   -20819.77267668
  entropy T*S    EENTRO =         0.00000000
  eigenvalues    EBANDS =       696.39565535
  atomic energy  EATOM  =     24304.10294433
  Solvation  Ediel_sol  =         0.00000000
  ---------------------------------------------------
  free energy    TOTEN  =      1761.61192167 eV

  energy without entropy =     1761.61192167  energy(sigma->0) =     1761.61192167


--------------------------------------------------------------------------------------------------------




--------------------------------------- Iteration      1(   2)  ---------------------------------------


     EDDAV:  cpu time      5.5362: real time      5.5875
 BZINTS: Fermi energy:   13.634019;  156.000000 electrons
         Band energy:-0.105926E+04;  BLOECHL correction:   -0.025592
       DOS:  cpu time      0.1295: real time      0.1306
    --------------------------------------------
      LOOP:  cpu time      5.6659: real time      5.7181

 eigenvalue-minimisations  : 43040
 total energy-change (2. order) :-0.1755657E+04  (-0.1665010E+04)
 number of electron     156.0000000 magnetization      12.6080000
 augmentation part      156.0000000 magnetization      12.6080000

 Free energy of the ion-electron system (eV)
  ---------------------------------------------------
  alpha Z        PSCENC =      1198.52203918
  Ewald energy   TEWEN  =    -18666.02068683
  -Hartree energ DENC   =     -5707.07220179
  -exchange      EXHF   =         0.00000000
  -V(xc)+E(xc)   XCENC  =       659.77247779
  PAW double counting   =     20095.68437031   -20819.77267668
  entropy T*S    EENTRO =         0.00000000
  eigenvalues    EBANDS =     -1059.26161016
  atomic energy  EATOM  =     24304.10294433
  Solvation  Ediel_sol  =         0.00000000
  ---------------------------------------------------
  free energy    TOTEN  =         5.95465615 eV

  energy without entropy =        5.95465615  energy(sigma->0) =        5.95465615


--------------------------------------------------------------------------------------------------------




--------------------------------------- Iteration      1(   3)  ---------------------------------------


     EDDAV:  cpu time      6.6279: real time      6.6884
 BZINTS: Fermi energy:   13.047654;  156.000000 electrons
         Band energy:-0.116843E+04;  BLOECHL correction:   -0.034259
       DOS:  cpu time      0.1289: real time      0.1301
    --------------------------------------------
      LOOP:  cpu time      6.7567: real time      6.8184

 eigenvalue-minimisations  : 50560
 total energy-change (2. order) :-0.1091692E+03  (-0.1078360E+03)
 number of electron     156.0000000 magnetization      12.6080000
 augmentation part      156.0000000 magnetization      12.6080000

 Free energy of the ion-electron system (eV)
  ---------------------------------------------------
  alpha Z        PSCENC =      1198.52203918
  Ewald energy   TEWEN  =    -18666.02068683
  -Hartree energ DENC   =     -5707.07220179
  -exchange      EXHF   =         0.00000000
  -V(xc)+E(xc)   XCENC  =       659.77247779
  PAW double counting   =     20095.68437031   -20819.77267668
  entropy T*S    EENTRO =         0.00000000
  eigenvalues    EBANDS =     -1168.43077248
  atomic energy  EATOM  =     24304.10294433
  Solvation  Ediel_sol  =         0.00000000
  ---------------------------------------------------
  free energy    TOTEN  =      -103.21450616 eV

  energy without entropy =     -103.21450616  energy(sigma->0) =     -103.21450616


--------------------------------------------------------------------------------------------------------




--------------------------------------- Iteration      1(   4)  ---------------------------------------


     EDDAV:  cpu time      5.9719: real time      6.0249
 BZINTS: Fermi energy:   13.042747;  156.000000 electrons
         Band energy:-0.116993E+04;  BLOECHL correction:   -0.034266
       DOS:  cpu time      0.1277: real time      0.1299
    --------------------------------------------
      LOOP:  cpu time      6.0997: real time      6.1547

 eigenvalue-minimisations  : 46016
 total energy-change (2. order) :-0.1497747E+01  (-0.1497441E+01)
 number of electron     156.0000000 magnetization      12.6080000
 augmentation part      156.0000000 magnetization      12.6080000

 Free energy of the ion-electron system (eV)
  ---------------------------------------------------
  alpha Z        PSCENC =      1198.52203918
  Ewald energy   TEWEN  =    -18666.02068683
  -Hartree energ DENC   =     -5707.07220179
  -exchange      EXHF   =         0.00000000
  -V(xc)+E(xc)   XCENC  =       659.77247779
  PAW double counting   =     20095.68437031   -20819.77267668
  entropy T*S    EENTRO =         0.00000000
  eigenvalues    EBANDS =     -1169.92851937
  atomic energy  EATOM  =     24304.10294433
  Solvation  Ediel_sol  =         0.00000000
  ---------------------------------------------------
  free energy    TOTEN  =      -104.71225306 eV

  energy without entropy =     -104.71225306  energy(sigma->0) =     -104.71225306


--------------------------------------------------------------------------------------------------------




--------------------------------------- Iteration      1(   5)  ---------------------------------------


     EDDAV:  cpu time      7.1091: real time      7.1579
 BZINTS: Fermi energy:   13.042699;  156.000000 electrons
         Band energy:-0.116995E+04;  BLOECHL correction:   -0.034265
       DOS:  cpu time      0.1294: real time      0.1303
    CHARGE:  cpu time      0.1541: real time      0.1554
    MIXING:  cpu time      0.0059: real time      0.0061
    --------------------------------------------
      LOOP:  cpu time      7.3984: real time      7.4497

 eigenvalue-minimisations  : 52736
 total energy-change (2. order) :-0.2644136E-01  (-0.2644094E-01)
 number of electron     156.0000010 magnetization      11.7036974
 augmentation part       79.2830333 magnetization       8.8458740

 Broyden mixing:
  rms(total) = 0.42914E+01    rms(broyden)= 0.42909E+01
  rms(prec ) = 0.47812E+01
  weight for this iteration     100.00

 Free energy of the ion-electron system (eV)
  ---------------------------------------------------
  alpha Z        PSCENC =      1198.52203918
  Ewald energy   TEWEN  =    -18666.02068683
  -Hartree energ DENC   =     -5707.07220179
  -exchange      EXHF   =         0.00000000
  -V(xc)+E(xc)   XCENC  =       659.77247779
  PAW double counting   =     20095.68437031   -20819.77267668
  entropy T*S    EENTRO =         0.00000000
  eigenvalues    EBANDS =     -1169.95496073
  atomic energy  EATOM  =     24304.10294433
  Solvation  Ediel_sol  =         0.00000000
  ---------------------------------------------------
  free energy    TOTEN  =      -104.73869441 eV

  energy without entropy =     -104.73869441  energy(sigma->0) =     -104.73869441


--------------------------------------------------------------------------------------------------------




--------------------------------------- Iteration      1(   6)  ---------------------------------------


    POTLOK:  cpu time      0.0355: real time      0.0447
    SETDIJ:  cpu time      0.0082: real time      0.0083
     EDDAV:  cpu time      7.2273: real time      7.2769
 BZINTS: Fermi energy:   10.486541;  156.000000 electrons
         Band energy:-0.157524E+04;  BLOECHL correction:   -0.025286
       DOS:  cpu time      0.1378: real time      0.1388
    CHARGE:  cpu time      0.1472: real time      0.1482
    MIXING:  cpu time      0.0049: real time      0.0097
    --------------------------------------------
      LOOP:  cpu time      7.5610: real time      7.6265

 eigenvalue-minimisations  : 53088
 total energy-change (2. order) :-0.8000878E+01  (-0.1977344E+02)
 number of electron     155.9999981 magnetization      11.5889465
 augmentation part       87.6099621 magnetization       8.6481404

 Broyden mixing:
  rms(total) = 0.64176E+01    rms(broyden)= 0.64174E+01
  rms(prec ) = 0.10285E+02
  weight for this iteration     100.00

 eigenvalues of (default mixing * dielectric matrix)
  average eigenvalue GAMMA=   0.2844
  0.2844

 Free energy of the ion-electron system (eV)
  ---------------------------------------------------
  alpha Z        PSCENC =      1198.52203918
  Ewald energy   TEWEN  =    -18666.02068683
  -Hartree energ DENC   =     -5312.97830799
  -exchange      EXHF   =         0.00000000
  -V(xc)+E(xc)   XCENC  =       642.37711197
  PAW double counting   =     20779.99341326   -21483.49896962
  entropy T*S    EENTRO =         0.00000000
  eigenvalues    EBANDS =     -1575.23711650
  atomic energy  EATOM  =     24304.10294433
  Solvation  Ediel_sol  =         0.00000000
  ---------------------------------------------------
  free energy    TOTEN  =      -112.73957221 eV

  energy without entropy =     -112.73957221  energy(sigma->0) =     -112.73957221


--------------------------------------------------------------------------------------------------------




--------------------------------------- Iteration      1(   7)  ---------------------------------------


    POTLOK:  cpu time      0.0353: real time      0.0442
    SETDIJ:  cpu time      0.0080: real time      0.0080
     EDDAV:  cpu time      7.0876: real time      7.1354
 BZINTS: Fermi energy:   10.977406;  156.000000 electrons
         Band energy:-0.150867E+04;  BLOECHL correction:   -0.028705
       DOS:  cpu time      0.1338: real time      0.1349
    CHARGE:  cpu time      0.1513: real time      0.1524
    MIXING:  cpu time      0.0022: real time      0.0037
    --------------------------------------------
      LOOP:  cpu time      7.4182: real time      7.4787

 eigenvalue-minimisations  : 52992
 total energy-change (2. order) :-0.2508239E+01  (-0.2974039E+02)
 number of electron     155.9999796 magnetization      10.5999971
 augmentation part       86.2117962 magnetization      10.0081739

 Broyden mixing:
  rms(total) = 0.73809E+01    rms(broyden)= 0.73804E+01
  rms(prec ) = 0.12778E+02
  weight for this iteration     100.00

 eigenvalues of (default mixing * dielectric matrix)
  average eigenvalue GAMMA=   0.3211
  0.5420  0.1002

 Free energy of the ion-electron system (eV)
  ---------------------------------------------------
  alpha Z        PSCENC =      1198.52203918
  Ewald energy   TEWEN  =    -18666.02068683
  -Hartree energ DENC   =     -5370.28464907
  -exchange      EXHF   =         0.00000000
  -V(xc)+E(xc)   XCENC  =       644.03931093
  PAW double counting   =     21079.06738508   -21796.00108966
  entropy T*S    EENTRO =         0.00000000
  eigenvalues    EBANDS =     -1508.67306551
  atomic energy  EATOM  =     24304.10294433
  Solvation  Ediel_sol  =         0.00000000
  ---------------------------------------------------
  free energy    TOTEN  =      -115.24781154 eV

  energy without entropy =     -115.24781154  energy(sigma->0) =     -115.24781154


--------------------------------------------------------------------------------------------------------




--------------------------------------- Iteration      1(   8)  ---------------------------------------


    POTLOK:  cpu time      0.0332: real time      0.0445
    SETDIJ:  cpu time      0.0084: real time      0.0085
     EDDAV:  cpu time      6.9159: real time      6.9635
 BZINTS: Fermi energy:   11.680474;  156.000000 electrons
         Band energy:-0.137772E+04;  BLOECHL correction:   -0.035714
       DOS:  cpu time      0.1350: real time      0.1365
    CHARGE:  cpu time      0.1469: real time      0.1477
    MIXING:  cpu time      0.0021: real time      0.0021
    --------------------------------------------
      LOOP:  cpu time      7.2414: real time      7.3028

 eigenvalue-minimisations  : 51904
 total energy-change (2. order) : 0.1913756E+02  (-0.2111999E+02)
 number of electron     156.0000077 magnetization       9.9333449
 augmentation part       83.1207435 magnetization       7.0775221

 Broyden mixing:
  rms(total) = 0.29095E+01    rms(broyden)= 0.29086E+01
  rms(prec ) = 0.42891E+01
  weight for this iteration     100.00

 eigenvalues of (default mixing * dielectric matrix)
  average eigenvalue GAMMA=   0.5141
  1.0597  0.3892  0.0934

 Free energy of the ion-electron system (eV)
  ---------------------------------------------------
  alpha Z        PSCENC =      1198.52203918
  Ewald energy   TEWEN  =    -18666.02068683
  -Hartree energ DENC   =     -5459.23684705
  -exchange      EXHF   =         0.00000000
  -V(xc)+E(xc)   XCENC  =       646.36528513
  PAW double counting   =     21695.20329894   -22437.32531726
  entropy T*S    EENTRO =         0.00000000
  eigenvalues    EBANDS =     -1377.72096448
  atomic energy  EATOM  =     24304.10294433
  Solvation  Ediel_sol  =         0.00000000
  ---------------------------------------------------
  free energy    TOTEN  =       -96.11024803 eV

  energy without entropy =      -96.11024803  energy(sigma->0) =      -96.11024803


--------------------------------------------------------------------------------------------------------




--------------------------------------- Iteration      1(   9)  ---------------------------------------


    POTLOK:  cpu time      0.0346: real time      0.0455
    SETDIJ:  cpu time      0.0084: real time      0.0084
     EDDAV:  cpu time      6.4124: real time      6.4591
 BZINTS: Fermi energy:   11.664739;  156.000000 electrons
         Band energy:-0.142639E+04;  BLOECHL correction:   -0.016624
       DOS:  cpu time      0.1347: real time      0.1355
    CHARGE:  cpu time      0.1666: real time      0.1676
    MIXING:  cpu time      0.0017: real time      0.0018
    --------------------------------------------
      LOOP:  cpu time      6.7584: real time      6.8178

 eigenvalue-minimisations  : 49728
 total energy-change (2. order) :-0.1349091E+02  (-0.1846583E+02)
 number of electron     156.0000034 magnetization       9.4246475
 augmentation part       84.1135985 magnetization       6.9698766

 Broyden mixing:
  rms(total) = 0.56841E+01    rms(broyden)= 0.56836E+01
  rms(prec ) = 0.77036E+01
  weight for this iteration     100.00

 eigenvalues of (default mixing * dielectric matrix)
  average eigenvalue GAMMA=   0.5176
  1.4204  0.4353  0.0885  0.1264

 Free energy of the ion-electron system (eV)
  ---------------------------------------------------
  alpha Z        PSCENC =      1198.52203918
  Ewald energy   TEWEN  =    -18666.02068683
  -Hartree energ DENC   =     -5417.13077852
  -exchange      EXHF   =         0.00000000
  -V(xc)+E(xc)   XCENC  =       644.47485421
  PAW double counting   =     21998.23416088   -22745.39174981
  entropy T*S    EENTRO =         0.00000000
  eigenvalues    EBANDS =     -1426.39193840
  atomic energy  EATOM  =     24304.10294433
  Solvation  Ediel_sol  =         0.00000000
  ---------------------------------------------------
  free energy    TOTEN  =      -109.60115496 eV

  energy without entropy =     -109.60115496  energy(sigma->0) =     -109.60115496


--------------------------------------------------------------------------------------------------------




--------------------------------------- Iteration      1(  10)  ---------------------------------------


    POTLOK:  cpu time      0.0341: real time      0.0445
    SETDIJ:  cpu time      0.0085: real time      0.0085
     EDDAV:  cpu time      6.4023: real time      6.4487
 BZINTS: Fermi energy:   11.037786;  156.000000 electrons
         Band energy:-0.144606E+04;  BLOECHL correction:   -0.036683
       DOS:  cpu time      0.1356: real time      0.1366
    CHARGE:  cpu time      0.1490: real time      0.1500
    MIXING:  cpu time      0.0024: real time      0.0025
    --------------------------------------------
      LOOP:  cpu time      6.7318: real time      6.7908

 eigenvalue-minimisations  : 49728
 total energy-change (2. order) : 0.1725211E+02  (-0.3566502E+01)
 number of electron     156.0000205 magnetization       9.4027029
 augmentation part       84.6226587 magnetization       7.0137249

 Broyden mixing:
  rms(total) = 0.17543E+01    rms(broyden)= 0.17534E+01
  rms(prec ) = 0.24150E+01
  weight for this iteration     100.00

 eigenvalues of (default mixing * dielectric matrix)
  average eigenvalue GAMMA=   0.4616
  1.3349  0.4061  0.3348  0.0898  0.1424

 Free energy of the ion-electron system (eV)
  ---------------------------------------------------
  alpha Z        PSCENC =      1198.52203918
  Ewald energy   TEWEN  =    -18666.02068683
  -Hartree energ DENC   =     -5374.98577466
  -exchange      EXHF   =         0.00000000
  -V(xc)+E(xc)   XCENC  =       642.74384878
  PAW double counting   =     22248.39694525   -22999.04748205
  entropy T*S    EENTRO =         0.00000000
  eigenvalues    EBANDS =     -1446.06088015
  atomic energy  EATOM  =     24304.10294433
  Solvation  Ediel_sol  =         0.00000000
  ---------------------------------------------------
  free energy    TOTEN  =       -92.34904615 eV

  energy without entropy =      -92.34904615  energy(sigma->0) =      -92.34904615


--------------------------------------------------------------------------------------------------------




--------------------------------------- Iteration      1(  11)  ---------------------------------------


    POTLOK:  cpu time      0.0350: real time      0.0448
    SETDIJ:  cpu time      0.0085: real time      0.0086
     EDDAV:  cpu time      6.7436: real time      6.7942
 BZINTS: Fermi energy:   11.129539;  156.000000 electrons
         Band energy:-0.144659E+04;  BLOECHL correction:   -0.037741
       DOS:  cpu time      0.1344: real time      0.1362
    CHARGE:  cpu time      0.1475: real time      0.1485
    MIXING:  cpu time      0.0020: real time      0.0028
    --------------------------------------------
      LOOP:  cpu time      7.0711: real time      7.1350

 eigenvalue-minimisations  : 51712
 total energy-change (2. order) :-0.1641553E+01  (-0.2359578E+01)
 number of electron     156.0000234 magnetization       9.2577973
 augmentation part       84.5673492 magnetization       7.5112390

 Broyden mixing:
  rms(total) = 0.28118E+01    rms(broyden)= 0.28114E+01
  rms(prec ) = 0.39063E+01
  weight for this iteration     100.00

 eigenvalues of (default mixing * dielectric matrix)
  average eigenvalue GAMMA=   0.4290
  1.2721  0.4904  0.4904  0.1424  0.0920  0.0870

 Free energy of the ion-electron system (eV)
  ---------------------------------------------------
  alpha Z        PSCENC =      1198.52203918
  Ewald energy   TEWEN  =    -18666.02068683
  -Hartree energ DENC   =     -5375.33535550
  -exchange      EXHF   =         0.00000000
  -V(xc)+E(xc)   XCENC  =       642.83883035
  PAW double counting   =     22257.76688574   -23009.27329716
  entropy T*S    EENTRO =         0.00000000
  eigenvalues    EBANDS =     -1446.59195943
  atomic energy  EATOM  =     24304.10294433
  Solvation  Ediel_sol  =         0.00000000
  ---------------------------------------------------
  free energy    TOTEN  =       -93.99059932 eV

  energy without entropy =      -93.99059932  energy(sigma->0) =      -93.99059932


--------------------------------------------------------------------------------------------------------




--------------------------------------- Iteration      1(  12)  ---------------------------------------


    POTLOK:  cpu time      0.0351: real time      0.0448
    SETDIJ:  cpu time      0.0084: real time      0.0084
     EDDAV:  cpu time      6.6181: real time      6.6642
 BZINTS: Fermi energy:   11.085609;  156.000000 electrons
         Band energy:-0.144020E+04;  BLOECHL correction:   -0.039434
       DOS:  cpu time      0.1355: real time      0.1365
    CHARGE:  cpu time      0.1476: real time      0.1485
    MIXING:  cpu time      0.0019: real time      0.0019
    --------------------------------------------
      LOOP:  cpu time      6.9466: real time      7.0044

 eigenvalue-minimisations  : 50656
 total energy-change (2. order) : 0.2150558E+01  (-0.2234969E+01)
 number of electron     156.0000174 magnetization       9.3292517
 augmentation part       84.4078745 magnetization       6.9684096

 Broyden mixing:
  rms(total) = 0.75781E+00    rms(broyden)= 0.75693E+00
  rms(prec ) = 0.92280E+00
  weight for this iteration     100.00

 eigenvalues of (default mixing * dielectric matrix)
  average eigenvalue GAMMA=   0.4846
  1.2609  0.7309  0.7309  0.3619  0.1349  0.0896  0.0831

 Free energy of the ion-electron system (eV)
  ---------------------------------------------------
  alpha Z        PSCENC =      1198.52203918
  Ewald energy   TEWEN  =    -18666.02068683
  -Hartree energ DENC   =     -5378.05134270
  -exchange      EXHF   =         0.00000000
  -V(xc)+E(xc)   XCENC  =       643.01826165
  PAW double counting   =     22278.55786810   -23031.76833295
  entropy T*S    EENTRO =         0.00000000
  eigenvalues    EBANDS =     -1440.20079234
  atomic energy  EATOM  =     24304.10294433
  Solvation  Ediel_sol  =         0.00000000
  ---------------------------------------------------
  free energy    TOTEN  =       -91.84004155 eV

  energy without entropy =      -91.84004155  energy(sigma->0) =      -91.84004155


--------------------------------------------------------------------------------------------------------




--------------------------------------- Iteration      1(  13)  ---------------------------------------


    POTLOK:  cpu time      0.0363: real time      0.0455
    SETDIJ:  cpu time      0.0076: real time      0.0076
     EDDAV:  cpu time      6.7320: real time      6.7789
 BZINTS: Fermi energy:   11.077188;  156.000000 electrons
         Band energy:-0.144315E+04;  BLOECHL correction:   -0.037560
       DOS:  cpu time      0.1353: real time      0.1364
    CHARGE:  cpu time      0.1469: real time      0.1477
    MIXING:  cpu time      0.0021: real time      0.0021
    --------------------------------------------
      LOOP:  cpu time      7.0602: real time      7.1183

 eigenvalue-minimisations  : 51712
 total energy-change (2. order) :-0.1667748E+00  (-0.9499833E-01)
 number of electron     156.0000104 magnetization       9.4517141
 augmentation part       84.4891556 magnetization       7.0125403

 Broyden mixing:
  rms(total) = 0.69118E+00    rms(broyden)= 0.69097E+00
  rms(prec ) = 0.78370E+00
  weight for this iteration     100.00

 eigenvalues of (default mixing * dielectric matrix)
  average eigenvalue GAMMA=   0.4469
  1.2899  0.7212  0.7212  0.3506  0.1845  0.1348  0.0895  0.0837

 Free energy of the ion-electron system (eV)
  ---------------------------------------------------
  alpha Z        PSCENC =      1198.52203918
  Ewald energy   TEWEN  =    -18666.02068683
  -Hartree energ DENC   =     -5374.65816278
  -exchange      EXHF   =         0.00000000
  -V(xc)+E(xc)   XCENC  =       643.17240094
  PAW double counting   =     22297.53250687   -23051.51264186
  entropy T*S    EENTRO =         0.00000000
  eigenvalues    EBANDS =     -1443.14521617
  atomic energy  EATOM  =     24304.10294433
  Solvation  Ediel_sol  =         0.00000000
  ---------------------------------------------------
  free energy    TOTEN  =       -92.00681634 eV

  energy without entropy =      -92.00681634  energy(sigma->0) =      -92.00681634


--------------------------------------------------------------------------------------------------------




--------------------------------------- Iteration      1(  14)  ---------------------------------------


[...]
    113      26.6735      0.00000
    114      26.9861      0.00000
    115      27.0784      0.00000
    116      27.4614      0.00000
    117      27.5403      0.00000
    118      28.2720      0.00000
    119      28.5437      0.00000
    120      29.0835      0.00000
    121      29.1338      0.00000
    122      29.1459      0.00000
    123      29.6909      0.00000
    124      30.8396      0.00000
    125      31.0236      0.00000
    126      31.2809      0.00000
    127      31.4191      0.00000
    128      32.1090      0.00000


--------------------------------------------------------------------------------------------------------


 soft charge-density along one line, spin component           1
         0         1         2         3         4         5         6         7         8         9
 total charge-density along one line
 
 soft charge-density along one line, spin component           2
         0         1         2         3         4         5         6         7         8         9
 total charge-density along one line
 
 pseudopotential strength for first ion, spin component:           1
-42.302   0.000   0.000   6.498  -0.000  -0.000  -0.000   0.001
  0.000 -42.350   0.000  -0.000   6.518  -0.000   0.000   0.000
  0.000   0.000 -42.282  -0.000  -0.000   6.490   0.000   0.000
  6.498  -0.000  -0.000   5.922  -0.000  -0.000   0.000  -0.000
 -0.000   6.518  -0.000  -0.000   5.916  -0.000  -0.000  -0.000
 -0.000  -0.000   6.490  -0.000  -0.000   5.922  -0.000  -0.000
 -0.000   0.000   0.000   0.000  -0.000  -0.000   0.035   0.000
  0.001   0.000   0.000  -0.000  -0.000  -0.000   0.000   0.019
 -0.000   0.001   0.000   0.000  -0.000  -0.000  -0.000   0.000
  0.000  -0.000   0.001  -0.000   0.000  -0.000   0.000   0.000
 -0.000   0.000  -0.000   0.000  -0.000   0.000  -0.000  -0.000
 -0.000   0.000   0.000   0.000  -0.000  -0.000  -0.513   0.000
  0.001   0.000   0.000  -0.000  -0.000  -0.000   0.000  -0.528
 -0.000   0.001   0.000   0.000  -0.000  -0.000  -0.000   0.000
  0.000  -0.000   0.001  -0.000   0.000  -0.000   0.000   0.000
 -0.000   0.000  -0.000   0.000  -0.000   0.000  -0.000  -0.000
 -0.000  -0.000   0.000  -0.000  -0.000   0.000  -0.000  -0.000
 -0.000  -0.000   0.000  -0.000  -0.000   0.000  -0.000  -0.000
 pseudopotential strength for first ion, spin component:           2
-44.064   0.000   0.000   7.242  -0.000  -0.000  -0.000   0.001
  0.000 -44.118   0.000  -0.000   7.262  -0.000   0.000   0.000
  0.000   0.000 -43.970  -0.000  -0.000   7.203   0.000   0.000
  7.242  -0.000  -0.000   5.715  -0.000  -0.000  -0.000  -0.000
 -0.000   7.262  -0.000  -0.000   5.711  -0.000  -0.000  -0.000
 -0.000  -0.000   7.203  -0.000  -0.000   5.722  -0.000  -0.000
 -0.000   0.000   0.000  -0.000  -0.000  -0.000  -1.254   0.000
  0.001   0.000   0.000  -0.000  -0.000  -0.000   0.000  -1.402
 -0.000   0.001   0.000   0.000  -0.000  -0.000  -0.000   0.000
  0.000  -0.000   0.001  -0.000   0.000  -0.000  -0.000   0.000
 -0.000   0.000  -0.000   0.000  -0.000   0.000  -0.000  -0.000
 -0.000   0.000   0.000   0.000  -0.000  -0.000  -1.780   0.000
  0.001   0.000   0.000  -0.000  -0.000  -0.000   0.000  -1.926
 -0.000   0.001   0.000   0.000  -0.000  -0.000  -0.000   0.000
  0.000  -0.000   0.001  -0.000  -0.000  -0.000  -0.000   0.000
 -0.000   0.000   0.000   0.000  -0.000   0.000  -0.000  -0.000
 -0.000  -0.000  -0.000  -0.000  -0.000   0.000  -0.000  -0.000
 -0.000  -0.000   0.000  -0.000  -0.000   0.000  -0.000  -0.000
 total augmentation occupancy for first ion, spin component:           1
  1.992   0.000   0.000  -0.026   0.000   0.000   0.000   0.000   0.000   0.000   0.000   0.000  -0.000   0.000  -0.000   0.000
  0.000   1.992   0.000  -0.000  -0.026   0.000   0.000   0.000   0.000   0.000   0.000   0.000   0.000   0.000   0.000   0.000
  0.000   0.000   1.992   0.000   0.000  -0.027   0.000  -0.000   0.000  -0.000   0.000   0.000  -0.000  -0.000  -0.000   0.000
 -0.026  -0.000   0.000   0.223   0.000   0.000   0.000   0.000   0.000   0.000   0.000   0.000   0.000   0.000   0.000   0.000
  0.000  -0.026   0.000   0.000   0.219   0.000   0.000   0.000  -0.000   0.000   0.000   0.000  -0.000   0.000   0.000  -0.000
  0.000   0.000  -0.027   0.000   0.000   0.186   0.000   0.000  -0.000   0.000   0.000   0.000   0.000   0.000  -0.000  -0.000
  0.000   0.000   0.000   0.000   0.000   0.000   2.602   0.000   0.000   0.000   0.000  -1.507   0.000   0.000   0.000  -0.000
  0.000   0.000  -0.000   0.000   0.000   0.000   0.000   2.769   0.000   0.000   0.000   0.000  -2.087  -0.000   0.000   0.000
  0.000   0.000   0.000   0.000  -0.000  -0.000   0.000   0.000   3.216   0.000   0.298   0.000  -0.000  -1.905   0.000  -0.243
  0.000   0.000  -0.000   0.000   0.000   0.000   0.000   0.000   0.000   2.289   0.000   0.000   0.000   0.000  -1.369   0.000
  0.000   0.000   0.000   0.000   0.000   0.000   0.000   0.000   0.298   0.000   2.910   0.000   0.000  -0.238   0.000  -1.786
  0.000   0.000   0.000   0.000   0.000   0.000  -1.507   0.000   0.000   0.000   0.000   1.860   0.000   0.000   0.000   0.000
 -0.000   0.000  -0.000   0.000  -0.000   0.000   0.000  -2.087  -0.000   0.000   0.000   0.000   2.679   0.000   0.000   0.000
  0.000   0.000  -0.000   0.000   0.000   0.000   0.000  -0.000  -1.905   0.000  -0.238   0.000   0.000   1.978  -0.000   0.152
 -0.000   0.000  -0.000   0.000   0.000  -0.000   0.000   0.000  -0.000  -1.369   0.000   0.000   0.000  -0.000   1.714   0.000
  0.000   0.000   0.000   0.000  -0.000  -0.000  -0.000   0.000  -0.243   0.000  -1.786   0.000   0.000   0.152   0.000   1.949
  0.000   0.000   0.000   0.000   0.000   0.000   0.000   0.000  -0.140   0.000   0.259  -0.000   0.000   0.096   0.000  -0.235
 -0.000   0.000   0.000   0.000  -0.000   0.000   0.000  -0.000   0.011   0.000  -0.013   0.000   0.000  -0.006   0.000   0.011
 total augmentation occupancy for first ion, spin component:           2
  0.002   0.000   0.000   0.007   0.000   0.000   0.000   0.000   0.000  -0.000   0.000   0.000   0.000   0.000   0.000  -0.000
  0.000   0.002  -0.000   0.000   0.006   0.000   0.000  -0.000  -0.000  -0.000  -0.000   0.000   0.000   0.000   0.000  -0.000
  0.000  -0.000   0.002   0.000   0.000   0.006   0.000   0.000  -0.000   0.000   0.000   0.000   0.000   0.000   0.000  -0.000
  0.007   0.000   0.000  -0.012   0.000   0.000   0.000  -0.000   0.000  -0.000   0.000  -0.000  -0.000   0.000   0.000   0.000
  0.000   0.006   0.000   0.000  -0.010   0.000   0.000   0.000  -0.000   0.000  -0.000   0.000  -0.000  -0.000   0.000   0.000
  0.000   0.000   0.006   0.000   0.000  -0.012   0.000  -0.000   0.000  -0.000   0.000   0.000   0.000   0.000  -0.000   0.000
  0.000   0.000   0.000   0.000   0.000   0.000  -1.567   0.000   0.000   0.000   0.000   0.708   0.000   0.000   0.000   0.000
  0.000  -0.000   0.000  -0.000   0.000  -0.000   0.000  -1.483   0.000   0.000   0.000   0.000   0.461   0.000   0.000   0.000
 -0.000  -0.000  -0.000   0.000  -0.000   0.000   0.000   0.000  -1.956   0.000  -0.242   0.000   0.000   0.857  -0.000   0.099
 -0.000  -0.000   0.000  -0.000   0.000  -0.000   0.000   0.000   0.000  -1.423   0.000  -0.000   0.000   0.000   0.313   0.000
  0.000  -0.000   0.000   0.000  -0.000   0.000   0.000   0.000  -0.242   0.000  -1.948   0.000   0.000   0.103   0.000   0.689
  0.000   0.000   0.000  -0.000   0.000   0.000   0.708   0.000   0.000  -0.000   0.000  -0.170   0.000   0.000  -0.000   0.000
  0.000   0.000   0.000  -0.000  -0.000   0.000   0.000   0.461   0.000   0.000   0.000   0.000   0.117   0.000   0.000   0.000
  0.000   0.000   0.000   0.000  -0.000   0.000   0.000  -0.000   0.857   0.000   0.103   0.000   0.000  -0.261   0.000  -0.048
 -0.000   0.000   0.000   0.000   0.000  -0.000   0.000   0.000  -0.000   0.313   0.000  -0.000   0.000   0.000   0.237   0.000
 -0.000  -0.000  -0.000   0.000   0.000   0.000   0.000   0.000   0.099   0.000   0.689   0.000  -0.000  -0.048   0.000  -0.038
  0.000   0.000   0.000   0.000  -0.000   0.000   0.000   0.000  -0.030  -0.000  -0.055   0.000   0.000  -0.003   0.000   0.022
  0.000  -0.000   0.000   0.000   0.000   0.000   0.000   0.000  -0.005   0.000   0.002   0.000   0.000   0.001   0.000  -0.000


------------------------ aborting loop because EDIFF is reached ----------------------------------------





 total charge

# of ion       s       p       d       tot
------------------------------------------
    1        0.379   6.394   6.092  12.864
    2        0.372   6.378   6.100  12.851
    3        0.372   6.378   6.100  12.851
    4        0.380   6.385   6.096  12.861
    5        0.380   6.385   6.096  12.861
    6        0.373   6.381   6.080  12.834
    7        0.379   6.394   6.092  12.864
    8        0.372   6.378   6.100  12.851
    9        0.372   6.378   6.100  12.851
   10        0.821   0.818   8.057   9.696
   11        0.821   0.818   8.057   9.696
   12        0.807   0.816   8.070   9.693
--------------------------------------------------
tot          5.827  59.903  79.042 144.772



 magnetization (x)

# of ion       s       p       d       tot
------------------------------------------
    1       -0.017  -0.021  -2.045  -2.082
    2        0.000  -0.013   2.388   2.376
    3        0.000  -0.013   2.388   2.376
    4        0.011   0.021   2.086   2.118
    5        0.011   0.021   2.086   2.118
    6       -0.002  -0.012   2.492   2.479
    7       -0.017  -0.021  -2.045  -2.082
    8        0.000  -0.013   2.388   2.376
    9        0.000  -0.013   2.388   2.376
   10       -0.011  -0.022   0.052   0.019
   11       -0.011  -0.022   0.052   0.019
   12       -0.038  -0.104   0.398   0.255
--------------------------------------------------
tot         -0.072  -0.209  12.630  12.350
 
    CHARGE:  cpu time      0.2148: real time      0.2160
    FORLOC:  cpu time      0.0015: real time      0.0015
    FORNL :  cpu time      0.6661: real time      0.6699
    STRESS:  cpu time      4.0265: real time      4.0608
    FORCOR:  cpu time      0.0208: real time      0.0209
    FORHAR:  cpu time      0.0034: real time      0.0035
    MIXING:  cpu time      0.0118: real time      0.0119
    OFIELD:  cpu time      0.0020: real time      0.0020

  FORCE on cell =-STRESS in cart. coord.  units (eV):
  Direction    XX          YY          ZZ          XY          YZ          ZX
  --------------------------------------------------------------------------------------
  Alpha Z  1198.52204  1198.52204  1198.52204
  Ewald   -6218.22962 -6218.25334 -6229.56044    -0.00000    -0.00000    -0.00000
  Hartree  1792.73211  1792.77135  1781.57431    -0.00000    -0.00000    -0.00000
  E(xc)    -945.95932  -945.95983  -945.91437     0.00000     0.00000     0.00000
  Local    1238.88853  1238.76739  1266.69790     0.00000    -0.00000     0.00000
  n-local  -196.69661  -209.48308  -203.09174    15.79732     0.20278     0.28485
  augment  1436.61449  1436.67760  1433.27225     0.00000     0.00000    -0.00000
  Kinetic  1724.54635  1703.39344  1711.87452     5.01531    -0.14325    -0.21017
  Fock        0.00000     0.00000     0.00000     0.00000     0.00000     0.00000
  -------------------------------------------------------------------------------------
  Total      13.42689    13.42775    13.37447     0.00000     0.00000     0.00000
  in kB     151.49479   151.50447   150.90335     0.00000     0.00000     0.00000
  external pressure =      151.30 kB  Pullay stress =        0.00 kB


 VOLUME and BASIS-vectors are now :
 -----------------------------------------------------------------------------
  energy-cutoff  :      520.00
  volume of cell :      142.00
      direct lattice vectors                 reciprocal lattice vectors
     3.609498417  0.000000000  0.000000000     0.277046804  0.000000000  0.000000000
     0.000000000  3.609613655  0.000000000     0.000000000  0.277037959  0.000000000
     0.000000000  0.000000000 10.898852319     0.000000000  0.000000000  0.091752780

  length of vectors
     3.609498417  3.609613655 10.898852319     0.277046804  0.277037959  0.091752780


 FORCES acting on ions
    electron-ion (+dipol)            ewald-force                    non-local-force                 convergence-correction
 -----------------------------------------------------------------------------------------------
   -.481E-13 0.938E-12 -.102E+00   0.391E-15 0.388E-13 0.171E+00   0.236E-20 -.318E-20 0.132E-17   -.383E-13 -.344E-13 -.983E-04
   -.490E-13 0.107E-11 -.332E+02   -.593E-15 -.220E-13 0.336E+02   -.496E-18 0.760E-19 -.462E+00   -.580E-13 -.251E-13 -.733E-04
   -.466E-13 0.852E-12 0.332E+02   -.454E-13 0.418E-13 -.337E+02   0.228E-18 0.142E-18 0.462E+00   -.225E-13 -.956E-14 0.170E-03
   0.110E-11 0.107E-11 -.176E+02   -.144E-13 -.232E-13 0.158E+02   -.916E-19 -.241E-19 0.170E+01   -.213E-12 -.135E-13 -.364E-04
   0.109E-11 0.753E-11 0.175E+02   0.208E-13 -.254E-13 -.159E+02   -.794E-20 0.273E-19 -.170E+01   -.113E-12 0.169E-13 -.644E-04
   0.109E-11 -.364E-11 -.511E-01   -.183E-13 0.157E-13 0.404E-02   -.867E-21 0.101E-21 -.138E-17   -.164E-12 -.721E-14 0.104E-03
   0.109E-11 -.561E-13 -.101E+00   -.342E-13 -.168E-13 0.172E+00   0.637E-21 0.244E-21 0.112E-17   -.175E-12 0.244E-15 -.983E-04
   0.109E-11 0.228E-14 -.332E+02   -.130E-13 -.251E-14 0.336E+02   -.139E-19 0.130E-17 -.462E+00   -.181E-12 0.308E-14 -.733E-04
   0.109E-11 -.619E-13 0.332E+02   0.873E-13 0.312E-14 -.337E+02   0.683E-19 -.619E-18 0.462E+00   -.147E-12 -.772E-14 0.170E-03
   -.176E-13 -.129E-13 0.212E+02   0.188E-13 -.239E-13 -.213E+02   -.144E-18 -.733E-18 -.165E-01   0.465E-13 0.102E-13 -.358E-04
   -.185E-13 -.197E-13 -.213E+02   -.237E-13 0.201E-13 0.213E+02   -.304E-18 0.369E-18 0.165E-01   0.453E-14 -.141E-14 -.387E-04
   -.161E-13 -.491E-13 -.115E-01   -.138E-13 -.336E-13 -.375E-01   0.128E-20 0.288E-20 -.126E-19   0.255E-13 0.663E-14 0.717E-04
 -----------------------------------------------------------------------------------------------
   0.636E-11 0.762E-11 -.486E+00   -.361E-13 -.278E-13 0.362E-12   -.759E-18 0.542E-18 0.111E-15   -.103E-11 -.617E-13 -.270E-05
 
 
 POSITION                                       TOTAL-FORCE (eV/Angst)
 -----------------------------------------------------------------------------------
      0.00000      1.80481      1.81641         0.000000     -0.000000      0.000000
      0.00000      1.80481      5.43530         0.000000     -0.000000     -0.013051
      0.00000      1.80481      9.09656         0.000000     -0.000000      0.013051
      1.80475      1.80481     10.86918        -0.000000      0.000000     -0.022658
      1.80475      1.80481      3.66277         0.000000     -0.000000      0.022658
      1.80475      1.80481      7.26588        -0.000000      0.000000     -0.000000
      1.80475      0.00000      1.81641         0.000000     -0.000000      0.000000
      1.80475      0.00000      5.43521         0.000000     -0.000000     -0.013051
      1.80475      0.00000      9.09665        -0.000000     -0.000000      0.013051
      0.00000      0.00000      0.04177         0.000000     -0.000000     -0.061924
      0.00000      0.00000      3.59102         0.000000     -0.000000      0.061924
      0.00000      0.00000      7.26595         0.000000     -0.000000      0.000000
 -----------------------------------------------------------------------------------
    total drift:                                0.000000      0.000000     -0.485567


--------------------------------------------------------------------------------------------------------



  FREE ENERGIE OF THE ION-ELECTRON SYSTEM (eV)
  ---------------------------------------------------
  free  energy   TOTEN  =       -92.76131579 eV

  energy  without entropy=      -92.76131579  energy(sigma->0) =      -92.76131579
 


--------------------------------------------------------------------------------------------------------


    POTLOK:  cpu time      0.0381: real time      0.0386


--------------------------------------------------------------------------------------------------------


     LOOP+:  cpu time    254.6655: real time    257.0733
 -----------------------------------------------------------------------------
|                                                                             |
|           W    W    AA    RRRRR   N    N  II  N    N   GGGG   !!!           |
|           W    W   A  A   R    R  NN   N  II  NN   N  G    G  !!!           |
|           W    W  A    A  R    R  N N  N  II  N N  N  G       !!!           |
|           W WW W  AAAAAA  RRRRR   N  N N  II  N  N N  G  GGG   !            |
|           WW  WW  A    A  R   R   N   NN  II  N   NN  G    G                |
|           W    W  A    A  R    R  N    N  II  N    N   GGGG   !!!           |
|                                                                             |
|     Tetrahedron method does not include variations of the Fermi             |
|     occupations, so forces and stress will be inaccurate. We suggest        |
|     using a different smearing scheme ISMEAR = 1 or 2 for metals in         |
|     relaxations.                                                            |
|                                                                             |
 -----------------------------------------------------------------------------

    4ORBIT:  cpu time      0.0000: real time      0.0000



 total charge

# of ion       s       p       d       tot
------------------------------------------
    1        0.379   6.394   6.092  12.864
    2        0.372   6.378   6.100  12.851
    3        0.372   6.378   6.100  12.851
    4        0.380   6.385   6.096  12.861
    5        0.380   6.385   6.096  12.861
    6        0.373   6.381   6.080  12.834
    7        0.379   6.394   6.092  12.864
    8        0.372   6.378   6.100  12.851
    9        0.372   6.378   6.100  12.851
   10        0.821   0.818   8.057   9.696
   11        0.821   0.818   8.057   9.696
   12        0.807   0.816   8.070   9.693
--------------------------------------------------
tot          5.827  59.903  79.042 144.772



 magnetization (x)

# of ion       s       p       d       tot
------------------------------------------
    1       -0.017  -0.021  -2.045  -2.082
    2        0.000  -0.013   2.388   2.376
    3        0.000  -0.013   2.388   2.376
    4        0.011   0.021   2.086   2.118
    5        0.011   0.021   2.086   2.118
    6       -0.002  -0.012   2.492   2.479
    7       -0.017  -0.021  -2.045  -2.082
    8        0.000  -0.013   2.388   2.376
    9        0.000  -0.013   2.388   2.376
   10       -0.011  -0.022   0.052   0.019
   11       -0.011  -0.022   0.052   0.019
   12       -0.038  -0.104   0.398   0.255
--------------------------------------------------
tot         -0.072  -0.209  12.630  12.350
 
 BZINTS: Fermi energy:   11.150566;  156.000000 electrons
         Band energy:-0.144496E+04;  BLOECHL correction:   -0.037112

 total amount of memory used by VASP MPI-rank0   176528. kBytes
=======================================================================

   base      :      30000. kBytes
   nonl-proj :      94414. kBytes
   fftplans  :        888. kBytes
   grid      :       6813. kBytes
   one-center:        373. kBytes
   wavefun   :      44040. kBytes
 
  
  
 General timing and accounting informations for this job:
 ========================================================
  
                  Total CPU time used (sec):      272.760
                            User time (sec):      263.612
                          System time (sec):        9.148
                         Elapsed time (sec):      281.310
  
                   Maximum memory used (kb):      942160.
                   Average memory used (kb):          N/A
  
                          Minor page faults:       222825
                          Major page faults:          440
                 Voluntary context switches:         9693
