       N       E                     dE             d eps       ncg     rms          rms(c)
DAV:   1    -0.148332937691E+02   -0.14833E+02   -0.38292E+03 13440   0.537E+01
DAV:   2    -0.150625899137E+02   -0.22930E+00   -0.22877E+00 10368   0.166E+00
DAV:   3    -0.150626206176E+02   -0.30704E-04   -0.30401E-04 16128   0.183E-02
DAV:   4    -0.150626206178E+02   -0.26876E-09   -0.97994E-11 10752   0.765E-06
DAV:   5    -0.150626206178E+02    0.63096E-11    0.52749E-12 16128   0.110E-08    0.262E+00
DAV:   6    -0.150113946832E+02    0.51226E-01   -0.64087E-03 10496   0.461E-02    0.153E+00
DAV:   7    -0.149740104291E+02    0.37384E-01   -0.18495E-02 12288   0.733E-02    0.272E-01
DAV:   8    -0.149739290621E+02    0.81367E-04   -0.28322E-05 11264   0.286E-03    0.433E-02
DAV:   9    -0.149739251468E+02    0.39153E-05   -0.42949E-06 13440   0.119E-03    0.152E-03
DAV:  10    -0.149739241802E+02    0.96662E-06   -0.57027E-09 11264   0.535E-05
   1 F= -.14973924E+02 E0= -.14973924E+02  d E =0.000000E+00
