       N       E                     dE             d eps       ncg     rms          rms(c)
DAV:   1    -0.149808028422E+02   -0.14981E+02   -0.30975E+03 13440   0.408E+01
DAV:   2    -0.150407030942E+02   -0.59900E-01   -0.59765E-01  8960   0.843E-01
DAV:   3    -0.150407061411E+02   -0.30469E-05   -0.30218E-05 17664   0.541E-03
DAV:   4    -0.150407061401E+02    0.98345E-09    0.18348E-12  8960   0.619E-07
DAV:   5    -0.150407061408E+02   -0.61931E-09    0.96555E-14 17536   0.169E-09    0.287E+00
DAV:   6    -0.149897563498E+02    0.50950E-01   -0.60807E-03  9728   0.409E-02    0.165E+00
DAV:   7    -0.149522262049E+02    0.37530E-01   -0.17627E-02 10240   0.663E-02    0.294E-01
DAV:   8    -0.149520993004E+02    0.12690E-03   -0.39672E-05 11008   0.299E-03    0.563E-02
DAV:   9    -0.149520950712E+02    0.42292E-05   -0.43267E-06 13824   0.108E-03    0.177E-03
DAV:  10    -0.149520944462E+02    0.62497E-06   -0.47404E-09 10624   0.436E-05
   1 F= -.14952094E+02 E0= -.14952094E+02  d E =0.000000E+00
