       N       E                     dE             d eps       ncg     rms          rms(c)
DAV:   1    -0.128561899062E+02   -0.12856E+02   -0.54032E+03  9088   0.893E+01
DAV:   2    -0.150656395752E+02   -0.22094E+01   -0.22073E+01 13440   0.438E+00
DAV:   3    -0.150661466870E+02   -0.50711E-03   -0.50417E-03  8960   0.919E-02
DAV:   4    -0.150661467017E+02   -0.14725E-07   -0.14292E-07 17792   0.472E-04
DAV:   5    -0.150661467013E+02    0.42832E-09   -0.43809E-12  8960   0.364E-08    0.261E+00
DAV:   6    -0.150147103983E+02    0.51436E-01   -0.65237E-03 11520   0.489E-02    0.152E+00
DAV:   7    -0.149773469241E+02    0.37363E-01   -0.18723E-02 12544   0.776E-02    0.270E-01
DAV:   8    -0.149772657605E+02    0.81164E-04   -0.28899E-05 11904   0.346E-03    0.412E-02
DAV:   9    -0.149772619281E+02    0.38324E-05   -0.42584E-06 13696   0.123E-03    0.127E-03
DAV:  10    -0.149772609520E+02    0.97616E-06   -0.66924E-09 11648   0.733E-05
   1 F= -.14977261E+02 E0= -.14977261E+02  d E =0.000000E+00
