       N       E                     dE             d eps       ncg     rms          rms(c)
DAV:   1    -0.141480905630E+02   -0.14148E+02   -0.45644E+03 12032   0.710E+01
DAV:   2    -0.150654489662E+02   -0.91736E+00   -0.91304E+00 13824   0.296E+00
DAV:   3    -0.150656000917E+02   -0.15113E-03   -0.14978E-03  9728   0.441E-02
DAV:   4    -0.150656000952E+02   -0.34891E-08   -0.31281E-08 17152   0.178E-04
DAV:   5    -0.150656000946E+02    0.58196E-09    0.20244E-12  9728   0.179E-08    0.261E+00
DAV:   6    -0.150141552703E+02    0.51445E-01   -0.65220E-03 10752   0.484E-02    0.152E+00
DAV:   7    -0.149767658672E+02    0.37389E-01   -0.18704E-02 12672   0.766E-02    0.270E-01
DAV:   8    -0.149766843526E+02    0.81515E-04   -0.28177E-05 11776   0.309E-03    0.416E-02
DAV:   9    -0.149766804880E+02    0.38647E-05   -0.42934E-06 14080   0.122E-03    0.127E-03
DAV:  10    -0.149766795174E+02    0.97053E-06   -0.60908E-09 11264   0.621E-05
   1 F= -.14976680E+02 E0= -.14976680E+02  d E =0.000000E+00
