       N       E                     dE             d eps       ncg     rms          rms(c)
DAV:   1    -0.124379434596E+02   -0.12438E+02   -0.59444E+03  8960   0.101E+02
DAV:   2    -0.150655499020E+02   -0.26276E+01   -0.26223E+01 13440   0.483E+00
DAV:   3    -0.150662236712E+02   -0.67377E-03   -0.67267E-03  8960   0.108E-01
DAV:   4    -0.150662236925E+02   -0.21309E-07   -0.21051E-07 17920   0.594E-04
DAV:   5    -0.150662236928E+02   -0.31548E-09   -0.91593E-12  8960   0.322E-08    0.261E+00
DAV:   6    -0.150148210623E+02    0.51403E-01   -0.65251E-03 11648   0.493E-02    0.152E+00
DAV:   7    -0.149774777490E+02    0.37343E-01   -0.18742E-02 12672   0.786E-02    0.270E-01
DAV:   8    -0.149773965425E+02    0.81206E-04   -0.29264E-05 11648   0.366E-03    0.410E-02
DAV:   9    -0.149773927249E+02    0.38176E-05   -0.42578E-06 14208   0.124E-03    0.127E-03
DAV:  10    -0.149773917470E+02    0.97788E-06   -0.70301E-09 11264   0.799E-05
   1 F= -.14977392E+02 E0= -.14977392E+02  d E =0.000000E+00
