       N       E                     dE             d eps       ncg     rms          rms(c)
DAV:   1    -0.147400440353E+02   -0.14740E+02   -0.40132E+03 13440   0.591E+01
DAV:   2    -0.150646626342E+02   -0.32462E+00   -0.32383E+00 11264   0.197E+00
DAV:   3    -0.150647145608E+02   -0.51927E-04   -0.51817E-04 13952   0.243E-02
DAV:   4    -0.150647145600E+02    0.83435E-09   -0.95341E-10 13312   0.258E-05
DAV:   5    -0.150647145605E+02   -0.51608E-09    0.43200E-12 13440   0.201E-08    0.261E+00
DAV:   6    -0.150133476370E+02    0.51367E-01   -0.64886E-03 10752   0.477E-02    0.152E+00
DAV:   7    -0.149759424090E+02    0.37405E-01   -0.18650E-02 12160   0.754E-02    0.270E-01
DAV:   8    -0.149758619952E+02    0.80414E-04   -0.27742E-05 11776   0.292E-03    0.422E-02
DAV:   9    -0.149758580652E+02    0.39300E-05   -0.43397E-06 13568   0.122E-03    0.135E-03
DAV:  10    -0.149758570835E+02    0.98168E-06   -0.57607E-09 11008   0.566E-05
   1 F= -.14975857E+02 E0= -.14975857E+02  d E =0.000000E+00
