       N       E                     dE             d eps       ncg     rms          rms(c)
DAV:   1    -0.126488395945E+02   -0.12649E+02   -0.54765E+03  8960   0.935E+01
DAV:   2    -0.150656031014E+02   -0.24168E+01   -0.24126E+01 13440   0.460E+00
DAV:   3    -0.150662121400E+02   -0.60904E-03   -0.60637E-03  8960   0.101E-01
DAV:   4    -0.150662121587E+02   -0.18760E-07   -0.18640E-07 17920   0.546E-04
DAV:   5    -0.150662121580E+02    0.75937E-09    0.56262E-12  8960   0.277E-08    0.261E+00
DAV:   6    -0.150147894015E+02    0.51423E-01   -0.65252E-03 11776   0.491E-02    0.152E+00
DAV:   7    -0.149774380461E+02    0.37351E-01   -0.18731E-02 12416   0.781E-02    0.270E-01
DAV:   8    -0.149773568347E+02    0.81211E-04   -0.29190E-05 11904   0.359E-03    0.411E-02
DAV:   9    -0.149773530117E+02    0.38230E-05   -0.42537E-06 13952   0.124E-03    0.127E-03
DAV:  10    -0.149773520344E+02    0.97730E-06   -0.69204E-09 11392   0.777E-05
   1 F= -.14977352E+02 E0= -.14977352E+02  d E =0.000000E+00
