       N       E                     dE             d eps       ncg     rms          rms(c)
DAV:   1    -0.133752075634E+02   -0.13375E+02   -0.52146E+03  9984   0.839E+01
DAV:   2    -0.150656138433E+02   -0.16904E+01   -0.16830E+01 13440   0.385E+00
DAV:   3    -0.150659749733E+02   -0.36113E-03   -0.35947E-03  9216   0.735E-02
DAV:   4    -0.150659749836E+02   -0.10278E-07   -0.97414E-08 17664   0.363E-04
DAV:   5    -0.150659749838E+02   -0.25022E-09    0.14138E-12  9216   0.207E-08    0.261E+00
DAV:   6    -0.150145317367E+02    0.51443E-01   -0.65218E-03 11136   0.487E-02    0.152E+00
DAV:   7    -0.149771579630E+02    0.37374E-01   -0.18716E-02 12544   0.772E-02    0.270E-01
DAV:   8    -0.149770768445E+02    0.81118E-04   -0.28613E-05 12032   0.333E-03    0.413E-02
DAV:   9    -0.149770729992E+02    0.38453E-05   -0.42670E-06 13824   0.122E-03    0.127E-03
DAV:  10    -0.149770720265E+02    0.97271E-06   -0.64963E-09 11392   0.692E-05
   1 F= -.14977072E+02 E0= -.14977072E+02  d E =0.000000E+00
