       N       E                     dE             d eps       ncg     rms          rms(c)
DAV:   1    -0.141126120974E+02   -0.14113E+02   -0.48382E+03 11648   0.769E+01
DAV:   2    -0.150655603888E+02   -0.95295E+00   -0.94913E+00 13568   0.307E+00
DAV:   3    -0.150657247025E+02   -0.16431E-03   -0.16302E-03  9344   0.470E-02
DAV:   4    -0.150657247070E+02   -0.44813E-08   -0.36607E-08 17536   0.205E-04
DAV:   5    -0.150657247057E+02    0.12321E-08    0.21422E-12  9216   0.207E-08    0.261E+00
DAV:   6    -0.150142784223E+02    0.51446E-01   -0.65222E-03 11392   0.486E-02    0.152E+00
DAV:   7    -0.149768983565E+02    0.37380E-01   -0.18708E-02 12288   0.768E-02    0.270E-01
DAV:   8    -0.149768171237E+02    0.81233E-04   -0.28450E-05 12416   0.322E-03    0.415E-02
DAV:   9    -0.149768132629E+02    0.38608E-05   -0.42796E-06 13440   0.123E-03    0.127E-03
DAV:  10    -0.149768122903E+02    0.97264E-06   -0.63454E-09 12160   0.667E-05
   1 F= -.14976812E+02 E0= -.14976812E+02  d E =0.000000E+00
