       N       E                     dE             d eps       ncg     rms          rms(c)
DAV:   1    -0.145652441222E+02   -0.14565E+02   -0.42624E+03 12928   0.653E+01
DAV:   2    -0.150654585132E+02   -0.50021E+00   -0.50362E+00 13312   0.237E+00
DAV:   3    -0.150655181587E+02   -0.59646E-04   -0.60412E-04 10880   0.272E-02
DAV:   4    -0.150655181595E+02   -0.75477E-09   -0.73556E-09 16000   0.828E-05
DAV:   5    -0.150655181592E+02    0.30167E-09   -0.44343E-12 10752   0.192E-08    0.261E+00
DAV:   6    -0.150140770180E+02    0.51441E-01   -0.65184E-03 10624   0.482E-02    0.152E+00
DAV:   7    -0.149766744146E+02    0.37403E-01   -0.18697E-02 12288   0.763E-02    0.270E-01
DAV:   8    -0.149765929283E+02    0.81486E-04   -0.28098E-05 12160   0.302E-03    0.416E-02
DAV:   9    -0.149765890700E+02    0.38584E-05   -0.43036E-06 13568   0.122E-03    0.129E-03
DAV:  10    -0.149765880956E+02    0.97437E-06   -0.59936E-09 11520   0.599E-05
   1 F= -.14976588E+02 E0= -.14976588E+02  d E =0.000000E+00
