 vasp.6.4.3 19Mar24 (build Mar 26 2024 14:05:37) complex                        
  
 executed on             LinuxIFC date 2025.01.02  08:34:35
 running  128 mpi-ranks, on    1 nodes
 distrk:  each k-point on  128 cores,    1 groups
 distr:  one band on NCORE=   1 cores,  128 groups


--------------------------------------------------------------------------------------------------------


 INCAR:
   EDIFF = 1e-06
   EDIFFG = -0.01
   ENCUT = 670
   GGA = Pe
   IBRION = -1
   ISIF = 2
   ISMEAR = -5
   LCHARG = False
   LREAL = False
   LWAVE = False
   NELM = 200
   NSW = 0
   PREC = Accurate
   SIGMA = 0.2

 POTCAR:    PAW_PBE Al 04Jan2001                  
 -----------------------------------------------------------------------------
|                                                                             |
|           W    W    AA    RRRRR   N    N  II  N    N   GGGG   !!!           |
|           W    W   A  A   R    R  NN   N  II  NN   N  G    G  !!!           |
|           W    W  A    A  R    R  N N  N  II  N N  N  G       !!!           |
|           W WW W  AAAAAA  RRRRR   N  N N  II  N  N N  G  GGG   !            |
|           WW  WW  A    A  R   R   N   NN  II  N   NN  G    G                |
|           W    W  A    A  R    R  N    N  II  N    N   GGGG   !!!           |
|                                                                             |
|     For optimal performance we recommend to set                             |
|       NCORE = 2 up to number-of-cores-per-socket                            |
|     NCORE specifies how many cores store one orbital (NPAR=cpu/NCORE).      |
|     This setting can greatly improve the performance of VASP for DFT.       |
|     The default, NCORE=1 might be grossly inefficient on modern             |
|     multi-core architectures or massively parallel machines. Do your        |
|     own testing! More info at https://www.vasp.at/wiki/index.php/NCORE      |
|     Unfortunately you need to use the default for GW and RPA                |
|     calculations (for HF NCORE is supported but not extensively tested      |
|     yet).                                                                   |
|                                                                             |
 -----------------------------------------------------------------------------

 POTCAR:    PAW_PBE Al 04Jan2001                  
   SHA256 =  17880443556af62b473fe41b62a467bd001ad55d2cabe504a3f22e34d4e9db96 Al/POTCAR             
   COPYR  = (c) Copyright 04Jan2001 Georg Kresse                                                    
   COPYR  = This file is part of the software VASP. Any use, copying, and all other rights are regul
   COPYR  = If you do not have a valid VASP license, you may not use, copy or distribute this file. 
   VRHFIN =Al: s2p1                                                                                 
   LEXCH  = PE                                                                                      
   EATOM  =    53.5387 eV,    3.9350 Ry                                                             
                                                                                                    
   TITEL  = PAW_PBE Al 04Jan2001                                                                    
   LULTRA =        F    use ultrasoft PP ?                                                          
   IUNSCR =        1    unscreen: 0-lin 1-nonlin 2-no                                               
   RPACOR =    1.500    partial core radius                                                         
   POMASS =   26.981; ZVAL   =    3.000    mass and valenz                                          
   RCORE  =    1.900    outmost cutoff radius                                                       
   RWIGS  =    2.650; RWIGS  =    1.402    wigner-seitz radius (au A)                               
   ENMAX  =  240.300; ENMIN  =  180.225 eV                                                          
   ICORE  =        2    local potential                                                             
   LCOR   =        T    correct aug charges                                                         
   LPAW   =        T    paw PP                                                                      
   EAUG   =  291.052                                                                                
   DEXC   =    0.000                                                                                
   RMAX   =    1.939    core radius for proj-oper                                                   
   RAUG   =    1.300    factor for augmentation sphere                                              
   RDEP   =    1.966    radius for radial grids                                                     
   RDEPT  =    1.856    core radius for aug-charge                                                  
                                                                                                    
   Atomic configuration                                                                             
    6 entries                                                                                       
     n  l   j            E        occ.                                                              
     1  0  0.50     -1511.1048   2.0000                                                             
     2  0  0.50      -108.1629   2.0000                                                             
     2  1  1.50       -69.6402   6.0000                                                             
     3  0  0.50        -7.7528   2.0000                                                             
     3  1  1.50        -2.7121   1.0000                                                             
     3  2  2.50        -2.7212   0.0000                                                             
   Description                                                                                      
     l       E           TYP  RCUT    TYP  RCUT                                                     
     0     -7.7528455     23  1.900                                                                 
     0     -3.3096929     23  1.900                                                                 
     1     -2.7120682     23  1.900                                                                 
     1     13.6058260     23  1.900                                                                 
     2     -2.7211652      7  1.900                                                                 
  local pseudopotential read in
  partial core-charges read in
  partial kinetic energy density read in
  atomic valenz-charges read in
  non local Contribution for L=           0  read in
    real space projection operators read in
  non local Contribution for L=           0  read in
    real space projection operators read in
  non local Contribution for L=           1  read in
    real space projection operators read in
  non local Contribution for L=           1  read in
    real space projection operators read in
    PAW grid and wavefunctions read in
 
   number of l-projection  operators is LMAX  =           4
   number of lm-projection operators is LMMAX =           8
 
  PAW_PBE Al 04Jan2001                  :
 energy of atom  1       EATOM=  -53.5387
 kinetic energy error for atom=    0.0001 (will be added to EATOM!!)
 
 
 POSCAR: Al4
  positions in direct lattice
  velocities in cartesian coordinates


 exchange-correlation table for PE
   RHO(1)=    0.500       N(1)  =     2000
   RHO(2)=  100.500       N(2)  =     4000
 


--------------------------------------------------------------------------------------------------------


 ion  position               nearest neighbor table
   1  0.000  0.000  0.000-   2 2.86   3 2.86   2 2.86   3 2.86   2 2.86   4 2.86   2 2.86   3 2.86
                             4 2.86   3 2.86   4 2.86   4 2.86
   2  0.000  0.500  0.500-   1 2.86   4 2.86   1 2.86   4 2.86   1 2.86   3 2.86   1 2.86   3 2.86
                             4 2.86   4 2.86   3 2.86   3 2.86
   3  0.500  0.000  0.500-   1 2.86   4 2.86   1 2.86   4 2.86   2 2.86   4 2.86   4 2.86   1 2.86
                             2 2.86   1 2.86   2 2.86   2 2.86
   4  0.500  0.500  0.000-   2 2.86   3 2.86   2 2.86   3 2.86   1 2.86   3 2.86   3 2.86   1 2.86
                             2 2.86   2 2.86   1 2.86   1 2.86
 
  LATTYP: Found a simple cubic cell.
 ALAT       =     4.0436897231
  
  Lattice vectors:
  
 A1 = (   4.0436897231,   0.0000000000,   0.0000000000)
 A2 = (   0.0000000000,   4.0436897231,   0.0000000000)
 A3 = (   0.0000000000,   0.0000000000,   4.0436897231)


Analysis of symmetry for initial positions (statically):
=====================================================================
 Subroutine PRICEL returns following result:
 
  LATTYP: Found a face centered cubic cell.
 ALAT       =     4.0436897231
  
  Lattice vectors:
  
 A1 = (   2.0218448615,  -2.0218448615,   0.0000000000)
 A2 = (   2.0218448615,   0.0000000000,   2.0218448615)
 A3 = (  -0.0000000000,  -2.0218448615,   2.0218448615)
 
   4 primitive cells build up your supercell.
 

 Routine SETGRP: Setting up the symmetry group for a 
 simple cubic supercell.


 Subroutine GETGRP returns: Found 48 space group operations
 (whereof 48 operations were pure point group operations)
 out of a pool of 48 trial point group operations.


The static configuration has the point symmetry O_h .


Analysis of symmetry for dynamics (positions and initial velocities):
=====================================================================
 Subroutine PRICEL returns following result:
 
  LATTYP: Found a face centered cubic cell.
 ALAT       =     4.0436897231
  
  Lattice vectors:
  
 A1 = (   2.0218448615,  -2.0218448615,   0.0000000000)
 A2 = (   2.0218448615,   0.0000000000,   2.0218448615)
 A3 = (  -0.0000000000,  -2.0218448615,   2.0218448615)
 
   4 primitive cells build up your supercell.
 

 Routine SETGRP: Setting up the symmetry group for a 
 simple cubic supercell.


 Subroutine GETGRP returns: Found 48 space group operations
 (whereof 48 operations were pure point group operations)
 out of a pool of 48 trial point group operations.


The dynamic configuration has the point symmetry O_h .


 Subroutine INISYM returns: Found 48 space group operations
 (whereof 48 operations are pure point group operations),
 and found     4 'primitive' translations


----------------------------------------------------------------------------------------

                                     Primitive cell                                     

  volume of cell :      16.5300

  direct lattice vectors                    reciprocal lattice vectors
     2.021844862 -2.021844862  0.000000000     0.247298895 -0.247298895 -0.247298895
     2.021844862  0.000000000  2.021844862     0.247298895  0.247298895  0.247298895
    -0.000000000 -2.021844862  2.021844862    -0.247298895 -0.247298895  0.247298895

  length of vectors
     2.859320424  2.859320424  2.859320424     0.428334251  0.428334251  0.428334251

  position of ions in fractional coordinates (direct lattice)
     0.000000000  0.000000000  0.000000000

  ion indices of the primitive-cell ions
   primitive index   ion index
                 1           1

----------------------------------------------------------------------------------------

 
 
 KPOINTS: pymatgen with grid density = 4000 / numb

Automatic generation of k-mesh.
 Grid dimensions read from file:
 generate k-points for:    9    9    9

 Generating k-lattice:

  Cartesian coordinates                     Fractional coordinates (reciprocal lattice)
     0.027477655 -0.000000000  0.000000000     0.111111111  0.000000000  0.000000000
     0.000000000  0.027477655  0.000000000     0.000000000  0.111111111  0.000000000
    -0.000000000 -0.000000000  0.027477655     0.000000000  0.000000000  0.111111111

  Length of vectors
     0.027477655  0.027477655  0.027477655

  Shift w.r.t. Gamma in fractional coordinates (k-lattice)
     0.000000000  0.000000000  0.000000000

 TETIRR: Found    353 inequivalent tetrahedra from     4374
 
 Subroutine IBZKPT returns following result:
 ===========================================
 
 Found     35 irreducible k-points:
 
 Following reciprocal coordinates:
            Coordinates               Weight
  0.000000  0.000000  0.000000      1.000000
  0.111111  0.000000  0.000000      6.000000
  0.222222  0.000000  0.000000      6.000000
  0.333333  0.000000  0.000000      6.000000
  0.444444  0.000000  0.000000      6.000000
  0.111111  0.111111  0.000000     12.000000
  0.222222  0.111111  0.000000     24.000000
  0.333333  0.111111  0.000000     24.000000
  0.444444  0.111111  0.000000     24.000000
  0.222222  0.222222  0.000000     12.000000
  0.333333  0.222222  0.000000     24.000000
  0.444444  0.222222  0.000000     24.000000
  0.333333  0.333333  0.000000     12.000000
  0.444444  0.333333  0.000000     24.000000
  0.444444  0.444444  0.000000     12.000000
  0.111111  0.111111  0.111111      8.000000
  0.222222  0.111111  0.111111     24.000000
  0.333333  0.111111  0.111111     24.000000
  0.444444  0.111111  0.111111     24.000000
  0.222222  0.222222  0.111111     24.000000
  0.333333  0.222222  0.111111     48.000000
  0.444444  0.222222  0.111111     48.000000
  0.333333  0.333333  0.111111     24.000000
  0.444444  0.333333  0.111111     48.000000
  0.444444  0.444444  0.111111     24.000000
  0.222222  0.222222  0.222222      8.000000
  0.333333  0.222222  0.222222     24.000000
  0.444444  0.222222  0.222222     24.000000
  0.333333  0.333333  0.222222     24.000000
  0.444444  0.333333  0.222222     48.000000
  0.444444  0.444444  0.222222     24.000000
  0.333333  0.333333  0.333333      8.000000
  0.444444  0.333333  0.333333     24.000000
  0.444444  0.444444  0.333333     24.000000
  0.444444  0.444444  0.444444      8.000000
 
 Following cartesian coordinates:
            Coordinates               Weight
  0.000000  0.000000  0.000000      1.000000
  0.027478  0.000000  0.000000      6.000000
  0.054955  0.000000  0.000000      6.000000
  0.082433  0.000000  0.000000      6.000000
  0.109911  0.000000  0.000000      6.000000
  0.027478  0.027478  0.000000     12.000000
  0.054955  0.027478  0.000000     24.000000
  0.082433  0.027478  0.000000     24.000000
  0.109911  0.027478  0.000000     24.000000
  0.054955  0.054955  0.000000     12.000000
  0.082433  0.054955  0.000000     24.000000
  0.109911  0.054955  0.000000     24.000000
  0.082433  0.082433  0.000000     12.000000
  0.109911  0.082433  0.000000     24.000000
  0.109911  0.109911  0.000000     12.000000
  0.027478  0.027478  0.027478      8.000000
  0.054955  0.027478  0.027478     24.000000
  0.082433  0.027478  0.027478     24.000000
  0.109911  0.027478  0.027478     24.000000
  0.054955  0.054955  0.027478     24.000000
  0.082433  0.054955  0.027478     48.000000
  0.109911  0.054955  0.027478     48.000000
  0.082433  0.082433  0.027478     24.000000
  0.109911  0.082433  0.027478     48.000000
  0.109911  0.109911  0.027478     24.000000
  0.054955  0.054955  0.054955      8.000000
  0.082433  0.054955  0.054955     24.000000
  0.109911  0.054955  0.054955     24.000000
  0.082433  0.082433  0.054955     24.000000
  0.109911  0.082433  0.054955     48.000000
  0.109911  0.109911  0.054955     24.000000
  0.082433  0.082433  0.082433      8.000000
  0.109911  0.082433  0.082433     24.000000
  0.109911  0.109911  0.082433     24.000000
  0.109911  0.109911  0.109911      8.000000
 


--------------------------------------------------------------------------------------------------------




 Dimension of arrays:
   k-points           NKPTS =     35   k-points in BZ     NKDIM =     35   number of bands    NBANDS=    128
   number of dos      NEDOS =    301   number of ions     NIONS =      4
   non local maximal  LDIM  =      4   non local SUM 2l+1 LMDIM =      8
   total plane-waves  NPLWV =  46656
   max r-space proj   IRMAX =      1   max aug-charges    IRDMAX=  27659
   dimension x,y,z NGX =    36 NGY =   36 NGZ =   36
   dimension x,y,z NGXF=    72 NGYF=   72 NGZF=   72
   support grid    NGXF=    72 NGYF=   72 NGZF=   72
   ions per type =               4
   NGX,Y,Z   is equivalent  to a cutoff of  14.80, 14.80, 14.80 a.u.
   NGXF,Y,Z  is equivalent  to a cutoff of  29.60, 29.60, 29.60 a.u.

 SYSTEM =  unknown system                          
 POSCAR =  Al4                                     

 Startparameter for this run:
   NWRITE =      2    write-flag & timer
   PREC   = accura    normal or accurate (medium, high low for compatibility)
   ISTART =      0    job   : 0-new  1-cont  2-samecut
   ICHARG =      2    charge: 1-file 2-atom 10-const
   ISPIN  =      1    spin polarized calculation?
   LNONCOLLINEAR =      F non collinear calculations
   LSORBIT =      F    spin-orbit coupling
   INIWAV =      1    electr: 0-lowe 1-rand  2-diag
   LASPH  =      F    aspherical Exc in radial PAW
 Electronic Relaxation 1
   ENCUT  =  670.0 eV  49.24 Ry    7.02 a.u.   8.53  8.53  8.53*2*pi/ulx,y,z
   ENINI  =  670.0     initial cutoff
   ENAUG  =  291.1 eV  augmentation charge cutoff
   NELM   =    200;   NELMIN=  2; NELMDL=  0     # of ELM steps 
   EDIFF  = 0.1E-05   stopping-criterion for ELM
   LREAL  =      F    real-space projection
   NLSPLINE    = F    spline interpolate recip. space projectors
   LCOMPAT=      F    compatible to vasp.4.4
   GGA_COMPAT  = T    GGA compatible to vasp.4.4-vasp.4.6
   LMAXPAW     = -100 max onsite density
   LMAXMIX     =    2 max onsite mixed and CHGCAR
   VOSKOWN=      0    Vosko Wilk Nusair interpolation
   ROPT   =    0.00000
 Ionic relaxation
   EDIFFG = -.1E-01   stopping-criterion for IOM
   NSW    =      0    number of steps for IOM
   NBLOCK =      1;   KBLOCK =      1    inner block; outer block 
   IBRION =     -1    ionic relax: 0-MD 1-quasi-New 2-CG
   NFREE  =      0    steps in history (QN), initial steepest desc. (CG)
   ISIF   =      2    stress and relaxation
   IWAVPR =     10    prediction:  0-non 1-charg 2-wave 3-comb
   ISYM   =      2    0-nonsym 1-usesym 2-fastsym
   LCORR  =      T    Harris-Foulkes like correction to forces

   POTIM  = 0.5000    time-step for ionic-motion
   TEIN   =    0.0    initial temperature
   TEBEG  =    0.0;   TEEND  =   0.0 temperature during run
   SMASS  =  -3.00    Nose mass-parameter (am)
   estimated Nose-frequenzy (Omega)   =  0.10E-29 period in steps = 0.13E+47 mass=  -0.374E-27a.u.
   SCALEE = 1.0000    scale energy and forces
   NPACO  =    256;   APACO  = 10.0  distance and # of slots for P.C.
   PSTRESS=    0.0 pullay stress

  Mass of Ions in am
   POMASS =  26.98
  Ionic Valenz
   ZVAL   =   3.00
  Atomic Wigner-Seitz radii
   RWIGS  =  -1.00
  virtual crystal weights 
   VCA    =   1.00
   NELECT =      12.0000    total number of electrons
   NUPDOWN=      -1.0000    fix difference up-down

 DOS related values:
   EMIN   =  10.00;   EMAX   =-10.00  energy-range for DOS
   EFERMI =   0.00;   METHOD = LEGACY      
   ISMEAR =    -5;   SIGMA  =   0.20  broadening in eV -4-tet -1-fermi 0-gaus

 Electronic relaxation 2 (details)
   IALGO  =     38    algorithm
   LDIAG  =      T    sub-space diagonalisation (order eigenvalues)
   LSUBROT=      F    optimize rotation matrix (better conditioning)
   TURBO    =      0    0=normal 1=particle mesh
   IRESTART =      0    0=no restart 2=restart with 2 vectors
   NREBOOT  =      0    no. of reboots
   NMIN     =      0    reboot dimension
   EREF     =   0.00    reference energy to select bands
   IMIX   =      4    mixing-type and parameters
     AMIX     =   0.40;   BMIX     =  1.00
     AMIX_MAG =   1.60;   BMIX_MAG =  1.00
     AMIN     =   0.10
     WC   =   100.;   INIMIX=   1;  MIXPRE=   1;  MAXMIX= -45

 Intra band minimization:
   WEIMIN = 0.0000     energy-eigenvalue tresh-hold
   EBREAK =  0.20E-08  absolut break condition
   DEPER  =   0.30     relativ break condition  

   TIME   =   0.40     timestep for ELM

  volume/ion in A,a.u.               =      16.53       111.55
  Fermi-wavevector in a.u.,A,eV,Ry     =   0.926881  1.751552 11.688885  0.859109
  Thomas-Fermi vector in A             =   2.052891
 
 Write flags
   LWAVE        =      F    write WAVECAR
   LDOWNSAMPLE  =      F    k-point downsampling of WAVECAR
   LCHARG       =      F    write CHGCAR
   LVTOT        =      F    write LOCPOT, total local potential
   LVHAR        =      F    write LOCPOT, Hartree potential only
   WRT_POTENTIAL= false  ! write potential to hdf5 file
   LELF         =      F    write electronic localiz. function (ELF)
   LORBIT       =      0    0 simple, 1 ext, 2 COOP (PROOUT), +10 PAW based schemes


 Dipole corrections
   LMONO      =      F    monopole corrections only (constant potential shift)
   LDIPOL     =      F    correct potential (dipole corrections)
   IDIPOL     =      0    1-x, 2-y, 3-z, 4-all directions 
   EPSILON    =  1.0000000 bulk dielectric constant
   LVACPOTAV  =      F  vacuum potentials using an averaging scheme for the charge density
   VACPOTFLAT =  0.1000000 required flatness to determine vacuum potential
 Exchange correlation treatment:
   GGA     = PE    functional components
   XC_C    = 1    coefficients multiplying the functional components
   LIBXC   =     F    Libxc                    
   VOSKOWN =     0    Vosko Wilk Nusair interpolation
   LHFCALC =     F    Hartree Fock is set to
   LHFONE  =     F    Hartree Fock one center treatment
   AEXX    =    0.0000 exact exchange contribution

 Parameters of functionals:
   PE:
     No parameter
 
 Van der Waals corrections
   IVDW    =     0    specifies the selected vdW correction

 Linear response parameters
   LEPSILON=     F    determine dielectric tensor
   LRPA    =     F    only Hartree local field effects (RPA)
   LNABLA  =     F    use nabla operator in PAW spheres
   LVEL    =     F    velocity operator in full k-point grid
   CSHIFT  =0.1000    complex shift for real part using Kramers Kronig
   OMEGAMAX=  -1.0    maximum frequency
   DEG_THRESHOLD= 0.2000000E-02 threshold for treating states as degnerate
   RTIME   =   -0.100 relaxation time in fs
  (WPLASMAI=    0.000 imaginary part of plasma frequency in eV, 0.658/RTIME)
   DFIELD  = 0.0000000 0.0000000 0.0000000 field for delta impulse in time
 
  Optional k-point grid parameters
   LKPOINTS_OPT  =     F    use optional k-point grid
   KPOINTS_OPT_MODE=     1    mode for optional k-point grid
 
 Orbital magnetization related:
   ORBITALMAG=     F  switch on orbital magnetization
   LCHIMAG   =     F  perturbation theory with respect to B field
   DQ        =  0.001000  dq finite difference perturbation B field
   LLRAUG    =     F  two centre corrections for induced B field
   LBONE     =     F  B-component reconstruction in AE one-centre
   LVGVCALC  =     T  calculate vGv susceptibility
   LVGVAPPL  =     F  apply vGv susceptibility instead of pGv for G=0

 Random number generation:
   RANDOM_GENERATOR = DEFAULT
   PCG_SEED         = not used


--------------------------------------------------------------------------------------------------------


 Static calculation
 charge density and potential will be updated during run
 non-spin polarized calculation
 Variant of blocked Davidson
 Davidson routine will perform the subspace rotation
 perform sub-space diagonalisation
    after iterative eigenvector-optimisation
 modified Broyden-mixing scheme, WC =      100.0
 initial mixing is a Kerker type mixing with AMIX =  0.4000 and BMIX =      1.0000
 Hartree-type preconditioning will be used
 using additional bands          122
 reciprocal scheme for non local part
 use partial core corrections
 calculate Harris-corrections to forces 
   (improved forces if not selfconsistent)
 use gradient corrections 
 use of overlap-Matrix (Vanderbilt PP)
 Fermi weights with tetrahedron method with Bloechl corrections


--------------------------------------------------------------------------------------------------------


  energy-cutoff  :      670.00
  volume of cell :       66.12
      direct lattice vectors                 reciprocal lattice vectors
     4.043689723  0.000000000  0.000000000     0.247298895 -0.000000000  0.000000000
     0.000000000  4.043689723  0.000000000     0.000000000  0.247298895  0.000000000
     0.000000000  0.000000000  4.043689723    -0.000000000 -0.000000000  0.247298895

  length of vectors
     4.043689723  4.043689723  4.043689723     0.247298895  0.247298895  0.247298895


 
 k-points in units of 2pi/SCALE and weight: pymatgen with grid density = 4000 / numb
   0.00000000  0.00000000  0.00000000       0.001
   0.02747765  0.00000000  0.00000000       0.008
   0.05495531  0.00000000  0.00000000       0.008
   0.08243296  0.00000000  0.00000000       0.008
   0.10991062  0.00000000  0.00000000       0.008
   0.02747765  0.02747765  0.00000000       0.016
   0.05495531  0.02747765  0.00000000       0.033
   0.08243296  0.02747765  0.00000000       0.033
   0.10991062  0.02747765  0.00000000       0.033
   0.05495531  0.05495531  0.00000000       0.016
   0.08243296  0.05495531  0.00000000       0.033
   0.10991062  0.05495531  0.00000000       0.033
   0.08243296  0.08243296  0.00000000       0.016
   0.10991062  0.08243296  0.00000000       0.033
   0.10991062  0.10991062  0.00000000       0.016
   0.02747765  0.02747765  0.02747765       0.011
   0.05495531  0.02747765  0.02747765       0.033
   0.08243296  0.02747765  0.02747765       0.033
   0.10991062  0.02747765  0.02747765       0.033
   0.05495531  0.05495531  0.02747765       0.033
   0.08243296  0.05495531  0.02747765       0.066
   0.10991062  0.05495531  0.02747765       0.066
   0.08243296  0.08243296  0.02747765       0.033
   0.10991062  0.08243296  0.02747765       0.066
   0.10991062  0.10991062  0.02747765       0.033
   0.05495531  0.05495531  0.05495531       0.011
   0.08243296  0.05495531  0.05495531       0.033
   0.10991062  0.05495531  0.05495531       0.033
   0.08243296  0.08243296  0.05495531       0.033
   0.10991062  0.08243296  0.05495531       0.066
   0.10991062  0.10991062  0.05495531       0.033
   0.08243296  0.08243296  0.08243296       0.011
   0.10991062  0.08243296  0.08243296       0.033
   0.10991062  0.10991062  0.08243296       0.033
   0.10991062  0.10991062  0.10991062       0.011
 
 k-points in reciprocal lattice and weights: pymatgen with grid density = 4000 / numb
   0.00000000  0.00000000  0.00000000       0.001
   0.11111111  0.00000000  0.00000000       0.008
   0.22222222  0.00000000  0.00000000       0.008
   0.33333333  0.00000000  0.00000000       0.008
   0.44444444  0.00000000  0.00000000       0.008
   0.11111111  0.11111111  0.00000000       0.016
   0.22222222  0.11111111  0.00000000       0.033
   0.33333333  0.11111111  0.00000000       0.033
   0.44444444  0.11111111  0.00000000       0.033
   0.22222222  0.22222222  0.00000000       0.016
   0.33333333  0.22222222  0.00000000       0.033
   0.44444444  0.22222222  0.00000000       0.033
   0.33333333  0.33333333  0.00000000       0.016
   0.44444444  0.33333333  0.00000000       0.033
   0.44444444  0.44444444  0.00000000       0.016
   0.11111111  0.11111111  0.11111111       0.011
   0.22222222  0.11111111  0.11111111       0.033
   0.33333333  0.11111111  0.11111111       0.033
   0.44444444  0.11111111  0.11111111       0.033
   0.22222222  0.22222222  0.11111111       0.033
   0.33333333  0.22222222  0.11111111       0.066
   0.44444444  0.22222222  0.11111111       0.066
   0.33333333  0.33333333  0.11111111       0.033
   0.44444444  0.33333333  0.11111111       0.066
   0.44444444  0.44444444  0.11111111       0.033
   0.22222222  0.22222222  0.22222222       0.011
   0.33333333  0.22222222  0.22222222       0.033
   0.44444444  0.22222222  0.22222222       0.033
   0.33333333  0.33333333  0.22222222       0.033
   0.44444444  0.33333333  0.22222222       0.066
   0.44444444  0.44444444  0.22222222       0.033
   0.33333333  0.33333333  0.33333333       0.011
   0.44444444  0.33333333  0.33333333       0.033
   0.44444444  0.44444444  0.33333333       0.033
   0.44444444  0.44444444  0.44444444       0.011
 
 position of ions in fractional coordinates (direct lattice) 
   0.00000000  0.00000000  0.00000000
   0.00000000  0.50000000  0.50000000
   0.50000000  0.00000000  0.50000000
   0.50000000  0.50000000  0.00000000
 
 position of ions in cartesian coordinates  (Angst):
   0.00000000  0.00000000  0.00000000
   0.00000000  2.02184486  2.02184486
   2.02184486  0.00000000  2.02184486
   2.02184486  2.02184486  0.00000000
 


--------------------------------------------------------------------------------------------------------


 k-point     1 :   0.0000 0.0000 0.0000  plane waves:    2553
 k-point     2 :   0.1111 0.0000 0.0000  plane waves:    2585
 k-point     3 :   0.2222 0.0000 0.0000  plane waves:    2625
 k-point     4 :   0.3333 0.0000 0.0000  plane waves:    2605
 k-point     5 :   0.4444 0.0000 0.0000  plane waves:    2609
 k-point     6 :   0.1111 0.1111 0.0000  plane waves:    2596
 k-point     7 :   0.2222 0.1111 0.0000  plane waves:    2602
 k-point     8 :   0.3333 0.1111 0.0000  plane waves:    2604
 k-point     9 :   0.4444 0.1111 0.0000  plane waves:    2618
 k-point    10 :   0.2222 0.2222 0.0000  plane waves:    2626
 k-point    11 :   0.3333 0.2222 0.0000  plane waves:    2624
 k-point    12 :   0.4444 0.2222 0.0000  plane waves:    2597
 k-point    13 :   0.3333 0.3333 0.0000  plane waves:    2606
 k-point    14 :   0.4444 0.3333 0.0000  plane waves:    2604
 k-point    15 :   0.4444 0.4444 0.0000  plane waves:    2608
 k-point    16 :   0.1111 0.1111 0.1111  plane waves:    2611
 k-point    17 :   0.2222 0.1111 0.1111  plane waves:    2608
 k-point    18 :   0.3333 0.1111 0.1111  plane waves:    2608
 k-point    19 :   0.4444 0.1111 0.1111  plane waves:    2614
 k-point    20 :   0.2222 0.2222 0.1111  plane waves:    2612
 k-point    21 :   0.3333 0.2222 0.1111  plane waves:    2611
 k-point    22 :   0.4444 0.2222 0.1111  plane waves:    2607
 k-point    23 :   0.3333 0.3333 0.1111  plane waves:    2599
 k-point    24 :   0.4444 0.3333 0.1111  plane waves:    2606
 k-point    25 :   0.4444 0.4444 0.1111  plane waves:    2604
 k-point    26 :   0.2222 0.2222 0.2222  plane waves:    2605
 k-point    27 :   0.3333 0.2222 0.2222  plane waves:    2606
 k-point    28 :   0.4444 0.2222 0.2222  plane waves:    2593
 k-point    29 :   0.3333 0.3333 0.2222  plane waves:    2601
 k-point    30 :   0.4444 0.3333 0.2222  plane waves:    2589
 k-point    31 :   0.4444 0.4444 0.2222  plane waves:    2593
 k-point    32 :   0.3333 0.3333 0.3333  plane waves:    2608
 k-point    33 :   0.4444 0.3333 0.3333  plane waves:    2596
 k-point    34 :   0.4444 0.4444 0.3333  plane waves:    2585
 k-point    35 :   0.4444 0.4444 0.4444  plane waves:    2566

 maximum and minimum number of plane-waves per node :      2626     2553

 maximum number of plane-waves:      2626
 maximum index in each direction: 
   IXMAX=    8   IYMAX=    8   IZMAX=    8
   IXMIN=   -8   IYMIN=   -8   IZMIN=   -8


 serial   3D FFT for wavefunctions
 parallel 3D FFT for charge:
    minimum data exchange during FFTs selected (reduces bandwidth)


 total amount of memory used by VASP MPI-rank0    40316. kBytes
=======================================================================

   base      :      30000. kBytes
   nonl-proj :       6193. kBytes
   fftplans  :        395. kBytes
   grid      :       2140. kBytes
   one-center:         12. kBytes
   wavefun   :       1576. kBytes
 
     INWAV:  cpu time      0.0000: real time      0.0000
 Broyden mixing: mesh for mixing (old mesh)
   NGX = 17   NGY = 17   NGZ = 17
  (NGX  = 72   NGY  = 72   NGZ  = 72)
  gives a total of   4913 points

 initial charge density was supplied:
 charge density of overlapping atoms calculated
 number of electron      12.0000000 magnetization 
 keeping initial charge density in first step


--------------------------------------------------------------------------------------------------------


 Maximum index for augmentation-charges         1085 (set IRDMAX)


--------------------------------------------------------------------------------------------------------


 First call to EWALD:  gamma=   0.438
 Maximum number of real-space cells 3x 3x 3
 Maximum number of reciprocal cells 3x 3x 3

    FEWALD:  cpu time      0.0021: real time      0.0023


--------------------------------------- Ionic step        1  -------------------------------------------




--------------------------------------- Iteration      1(   1)  ---------------------------------------


    POTLOK:  cpu time      0.0321: real time      0.0352
    SETDIJ:  cpu time      0.0100: real time      0.0104
     EDDAV:  cpu time     10.7150: real time     10.7719
 BZINTS: Fermi energy:    8.278010;   12.000000 electrons
         Band energy: 0.452493E+02;  BLOECHL correction:   -0.260087
       DOS:  cpu time      0.0310: real time      0.0311
    --------------------------------------------
      LOOP:  cpu time     10.7880: real time     10.8487

 eigenvalue-minimisations  :  9088
 total energy-change (2. order) :-0.1285619E+02  (-0.5403218E+03)
 number of electron      12.0000000 magnetization 
 augmentation part       12.0000000 magnetization 

 Free energy of the ion-electron system (eV)
  ---------------------------------------------------
  alpha Z        PSCENC =        -0.81277799
  Ewald energy   TEWEN  =      -293.88473869
  -Hartree energ DENC   =        -0.40832449
  -exchange      EXHF   =         0.00000000
  -V(xc)+E(xc)   XCENC  =      -104.97206049
  PAW double counting   =       264.80062850     -136.98248303
  entropy T*S    EENTRO =         0.00000000
  eigenvalues    EBANDS =        45.24929917
  atomic energy  EATOM  =       214.15426711
  Solvation  Ediel_sol  =         0.00000000
  ---------------------------------------------------
  free energy    TOTEN  =       -12.85618991 eV

  energy without entropy =      -12.85618991  energy(sigma->0) =      -12.85618991


--------------------------------------------------------------------------------------------------------




--------------------------------------- Iteration      1(   2)  ---------------------------------------


     EDDAV:  cpu time     23.0576: real time     23.1733
 BZINTS: Fermi energy:    7.952207;   12.000000 electrons
         Band energy: 0.430398E+02;  BLOECHL correction:   -0.251133
       DOS:  cpu time      0.0255: real time      0.0256
    --------------------------------------------
      LOOP:  cpu time     23.0832: real time     23.1989

 eigenvalue-minimisations  : 13440
 total energy-change (2. order) :-0.2209450E+01  (-0.2207323E+01)
 number of electron      12.0000000 magnetization 
 augmentation part       12.0000000 magnetization 

 Free energy of the ion-electron system (eV)
  ---------------------------------------------------
  alpha Z        PSCENC =        -0.81277799
  Ewald energy   TEWEN  =      -293.88473869
  -Hartree energ DENC   =        -0.40832449
  -exchange      EXHF   =         0.00000000
  -V(xc)+E(xc)   XCENC  =      -104.97206049
  PAW double counting   =       264.80062850     -136.98248303
  entropy T*S    EENTRO =         0.00000000
  eigenvalues    EBANDS =        43.03984950
  atomic energy  EATOM  =       214.15426711
  Solvation  Ediel_sol  =         0.00000000
  ---------------------------------------------------
  free energy    TOTEN  =       -15.06563958 eV

  energy without entropy =      -15.06563958  energy(sigma->0) =      -15.06563958


--------------------------------------------------------------------------------------------------------




--------------------------------------- Iteration      1(   3)  ---------------------------------------


     EDDAV:  cpu time     10.8639: real time     10.9244
 BZINTS: Fermi energy:    7.952129;   12.000000 electrons
         Band energy: 0.430393E+02;  BLOECHL correction:   -0.251135
       DOS:  cpu time      0.0255: real time      0.0257
    --------------------------------------------
      LOOP:  cpu time     10.8895: real time     10.9501

 eigenvalue-minimisations  :  8960
 total energy-change (2. order) :-0.5071117E-03  (-0.5041737E-03)
 number of electron      12.0000000 magnetization 
 augmentation part       12.0000000 magnetization 

 Free energy of the ion-electron system (eV)
  ---------------------------------------------------
  alpha Z        PSCENC =        -0.81277799
  Ewald energy   TEWEN  =      -293.88473869
  -Hartree energ DENC   =        -0.40832449
  -exchange      EXHF   =         0.00000000
  -V(xc)+E(xc)   XCENC  =      -104.97206049
  PAW double counting   =       264.80062850     -136.98248303
  entropy T*S    EENTRO =         0.00000000
  eigenvalues    EBANDS =        43.03934239
  atomic energy  EATOM  =       214.15426711
  Solvation  Ediel_sol  =         0.00000000
  ---------------------------------------------------
  free energy    TOTEN  =       -15.06614669 eV

  energy without entropy =      -15.06614669  energy(sigma->0) =      -15.06614669


--------------------------------------------------------------------------------------------------------




--------------------------------------- Iteration      1(   4)  ---------------------------------------


     EDDAV:  cpu time     49.0549: real time     49.2819
 BZINTS: Fermi energy:    7.952129;   12.000000 electrons
         Band energy: 0.430393E+02;  BLOECHL correction:   -0.251135
       DOS:  cpu time      0.0176: real time      0.0177
    --------------------------------------------
      LOOP:  cpu time     49.0725: real time     49.2996

 eigenvalue-minimisations  : 17792
 total energy-change (2. order) :-0.1472523E-07  (-0.1429221E-07)
 number of electron      12.0000000 magnetization 
 augmentation part       12.0000000 magnetization 

 Free energy of the ion-electron system (eV)
  ---------------------------------------------------
  alpha Z        PSCENC =        -0.81277799
  Ewald energy   TEWEN  =      -293.88473869
  -Hartree energ DENC   =        -0.40832449
  -exchange      EXHF   =         0.00000000
  -V(xc)+E(xc)   XCENC  =      -104.97206049
  PAW double counting   =       264.80062850     -136.98248303
  entropy T*S    EENTRO =         0.00000000
  eigenvalues    EBANDS =        43.03934237
  atomic energy  EATOM  =       214.15426711
  Solvation  Ediel_sol  =         0.00000000
  ---------------------------------------------------
  free energy    TOTEN  =       -15.06614670 eV

  energy without entropy =      -15.06614670  energy(sigma->0) =      -15.06614670


--------------------------------------------------------------------------------------------------------




--------------------------------------- Iteration      1(   5)  ---------------------------------------


     EDDAV:  cpu time     11.3544: real time     11.4184
 BZINTS: Fermi energy:    7.952129;   12.000000 electrons
         Band energy: 0.430393E+02;  BLOECHL correction:   -0.251135
       DOS:  cpu time      0.0168: real time      0.0170
    CHARGE:  cpu time      0.0450: real time      0.0458
    MIXING:  cpu time      0.0077: real time      0.0082
    --------------------------------------------
      LOOP:  cpu time     11.4239: real time     11.4893

 eigenvalue-minimisations  :  8960
 total energy-change (2. order) : 0.4283152E-09  (-0.4380852E-12)
 number of electron      12.0000000 magnetization 
 augmentation part       -0.1477586 magnetization 

 Broyden mixing:
  rms(total) = 0.26093E+00    rms(broyden)= 0.26093E+00
  rms(prec ) = 0.47200E+00
  weight for this iteration     100.00

 Free energy of the ion-electron system (eV)
  ---------------------------------------------------
  alpha Z        PSCENC =        -0.81277799
  Ewald energy   TEWEN  =      -293.88473869
  -Hartree energ DENC   =        -0.40832449
  -exchange      EXHF   =         0.00000000
  -V(xc)+E(xc)   XCENC  =      -104.97206049
  PAW double counting   =       264.80062850     -136.98248303
  entropy T*S    EENTRO =         0.00000000
  eigenvalues    EBANDS =        43.03934237
  atomic energy  EATOM  =       214.15426711
  Solvation  Ediel_sol  =         0.00000000
  ---------------------------------------------------
  free energy    TOTEN  =       -15.06614670 eV

  energy without entropy =      -15.06614670  energy(sigma->0) =      -15.06614670


--------------------------------------------------------------------------------------------------------




--------------------------------------- Iteration      1(   6)  ---------------------------------------


    POTLOK:  cpu time      0.0331: real time      0.0376
    SETDIJ:  cpu time      0.0014: real time      0.0014
     EDDAV:  cpu time     20.2215: real time     20.3185
 BZINTS: Fermi energy:    7.938720;   12.000000 electrons
         Band energy: 0.428970E+02;  BLOECHL correction:   -0.251353
       DOS:  cpu time      0.0172: real time      0.0174
    CHARGE:  cpu time      0.0346: real time      0.0347
    MIXING:  cpu time      0.0041: real time      0.0045
    --------------------------------------------
      LOOP:  cpu time     20.3118: real time     20.4141

 eigenvalue-minimisations  : 11520
 total energy-change (2. order) : 0.5143630E-01  (-0.6523668E-03)
 number of electron      12.0000000 magnetization 
 augmentation part       -0.1498753 magnetization 

 Broyden mixing:
  rms(total) = 0.15193E+00    rms(broyden)= 0.15193E+00
  rms(prec ) = 0.28932E+00
  weight for this iteration     100.00

 eigenvalues of (default mixing * dielectric matrix)
  average eigenvalue GAMMA=   2.3389
  2.3389

 Free energy of the ion-electron system (eV)
  ---------------------------------------------------
  alpha Z        PSCENC =        -0.81277799
  Ewald energy   TEWEN  =      -293.88473869
  -Hartree energ DENC   =        -0.34460465
  -exchange      EXHF   =         0.00000000
  -V(xc)+E(xc)   XCENC  =      -104.83015905
  PAW double counting   =       378.87028456     -251.06400752
  entropy T*S    EENTRO =         0.00000000
  eigenvalues    EBANDS =        42.89702585
  atomic energy  EATOM  =       214.15426711
  Solvation  Ediel_sol  =         0.00000000
  ---------------------------------------------------
  free energy    TOTEN  =       -15.01471040 eV

  energy without entropy =      -15.01471040  energy(sigma->0) =      -15.01471040


--------------------------------------------------------------------------------------------------------




--------------------------------------- Iteration      1(   7)  ---------------------------------------


    POTLOK:  cpu time      0.0240: real time      0.0342
    SETDIJ:  cpu time      0.0013: real time      0.0013
     EDDAV:  cpu time     23.0635: real time     23.1696
 BZINTS: Fermi energy:    7.923403;   12.000000 electrons
         Band energy: 0.427488E+02;  BLOECHL correction:   -0.251904
       DOS:  cpu time      0.0170: real time      0.0172
    CHARGE:  cpu time      0.0347: real time      0.0349
    MIXING:  cpu time      0.0028: real time      0.0028
    --------------------------------------------
      LOOP:  cpu time     23.1433: real time     23.2600

 eigenvalue-minimisations  : 12544
 total energy-change (2. order) : 0.3736347E-01  (-0.1872313E-02)
 number of electron      12.0000000 magnetization 
 augmentation part       -0.1539129 magnetization 

 Broyden mixing:
  rms(total) = 0.26975E-01    rms(broyden)= 0.26975E-01
  rms(prec ) = 0.29193E-01
  weight for this iteration     100.00

 eigenvalues of (default mixing * dielectric matrix)
  average eigenvalue GAMMA=   2.8572
  2.8572  2.8572

 Free energy of the ion-electron system (eV)
  ---------------------------------------------------
  alpha Z        PSCENC =        -0.81277799
  Ewald energy   TEWEN  =      -293.88473869
  -Hartree energ DENC   =        -0.41140577
  -exchange      EXHF   =         0.00000000
  -V(xc)+E(xc)   XCENC  =      -104.55235684
  PAW double counting   =       605.62941128     -477.84850626
  entropy T*S    EENTRO =         0.00000000
  eigenvalues    EBANDS =        42.74876024
  atomic energy  EATOM  =       214.15426711
  Solvation  Ediel_sol  =         0.00000000
  ---------------------------------------------------
  free energy    TOTEN  =       -14.97734692 eV

  energy without entropy =      -14.97734692  energy(sigma->0) =      -14.97734692


--------------------------------------------------------------------------------------------------------




--------------------------------------- Iteration      1(   8)  ---------------------------------------


    POTLOK:  cpu time      0.0359: real time      0.0366
    SETDIJ:  cpu time      0.0014: real time      0.0014
     EDDAV:  cpu time     21.3686: real time     21.4693
 BZINTS: Fermi energy:    7.923890;   12.000000 electrons
         Band energy: 0.427565E+02;  BLOECHL correction:   -0.251941
       DOS:  cpu time      0.0174: real time      0.0176
    CHARGE:  cpu time      0.0339: real time      0.0341
    MIXING:  cpu time      0.0005: real time      0.0005
    --------------------------------------------
      LOOP:  cpu time     21.4576: real time     21.5593

 eigenvalue-minimisations  : 11904
 total energy-change (2. order) : 0.8116353E-04  (-0.2889942E-05)
 number of electron      12.0000000 magnetization 
 augmentation part       -0.1541814 magnetization 

 Broyden mixing:
  rms(total) = 0.41190E-02    rms(broyden)= 0.41190E-02
  rms(prec ) = 0.53144E-02
  weight for this iteration     100.00

 eigenvalues of (default mixing * dielectric matrix)
  average eigenvalue GAMMA=   2.1086
  1.0634  2.5313  2.7310

 Free energy of the ion-electron system (eV)
  ---------------------------------------------------
  alpha Z        PSCENC =        -0.81277799
  Ewald energy   TEWEN  =      -293.88473869
  -Hartree energ DENC   =        -0.42582966
  -exchange      EXHF   =         0.00000000
  -V(xc)+E(xc)   XCENC  =      -104.53399925
  PAW double counting   =       553.29767596     -425.52841126
  entropy T*S    EENTRO =         0.00000000
  eigenvalues    EBANDS =        42.75654802
  atomic energy  EATOM  =       214.15426711
  Solvation  Ediel_sol  =         0.00000000
  ---------------------------------------------------
  free energy    TOTEN  =       -14.97726576 eV

  energy without entropy =      -14.97726576  energy(sigma->0) =      -14.97726576


--------------------------------------------------------------------------------------------------------




--------------------------------------- Iteration      1(   9)  ---------------------------------------


    POTLOK:  cpu time      0.0278: real time      0.0339
    SETDIJ:  cpu time      0.0013: real time      0.0013
     EDDAV:  cpu time     28.4506: real time     28.5812
 BZINTS: Fermi energy:    7.923647;   12.000000 electrons
         Band energy: 0.427541E+02;  BLOECHL correction:   -0.251949
       DOS:  cpu time      0.0170: real time      0.0171
    CHARGE:  cpu time      0.0338: real time      0.0340
    MIXING:  cpu time      0.0004: real time      0.0004
    --------------------------------------------
      LOOP:  cpu time     28.5309: real time     28.6680

 eigenvalue-minimisations  : 13696
 total energy-change (2. order) : 0.3832402E-05  (-0.4258436E-06)
 number of electron      12.0000000 magnetization 
 augmentation part       -0.1542315 magnetization 

 Broyden mixing:
  rms(total) = 0.12699E-03    rms(broyden)= 0.12699E-03
  rms(prec ) = 0.16317E-03
  weight for this iteration     100.00

 eigenvalues of (default mixing * dielectric matrix)
  average eigenvalue GAMMA=   2.2150
  0.9983  2.6693  2.6693  2.5232

 Free energy of the ion-electron system (eV)
  ---------------------------------------------------
  alpha Z        PSCENC =        -0.81277799
  Ewald energy   TEWEN  =      -293.88473869
  -Hartree energ DENC   =        -0.42769156
  -exchange      EXHF   =         0.00000000
  -V(xc)+E(xc)   XCENC  =      -104.53025090
  PAW double counting   =       560.44244918     -432.67263371
  entropy T*S    EENTRO =         0.00000000
  eigenvalues    EBANDS =        42.75411463
  atomic energy  EATOM  =       214.15426711
  Solvation  Ediel_sol  =         0.00000000
  ---------------------------------------------------
  free energy    TOTEN  =       -14.97726193 eV

  energy without entropy =      -14.97726193  energy(sigma->0) =      -14.97726193


--------------------------------------------------------------------------------------------------------




--------------------------------------- Iteration      1(  10)  ---------------------------------------


    POTLOK:  cpu time      0.0304: real time      0.0369
    SETDIJ:  cpu time      0.0013: real time      0.0013
     EDDAV:  cpu time     23.4834: real time     23.5925
 BZINTS: Fermi energy:    7.923626;   12.000000 electrons
         Band energy: 0.427538E+02;  BLOECHL correction:   -0.251949
       DOS:  cpu time      0.0167: real time      0.0169
    --------------------------------------------
      LOOP:  cpu time     23.5320: real time     23.6477

 eigenvalue-minimisations  : 11648
 total energy-change (2. order) : 0.9761561E-06  (-0.6692385E-09)
 number of electron      12.0000000 magnetization 
 augmentation part       -0.1542315 magnetization 

 Free energy of the ion-electron system (eV)
  ---------------------------------------------------
  alpha Z        PSCENC =        -0.81277799
  Ewald energy   TEWEN  =      -293.88473869
  -Hartree energ DENC   =        -0.42766199
  -exchange      EXHF   =         0.00000000
  -V(xc)+E(xc)   XCENC  =      -104.53031630
  PAW double counting   =       560.43188942     -432.66176895
  entropy T*S    EENTRO =         0.00000000
  eigenvalues    EBANDS =        42.75384645
  atomic energy  EATOM  =       214.15426711
  Solvation  Ediel_sol  =         0.00000000
  ---------------------------------------------------
  free energy    TOTEN  =       -14.97726095 eV

  energy without entropy =      -14.97726095  energy(sigma->0) =      -14.97726095


--------------------------------------------------------------------------------------------------------




 average (electrostatic) potential at core
  the test charge radii are     1.0406
  (the norm of the test charge is              1.0000)
       1 -72.6487       2 -72.6487       3 -72.6487       4 -72.6487
 
 
 
 E-fermi :   7.9236     XC(G=0): -10.1897     alpha+bet :-14.8493

 val. band max:        8.3236437106   @ k =   0.2222   0.1111   0.1111
 cond. band min:       7.8201107542   @ k =   0.2222   0.2222   0.2222
 fundamental gap:     -0.5035329565
 Fermi energy:         7.9236255473

 k-point     1 :       0.0000    0.0000    0.0000
  band No.  band energies     occupation 
      1      -3.1404      2.00000
      2       5.0622      2.00000
      3       5.0622      2.00000
      4       5.0622      2.00000
      5       6.3808      2.00248
      6       6.3808      2.05768
      7       6.3808      2.64501
      8      13.2394      0.00000
      9      13.2394      0.00000
     10      13.2394      0.00000
     11      13.5674      0.00000
     12      13.5674      0.00000
     13      13.5674      0.00000
     14      13.5674      0.00000
     15      13.5674      0.00000
     16      13.5674      0.00000
     17      17.0326      0.00000
     18      17.0326      0.00000
     19      17.0326      0.00000
     20      20.5907      0.00000
     21      20.5907      0.00000
     22      20.5907      0.00000
     23      22.0686      0.00000
     24      22.0686      0.00000
     25      22.0686      0.00000
     26      24.4349      0.00000
     27      27.3799      0.00000
     28      27.3799      0.00000
     29      30.2392      0.00000
     30      32.5917      0.00000
     31      32.5917      0.00000
     32      32.5917      0.00000
     33      33.3600      0.00000
     34      33.3600      0.00000
     35      33.3600      0.00000
     36      34.8687      0.00000
     37      34.8687      0.00000
     38      34.8687      0.00000
     39      34.8687      0.00000
     40      34.8687      0.00000
     41      34.8687      0.00000
     42      40.5326      0.00000
     43      40.5326      0.00000
     44      40.5326      0.00000
     45      41.1875      0.00000
     46      41.3352      0.00000
     47      41.3352      0.00000
     48      41.3352      0.00000
     49      41.3352      0.00000
     50      41.3352      0.00000
     51      41.3352      0.00000
     52      41.7471      0.00000
     53      41.7471      0.00000
     54      41.7471      0.00000
     55      42.6773      0.00000
     56      42.6773      0.00000
     57      42.6773      0.00000
     58      48.4089      0.00000
     59      48.4089      0.00000
     60      48.4089      0.00000
     61      48.4089      0.00000
     62      48.4089      0.00000
     63      48.4089      0.00000
     64      49.0200      0.00000
     65      49.0200      0.00000
     66      49.0200      0.00000
     67      49.4072      0.00000
     68      49.4072      0.00000
     69      49.4072      0.00000
     70      49.4072      0.00000
     71      49.4072      0.00000
     72      49.4072      0.00000
     73      50.3771      0.00000
     74      50.3771      0.00000
     75      50.3771      0.00000
     76      50.5598      0.00000
     77      50.5598      0.00000
     78      50.5598      0.00000
     79      52.5739      0.00000
     80      52.5739      0.00000
     81      52.5739      0.00000
     82      56.0424      0.00000
     83      56.0424      0.00000
     84      56.0424      0.00000
     85      56.0962      0.00000
     86      57.0372      0.00000
     87      57.0372      0.00000
     88      57.0372      0.00000
     89      57.0372      0.00000
     90      57.0372      0.00000
     91      57.0372      0.00000
     92      59.3510      0.00000
     93      59.3510      0.00000
     94      59.3510      0.00000
     95      59.5006      0.00000
     96      59.5006      0.00000
     97      59.5006      0.00000
     98      59.7899      0.00000
     99      59.7899      0.00000
    100      59.7899      0.00000
    101      62.9782      0.00000
    102      62.9782      0.00000
    103      63.9512      0.00000
    104      63.9512      0.00000
    105      63.9512      0.00000
    106      65.2192      0.00000
    107      65.2192      0.00000
    108      65.2192      0.00000
    109      72.1688      0.00000
    110      72.1688      0.00000
    111      72.1688      0.00000
    112      73.3488      0.00000
    113      73.3488      0.00000
    114      73.3488      0.00000
    115      75.2718      0.00000
    116      75.2718      0.00000
    117      75.2718      0.00000
    118      75.4137      0.00000
    119      75.4137      0.00000
    120      75.4137      0.00000
    121      75.4137      0.00000
    122      75.4137      0.00000
    123      75.4137      0.00000
    124      76.2567      0.00000
    125      76.2567      0.00000
    126      76.2567      0.00000
    127      77.0451      0.00000
    128      77.0451      0.00000

 k-point     2 :       0.1111    0.0000    0.0000
  band No.  band energies     occupation 
      1      -3.0287      2.00000
      2       3.7912      2.00000
      3       5.1645      2.00000
      4       5.1645      2.00000
      5       6.4888      2.03481
      6       6.4888      2.54458
      7       7.8454      1.10037
      8      11.6402      0.00000
      9      11.6402      0.00000
     10      12.8553      0.00000
     11      12.8553      0.00000
     12      13.3497      0.00000
     13      13.6622      0.00000
     14      13.6622      0.00000
     15      15.3732      0.00000
     16      15.3732      0.00000
     17      17.1348      0.00000
     18      17.9114      0.00000
     19      17.9114      0.00000
     20      19.5626      0.00000
     21      19.5626      0.00000
     22      19.8309      0.00000
     23      21.7996      0.00000
     24      23.2608      0.00000
     25      23.2608      0.00000
     26      25.4179      0.00000
     27      26.0152      0.00000
     28      27.4834      0.00000
     29      30.2562      0.00000
     30      32.7190      0.00000
     31      32.7190      0.00000
     32      32.7607      0.00000
     33      32.7607      0.00000
     34      32.9429      0.00000
     35      33.5290      0.00000
     36      33.5290      0.00000
     37      34.1531      0.00000
     38      34.4937      0.00000
     39      34.4937      0.00000
     40      34.8929      0.00000
     41      34.8929      0.00000
     42      40.5008      0.00000
     43      40.5837      0.00000
     44      40.5837      0.00000
     45      41.0456      0.00000
     46      41.0456      0.00000
     47      41.1689      0.00000
     48      41.3946      0.00000
     49      41.3946      0.00000
     50      41.5200      0.00000
     51      41.5200      0.00000
     52      41.6591      0.00000
     53      42.2413      0.00000
     54      42.2413      0.00000
     55      43.3713      0.00000
     56      43.6017      0.00000
     57      43.6017      0.00000
     58      45.8234      0.00000
     59      45.8424      0.00000
     60      45.8424      0.00000
     61      47.5291      0.00000
     62      47.5291      0.00000
     63      47.5534      0.00000
     64      47.5534      0.00000
     65      48.2234      0.00000
     66      48.2234      0.00000
     67      49.8057      0.00000
     68      49.8057      0.00000
     69      50.6955      0.00000
     70      51.0173      0.00000
     71      51.0173      0.00000
     72      51.5222      0.00000
     73      51.5222      0.00000
     74      51.5622      0.00000
     75      51.5622      0.00000
     76      52.5267      0.00000
     77      52.5267      0.00000
     78      52.7617      0.00000
     79      52.7617      0.00000
     80      52.9892      0.00000
     81      53.7005      0.00000
     82      55.7105      0.00000
     83      55.8295      0.00000
     84      55.8295      0.00000
     85      56.3834      0.00000
     86      56.7468      0.00000
     87      56.7468      0.00000
     88      56.8623      0.00000
     89      56.8623      0.00000
     90      57.0674      0.00000
     91      57.0674      0.00000
     92      58.3927      0.00000
     93      58.3927      0.00000
     94      58.9365      0.00000
     95      59.4246      0.00000
     96      59.4936      0.00000
     97      59.4936      0.00000
     98      60.1725      0.00000
     99      60.2037      0.00000
    100      60.2703      0.00000
    101      60.2703      0.00000
    102      62.9624      0.00000
    103      63.7372      0.00000
    104      63.7372      0.00000
    105      63.8666      0.00000
    106      66.3364      0.00000
    107      66.3364      0.00000
    108      68.1431      0.00000
    109      69.4224      0.00000
    110      71.9370      0.00000
    111      71.9370      0.00000
    112      72.0788      0.00000
    113      72.2450      0.00000
    114      72.2450      0.00000
    115      72.2894      0.00000
    116      72.2894      0.00000
    117      73.4501      0.00000
    118      73.4501      0.00000
    119      74.3008      0.00000
    120      74.3008      0.00000
    121      74.9465      0.00000
    122      74.9465      0.00000
    123      76.5901      0.00000
    124      77.1238      0.00000
    125      77.4830      0.00000
    126      77.7563      0.00000
    127      77.7563      0.00000
    128      78.1468      0.00000

 k-point     3 :       0.2222    0.0000    0.0000
  band No.  band energies     occupation 
      1      -2.6940      2.00000
      2       2.2240      2.00000
      3       5.4716      2.00000
      4       5.4716      2.00000
      5       6.8098      2.04936
      6       6.8098      2.55538
      7       9.9927     -0.04809
      8      10.0958      0.00000
      9      10.0958      0.00000
     10      11.5791      0.00000
     11      11.5791      0.00000
     12      13.6801      0.00000
     13      13.9470      0.00000
     14      13.9470      0.00000
     15      17.4379      0.00000
     16      17.5358      0.00000
     17      17.5358      0.00000
     18      18.2033      0.00000
     19      18.2033      0.00000
     20      18.4729      0.00000
     21      19.6839      0.00000
     22      19.6839      0.00000
     23      21.1214      0.00000
     24      23.3236      0.00000
     25      25.0968      0.00000
     26      25.0968      0.00000
     27      27.4453      0.00000
     28      27.7926      0.00000
     29      30.8943      0.00000
     30      30.8943      0.00000
     31      31.0176      0.00000
     32      31.1675      0.00000
     33      31.1675      0.00000
     34      31.9924      0.00000
     35      33.1140      0.00000
     36      33.1140      0.00000
     37      33.5561      0.00000
     38      33.5561      0.00000
     39      34.9554      0.00000
     40      34.9554      0.00000
     41      36.4799      0.00000
     42      38.7307      0.00000
     43      40.0079      0.00000
     44      40.0079      0.00000
     45      40.7919      0.00000
     46      40.7919      0.00000
     47      41.5412      0.00000
     48      41.5412      0.00000
     49      41.5712      0.00000
     50      41.5712      0.00000
     51      42.2196      0.00000
     52      42.7766      0.00000
     53      43.0660      0.00000
     54      43.0660      0.00000
     55      43.1770      0.00000
     56      43.4416      0.00000
     57      44.2718      0.00000
     58      44.2718      0.00000
     59      44.7725      0.00000
     60      44.7725      0.00000
     61      46.0852      0.00000
     62      46.0852      0.00000
     63      46.3804      0.00000
     64      46.3804      0.00000
     65      48.6724      0.00000
     66      48.6724      0.00000
     67      51.3405      0.00000
     68      51.3405      0.00000
     69      51.3800      0.00000
     70      52.8470      0.00000
     71      52.8470      0.00000
     72      53.2208      0.00000
     73      53.2208      0.00000
     74      53.6357      0.00000
     75      53.6357      0.00000
     76      53.6912      0.00000
     77      53.6912      0.00000
     78      53.9957      0.00000
     79      54.6729      0.00000
     80      54.6729      0.00000
     81      55.2916      0.00000
     82      55.9965      0.00000
     83      55.9965      0.00000
     84      56.2010      0.00000
     85      56.2010      0.00000
     86      56.3675      0.00000
     87      56.3675      0.00000
     88      56.6636      0.00000
     89      56.7384      0.00000
     90      57.2443      0.00000
     91      57.2443      0.00000
     92      57.5063      0.00000
     93      57.5063      0.00000
     94      57.5264      0.00000
     95      58.0634      0.00000
     96      59.4642      0.00000
     97      59.4642      0.00000
     98      59.6394      0.00000
     99      60.0222      0.00000
    100      61.2824      0.00000
    101      61.2824      0.00000
    102      62.8083      0.00000
    103      63.2639      0.00000
    104      63.2639      0.00000
    105      63.8264      0.00000
    106      66.4576      0.00000
    107      68.2957      0.00000
    108      68.2957      0.00000
    109      68.3603      0.00000
    110      68.3603      0.00000
    111      69.2746      0.00000
    112      69.2746      0.00000
    113      69.6450      0.00000
    114      70.4539      0.00000
    115      70.4539      0.00000
    116      71.9953      0.00000
    117      72.4821      0.00000
    118      72.4821      0.00000
    119      73.6921      0.00000
    120      73.6921      0.00000
    121      74.1032      0.00000
    122      74.1032      0.00000
    123      75.5102      0.00000
    124      75.5102      0.00000
    125      77.3492      0.00000
    126      77.5287      0.00000
    127      77.5569      0.00000
    128      77.5569      0.00000

 k-point     4 :       0.3333    0.0000    0.0000
  band No.  band energies     occupation 
      1      -2.1379      2.00000
      2       0.8255      2.00000
      3       5.9837      2.00000
      4       5.9837      2.00000
      5       7.3305      2.00653
      6       7.3305      2.10999
      7       8.7572      0.00000
      8       8.7572      0.00000
      9      10.3293      0.00000
     10      10.3293      0.00000
     11      12.3558      0.00000
     12      14.2292      0.00000
     13      14.4219      0.00000
     14      14.4219      0.00000
     15      16.9834      0.00000
     16      16.9834      0.00000
     17      17.1411      0.00000
     18      17.9306      0.00000
     19      19.8987      0.00000
     20      19.8987      0.00000
     21      20.2512      0.00000
     22      20.4466      0.00000
     23      21.7416      0.00000
     24      21.7416      0.00000
     25      27.0546      0.00000
     26      27.0546      0.00000
     27      28.0143      0.00000
     28      28.0143      0.00000
     29      28.3035      0.00000
     30      29.0513      0.00000
     31      29.0513      0.00000
     32      29.8919      0.00000
     33      30.9093      0.00000
     34      32.2214      0.00000
     35      32.2939      0.00000
     36      32.2939      0.00000
     37      33.8214      0.00000
     38      33.8214      0.00000
     39      35.0293      0.00000
     40      35.0293      0.00000
     41      36.9486      0.00000
     42      38.4258      0.00000
     43      38.6177      0.00000
     44      38.6177      0.00000
     45      38.8023      0.00000
     46      39.8638      0.00000
     47      39.8638      0.00000
     48      41.8596      0.00000
     49      41.8596      0.00000
     50      42.0736      0.00000
     51      42.0736      0.00000
     52      42.6660      0.00000
     53      43.1118      0.00000
     54      43.1118      0.00000
     55      44.2255      0.00000
     56      44.2255      0.00000
     57      44.8029      0.00000
     58      44.8029      0.00000
     59      44.9538      0.00000
     60      45.5350      0.00000
     61      45.5350      0.00000
     62      45.7875      0.00000
     63      45.9917      0.00000
     64      45.9917      0.00000
     65      50.0944      0.00000
     66      50.0944      0.00000
     67      52.4485      0.00000
     68      52.5030      0.00000
     69      52.5030      0.00000
     70      53.4328      0.00000
     71      53.5223      0.00000
     72      53.5223      0.00000
     73      54.1005      0.00000
     74      54.1005      0.00000
     75      54.1250      0.00000
     76      54.1250      0.00000
     77      54.7954      0.00000
     78      55.3182      0.00000
     79      55.7721      0.00000
     80      55.7721      0.00000
     81      56.0503      0.00000
     82      56.0503      0.00000
     83      56.0602      0.00000
     84      56.0602      0.00000
     85      56.2794      0.00000
     86      56.5501      0.00000
     87      56.5501      0.00000
     88      56.7649      0.00000
     89      56.7649      0.00000
     90      56.9182      0.00000
     91      56.9182      0.00000
     92      56.9198      0.00000
     93      59.1572      0.00000
     94      59.4512      0.00000
     95      59.4512      0.00000
     96      59.9743      0.00000
     97      60.2274      0.00000
     98      60.8820      0.00000
     99      60.8820      0.00000
    100      62.0471      0.00000
    101      62.0471      0.00000
    102      62.1455      0.00000
    103      62.8703      0.00000
    104      62.8703      0.00000
    105      64.8776      0.00000
    106      64.8776      0.00000
    107      64.9817      0.00000
    108      65.3964      0.00000
    109      66.6219      0.00000
    110      66.6219      0.00000
    111      66.8706      0.00000
    112      66.8706      0.00000
    113      67.4658      0.00000
    114      69.9911      0.00000
    115      69.9911      0.00000
    116      70.5152      0.00000
    117      70.5152      0.00000
    118      72.8079      0.00000
    119      72.8079      0.00000
    120      73.1723      0.00000
    121      73.1723      0.00000
    122      73.2720      0.00000
    123      73.2720      0.00000
    124      75.5852      0.00000
    125      76.1912      0.00000
    126      76.1912      0.00000
    127      77.3608      0.00000
    128      77.7029      0.00000

 k-point     5 :       0.4444    0.0000    0.0000
  band No.  band energies     occupation 
      1      -1.3631      2.00000
      2      -0.3734      2.00000
      3       6.7016      2.00000
      4       6.7016      2.00000
      5       7.6259      2.00000
      6       7.6259      2.00000
      7       7.9747      0.00000
      8       7.9747      0.00000
      9       9.3055      0.00000
     10       9.3055      0.00000
     11      14.8989      0.00000
     12      14.9943      0.00000
     13      15.0869      0.00000
     14      15.0869      0.00000
     15      15.9417      0.00000
     16      15.9417      0.00000
     17      15.9694      0.00000
     18      17.6012      0.00000
     19      18.5924      0.00000
     20      19.3895      0.00000
     21      22.4496      0.00000
     22      22.4496      0.00000
     23      23.7910      0.00000
     24      23.7910      0.00000
     25      25.1682      0.00000
     26      25.1682      0.00000
     27      26.9176      0.00000
     28      26.9176      0.00000
     29      28.9941      0.00000
     30      28.9941      0.00000
     31      29.0075      0.00000
     32      29.8877      0.00000
     33      30.7705      0.00000
     34      30.7705      0.00000
     35      32.6226      0.00000
     36      33.6568      0.00000
     37      34.9262      0.00000
     38      34.9262      0.00000
     39      35.0792      0.00000
     40      35.0792      0.00000
     41      35.2446      0.00000
     42      35.5985      0.00000
     43      36.5284      0.00000
     44      36.5284      0.00000
     45      39.8854      0.00000
     46      39.8854      0.00000
     47      40.0260      0.00000
     48      41.4470      0.00000
     49      42.2419      0.00000
     50      42.2419      0.00000
     51      42.5981      0.00000
     52      42.5981      0.00000
     53      42.9120      0.00000
     54      42.9120      0.00000
     55      43.7182      0.00000
     56      43.7182      0.00000
     57      44.0267      0.00000
     58      44.0267      0.00000
     59      45.0918      0.00000
     60      45.0918      0.00000
     61      47.5042      0.00000
     62      47.9271      0.00000
     63      47.9271      0.00000
     64      49.1524      0.00000
     65      50.1532      0.00000
     66      50.1532      0.00000
     67      50.3444      0.00000
     68      51.8002      0.00000
     69      51.8002      0.00000
     70      52.7558      0.00000
     71      53.3452      0.00000
     72      53.3452      0.00000
     73      53.4770      0.00000
     74      54.1280      0.00000
     75      54.1280      0.00000
     76      54.1949      0.00000
     77      54.9235      0.00000
     78      54.9235      0.00000
     79      56.8173      0.00000
     80      56.8173      0.00000
     81      56.8396      0.00000
     82      56.8422      0.00000
     83      56.8422      0.00000
     84      57.1070      0.00000
     85      57.1843      0.00000
     86      57.1843      0.00000
     87      57.6125      0.00000
     88      57.6125      0.00000
     89      58.1044      0.00000
     90      58.1044      0.00000
     91      58.7336      0.00000
     92      58.7336      0.00000
     93      59.1624      0.00000
     94      60.3763      0.00000
     95      60.6448      0.00000
     96      60.6888      0.00000
     97      60.7664      0.00000
     98      60.7664      0.00000
     99      60.9200      0.00000
    100      60.9200      0.00000
    101      61.6989      0.00000
    102      61.6989      0.00000
    103      62.7240      0.00000
    104      62.7240      0.00000
    105      64.8064      0.00000
    106      64.8064      0.00000
    107      65.1066      0.00000
    108      65.1066      0.00000
    109      65.1518      0.00000
    110      65.1518      0.00000
    111      65.5802      0.00000
    112      66.0771      0.00000
    113      66.0771      0.00000
    114      66.1984      0.00000
    115      68.5216      0.00000
    116      69.1353      0.00000
    117      69.1353      0.00000
    118      71.8895      0.00000
    119      71.8895      0.00000
    120      72.5097      0.00000
    121      72.5097      0.00000
    122      73.0116      0.00000
    123      73.1382      0.00000
    124      73.1382      0.00000
    125      75.1585      0.00000
    126      75.1585      0.00000
    127      77.0878      0.00000
    128      77.4971      0.00000

 k-point     6 :       0.1111    0.1111    0.0000
  band No.  band energies     occupation 
      1      -2.9170      2.00000
      2       3.8970      2.00000
      3       3.8970      2.00000
      4       5.2669      2.00000
      5       6.5956      2.08703
      6       7.9490      0.88937
      7       7.9490      0.30467
      8      10.4371      0.00000
      9      11.7436      0.00000
     10      11.7436      0.00000
     11      12.9542      0.00000
     12      12.9542      0.00000
     13      13.7586      0.00000
     14      15.0454      0.00000
     15      15.4747      0.00000
     16      15.4747      0.00000
     17      18.0099      0.00000
     18      18.0099      0.00000
     19      18.1179      0.00000
     20      18.7754      0.00000
     21      18.9117      0.00000
     22      20.8080      0.00000
     23      22.2078      0.00000
     24      23.0198      0.00000
     25      23.5221      0.00000
     26      25.7391      0.00000
     27      26.5058      0.00000
     28      26.6605      0.00000
     29      29.9941      0.00000
     30      31.9282      0.00000
     31      31.9282      0.00000
     32      32.3180      0.00000
     33      32.8542      0.00000
     34      33.3994      0.00000
     35      33.7762      0.00000
     36      33.8965      0.00000
     37      33.8965      0.00000
     38      34.0652      0.00000
     39      34.5028      0.00000
     40      34.5028      0.00000
     41      34.6741      0.00000
     42      39.2695      0.00000
     43      39.6796      0.00000
     44      39.6796      0.00000
     45      41.2533      0.00000
     46      41.2533      0.00000
     47      41.5090      0.00000
     48      41.5090      0.00000
     49      41.8228      0.00000
     50      42.0784      0.00000
     51      42.1549      0.00000
     52      42.1549      0.00000
     53      42.2126      0.00000
     54      42.7039      0.00000
     55      43.5478      0.00000
     56      44.2458      0.00000
     57      44.2458      0.00000
     58      44.4346      0.00000
     59      44.4346      0.00000
     60      46.5064      0.00000
     61      46.5064      0.00000
     62      46.9664      0.00000
     63      47.4538      0.00000
     64      47.5424      0.00000
     65      47.5424      0.00000
     66      49.2559      0.00000
     67      49.6538      0.00000
     68      50.5297      0.00000
     69      50.5297      0.00000
     70      50.6940      0.00000
     71      51.4041      0.00000
     72      51.4041      0.00000
     73      51.7763      0.00000
     74      52.5680      0.00000
     75      52.5680      0.00000
     76      53.1150      0.00000
     77      53.1802      0.00000
     78      53.8781      0.00000
     79      53.8781      0.00000
     80      55.0220      0.00000
     81      55.0220      0.00000
     82      55.0507      0.00000
     83      55.7191      0.00000
     84      55.9477      0.00000
     85      56.2205      0.00000
     86      56.2671      0.00000
     87      56.7712      0.00000
     88      56.7712      0.00000
     89      56.8772      0.00000
     90      56.8772      0.00000
     91      57.0153      0.00000
     92      57.2657      0.00000
     93      57.6157      0.00000
     94      59.0584      0.00000
     95      59.0584      0.00000
     96      59.3865      0.00000
     97      59.4757      0.00000
     98      60.5509      0.00000
     99      60.5509      0.00000
    100      60.6107      0.00000
    101      61.2845      0.00000
    102      61.2966      0.00000
    103      63.5026      0.00000
    104      63.6617      0.00000
    105      63.6617      0.00000
    106      67.1152      0.00000
    107      67.3090      0.00000
    108      68.5620      0.00000
    109      69.1977      0.00000
    110      69.1977      0.00000
    111      69.5389      0.00000
    112      71.8483      0.00000
    113      72.1384      0.00000
    114      72.1384      0.00000
    115      72.3402      0.00000
    116      72.8619      0.00000
    117      72.8934      0.00000
    118      72.8934      0.00000
    119      73.0734      0.00000
    120      73.4717      0.00000
    121      74.8224      0.00000
    122      74.8224      0.00000
    123      75.6195      0.00000
    124      75.8276      0.00000
    125      75.8876      0.00000
    126      77.7982      0.00000
    127      77.7982      0.00000
    128      78.5154      0.00000

 k-point     7 :       0.2222    0.1111    0.0000
  band No.  band energies     occupation 
      1      -2.5826      2.00000
      2       2.3315      2.00000
      3       4.2137      2.00000
      4       5.5740      2.00000
      5       6.9088      2.07904
      6       8.2560      0.16899
      7       8.9495     -0.02130
      8      10.0907      0.00000
      9      10.1989      0.00000
     10      11.6854      0.00000
     11      12.0536      0.00000
     12      12.8777      0.00000
     13      13.2515      0.00000
     14      15.7791      0.00000
     15      16.6411      0.00000
     16      16.6746      0.00000
     17      17.5085      0.00000
     18      17.6368      0.00000
     19      18.3022      0.00000
     20      19.7768      0.00000
     21      20.1325      0.00000
     22      20.7667      0.00000
     23      21.7978      0.00000
     24      23.4184      0.00000
     25      24.3166      0.00000
     26      24.9447      0.00000
     27      26.7517      0.00000
     28      28.4753      0.00000
     29      29.6152      0.00000
     30      30.4564      0.00000
     31      30.7133      0.00000
     32      30.9545      0.00000
     33      30.9872      0.00000
     34      32.3281      0.00000
     35      33.2813      0.00000
     36      33.5160      0.00000
     37      33.6911      0.00000
     38      33.7713      0.00000
     39      34.5154      0.00000
     40      34.8619      0.00000
     41      36.9187      0.00000
     42      37.8623      0.00000
     43      38.2966      0.00000
     44      38.9110      0.00000
     45      40.0927      0.00000
     46      41.2904      0.00000
     47      41.4302      0.00000
     48      41.5518      0.00000
     49      41.8776      0.00000
     50      42.3555      0.00000
     51      42.7344      0.00000
     52      42.8722      0.00000
     53      42.8922      0.00000
     54      42.8945      0.00000
     55      43.4643      0.00000
     56      43.4905      0.00000
     57      43.8627      0.00000
     58      44.0641      0.00000
     59      45.1853      0.00000
     60      45.6263      0.00000
     61      45.9669      0.00000
     62      46.8291      0.00000
     63      47.0220      0.00000
     64      48.3925      0.00000
     65      49.1845      0.00000
     66      49.4021      0.00000
     67      50.3741      0.00000
     68      50.6190      0.00000
     69      50.7969      0.00000
     70      51.5864      0.00000
[...]
     56      47.0852      0.00000
     57      47.4298      0.00000
     58      47.5021      0.00000
     59      47.5021      0.00000
     60      48.7788      0.00000
     61      48.9303      0.00000
     62      49.0350      0.00000
     63      49.0350      0.00000
     64      49.4099      0.00000
     65      49.9572      0.00000
     66      49.9572      0.00000
     67      50.6893      0.00000
     68      50.6893      0.00000
     69      52.5296      0.00000
     70      54.3008      0.00000
     71      54.3008      0.00000
     72      54.3320      0.00000
     73      54.5586      0.00000
     74      54.5586      0.00000
     75      55.1190      0.00000
     76      55.5467      0.00000
     77      55.5467      0.00000
     78      55.6133      0.00000
     79      55.9203      0.00000
     80      56.1335      0.00000
     81      56.1335      0.00000
     82      56.2234      0.00000
     83      56.2728      0.00000
     84      56.3518      0.00000
     85      56.9807      0.00000
     86      56.9807      0.00000
     87      57.1877      0.00000
     88      57.3248      0.00000
     89      57.3285      0.00000
     90      57.3285      0.00000
     91      58.5004      0.00000
     92      59.5226      0.00000
     93      59.5226      0.00000
     94      59.6032      0.00000
     95      60.3774      0.00000
     96      60.3774      0.00000
     97      60.6280      0.00000
     98      60.8166      0.00000
     99      61.8488      0.00000
    100      61.8488      0.00000
    101      62.4051      0.00000
    102      63.6287      0.00000
    103      63.6471      0.00000
    104      63.9315      0.00000
    105      63.9582      0.00000
    106      64.3178      0.00000
    107      64.3178      0.00000
    108      64.5619      0.00000
    109      64.7643      0.00000
    110      64.7643      0.00000
    111      65.7830      0.00000
    112      65.7830      0.00000
    113      67.5763      0.00000
    114      68.2276      0.00000
    115      68.3708      0.00000
    116      68.3708      0.00000
    117      69.1952      0.00000
    118      69.6056      0.00000
    119      69.8180      0.00000
    120      72.0337      0.00000
    121      72.1449      0.00000
    122      72.1449      0.00000
    123      72.1669      0.00000
    124      72.9062      0.00000
    125      74.7050      0.00000
    126      74.7050      0.00000
    127      75.4048      0.00000
    128      75.8889      0.00000

 k-point    34 :       0.4444    0.4444    0.3333
  band No.  band energies     occupation 
      1       1.3706      2.00000
      2       2.3410      2.00000
      3       2.3410      2.00000
      4       3.2987      2.00000
      5       4.2837      2.00000
      6       5.2304      2.00000
      7       5.2304      2.00000
      8       6.1793      2.09992
      9      15.5614      0.00000
     10      16.3716      0.00000
     11      16.3716      0.00000
     12      17.2028      0.00000
     13      17.2854      0.00000
     14      17.2854      0.00000
     15      17.4998      0.00000
     16      19.2253      0.00000
     17      19.2834      0.00000
     18      20.1046      0.00000
     19      20.1558      0.00000
     20      20.1558      0.00000
     21      20.6824      0.00000
     22      21.0842      0.00000
     23      21.0842      0.00000
     24      21.8402      0.00000
     25      23.1479      0.00000
     26      24.6940      0.00000
     27      24.6940      0.00000
     28      24.7417      0.00000
     29      25.0899      0.00000
     30      25.7744      0.00000
     31      25.7744      0.00000
     32      26.4061      0.00000
     33      30.2763      0.00000
     34      30.3041      0.00000
     35      30.3041      0.00000
     36      31.4411      0.00000
     37      31.6627      0.00000
     38      31.7017      0.00000
     39      32.5394      0.00000
     40      32.5394      0.00000
     41      37.8603      0.00000
     42      38.2830      0.00000
     43      38.3532      0.00000
     44      38.3532      0.00000
     45      39.5867      0.00000
     46      39.8916      0.00000
     47      39.8916      0.00000
     48      40.3436      0.00000
     49      40.8820      0.00000
     50      40.8820      0.00000
     51      41.0748      0.00000
     52      41.6668      0.00000
     53      46.6109      0.00000
     54      46.8311      0.00000
     55      47.0053      0.00000
     56      47.0053      0.00000
     57      47.1452      0.00000
     58      48.0486      0.00000
     59      48.0486      0.00000
     60      48.4059      0.00000
     61      48.9876      0.00000
     62      49.4028      0.00000
     63      49.5611      0.00000
     64      49.5611      0.00000
     65      50.6484      0.00000
     66      51.0995      0.00000
     67      51.0995      0.00000
     68      51.4744      0.00000
     69      53.7177      0.00000
     70      53.8479      0.00000
     71      54.0391      0.00000
     72      54.0391      0.00000
     73      55.0771      0.00000
     74      55.0771      0.00000
     75      55.1589      0.00000
     76      55.3880      0.00000
     77      55.4579      0.00000
     78      55.8515      0.00000
     79      55.8515      0.00000
     80      55.8828      0.00000
     81      56.0465      0.00000
     82      56.0465      0.00000
     83      56.1163      0.00000
     84      56.6024      0.00000
     85      56.9066      0.00000
     86      56.9066      0.00000
     87      56.9602      0.00000
     88      57.0343      0.00000
     89      57.4985      0.00000
     90      58.4036      0.00000
     91      58.4036      0.00000
     92      59.0575      0.00000
     93      59.0575      0.00000
     94      59.1176      0.00000
     95      59.1653      0.00000
     96      60.1448      0.00000
     97      61.1878      0.00000
     98      61.6691      0.00000
     99      61.6691      0.00000
    100      61.9634      0.00000
    101      61.9634      0.00000
    102      61.9776      0.00000
    103      62.6803      0.00000
    104      62.7368      0.00000
    105      63.1306      0.00000
    106      64.2895      0.00000
    107      64.2895      0.00000
    108      64.6578      0.00000
    109      65.2541      0.00000
    110      65.5868      0.00000
    111      65.5868      0.00000
    112      67.1320      0.00000
    113      67.7020      0.00000
    114      68.3039      0.00000
    115      68.3039      0.00000
    116      68.5485      0.00000
    117      70.1324      0.00000
    118      70.9550      0.00000
    119      70.9550      0.00000
    120      71.3385      0.00000
    121      72.0670      0.00000
    122      72.0670      0.00000
    123      72.2503      0.00000
    124      73.0103      0.00000
    125      73.0103      0.00000
    126      73.2336      0.00000
    127      74.9982      0.00000
    128      75.1307      0.00000

 k-point    35 :       0.4444    0.4444    0.4444
  band No.  band energies     occupation 
      1       2.1264      2.00000
      2       3.0863      2.00000
      3       3.0863      2.00000
      4       3.0863      2.00000
      5       4.0717      2.00000
      6       4.0717      2.00000
      7       4.0717      2.00000
      8       5.0208      2.00836
      9      17.8921      0.00000
     10      17.8921      0.00000
     11      17.8921      0.00000
     12      18.1734      0.00000
     13      18.1734      0.00000
     14      18.1734      0.00000
     15      19.0391      0.00000
     16      19.0391      0.00000
     17      19.5971      0.00000
     18      19.5971      0.00000
     19      19.5971      0.00000
     20      19.9074      0.00000
     21      19.9074      0.00000
     22      20.7765      0.00000
     23      20.7765      0.00000
     24      20.7765      0.00000
     25      22.7277      0.00000
     26      23.7509      0.00000
     27      23.8723      0.00000
     28      23.8723      0.00000
     29      23.8723      0.00000
     30      24.0217      0.00000
     31      24.0217      0.00000
     32      24.0217      0.00000
     33      31.9313      0.00000
     34      31.9313      0.00000
     35      31.9313      0.00000
     36      32.0881      0.00000
     37      32.0881      0.00000
     38      32.7736      0.00000
     39      32.7736      0.00000
     40      32.7736      0.00000
     41      38.8911      0.00000
     42      38.8911      0.00000
     43      38.8911      0.00000
     44      38.8967      0.00000
     45      38.9704      0.00000
     46      38.9704      0.00000
     47      38.9704      0.00000
     48      39.5605      0.00000
     49      39.5605      0.00000
     50      39.9191      0.00000
     51      39.9191      0.00000
     52      39.9191      0.00000
     53      46.0022      0.00000
     54      46.0022      0.00000
     55      46.0022      0.00000
     56      46.0892      0.00000
     57      49.3886      0.00000
     58      50.0014      0.00000
     59      50.0014      0.00000
     60      50.3948      0.00000
     61      50.3948      0.00000
     62      50.3948      0.00000
     63      50.7379      0.00000
     64      50.7379      0.00000
     65      50.7379      0.00000
     66      51.3661      0.00000
     67      51.3661      0.00000
     68      51.3661      0.00000
     69      53.8723      0.00000
     70      53.8723      0.00000
     71      53.8723      0.00000
     72      54.4992      0.00000
     73      54.6025      0.00000
     74      54.6025      0.00000
     75      54.6025      0.00000
     76      55.1846      0.00000
     77      55.4220      0.00000
     78      55.4220      0.00000
     79      55.4220      0.00000
     80      55.7221      0.00000
     81      55.7221      0.00000
     82      56.3035      0.00000
     83      56.3035      0.00000
     84      56.3035      0.00000
     85      57.1108      0.00000
     86      57.1108      0.00000
     87      57.1108      0.00000
     88      57.6175      0.00000
     89      57.6858      0.00000
     90      57.6858      0.00000
     91      57.6858      0.00000
     92      58.3094      0.00000
     93      58.3094      0.00000
     94      58.6856      0.00000
     95      58.6856      0.00000
     96      58.6856      0.00000
     97      61.5013      0.00000
     98      61.5013      0.00000
     99      61.5013      0.00000
    100      62.0262      0.00000
    101      62.9251      0.00000
    102      62.9251      0.00000
    103      62.9251      0.00000
    104      63.2076      0.00000
    105      63.2076      0.00000
    106      63.2076      0.00000
    107      64.2777      0.00000
    108      64.3624      0.00000
    109      64.3624      0.00000
    110      64.4565      0.00000
    111      64.4565      0.00000
    112      64.4565      0.00000
    113      69.0294      0.00000
    114      70.6626      0.00000
    115      70.6626      0.00000
    116      70.6626      0.00000
    117      71.3335      0.00000
    118      71.3335      0.00000
    119      71.3335      0.00000
    120      71.4260      0.00000
    121      71.4260      0.00000
    122      71.4260      0.00000
    123      73.7774      0.00000
    124      73.7774      0.00000
    125      74.7324      0.00000
    126      74.7324      0.00000
    127      74.7324      0.00000
    128      75.7907      0.00000


--------------------------------------------------------------------------------------------------------


 soft charge-density along one line, spin component           1
         0         1         2         3         4         5         6         7         8         9
 total charge-density along one line
 
 pseudopotential strength for first ion, spin component:           1
  8.444  14.392   0.000   0.000   0.000   0.000   0.000   0.000
 14.392  24.529   0.000   0.000   0.000   0.000   0.000   0.000
  0.000   0.000   1.988   0.000   0.000   5.731   0.000   0.000
  0.000   0.000   0.000   1.988   0.000   0.000   5.731   0.000
  0.000   0.000   0.000   0.000   1.988   0.000   0.000   5.731
  0.000   0.000   5.731   0.000   0.000  16.436   0.000   0.000
  0.000   0.000   0.000   5.731   0.000   0.000  16.436   0.000
  0.000   0.000   0.000   0.000   5.731   0.000   0.000  16.436
 total augmentation occupancy for first ion, spin component:           1
  3.342  -0.821   0.000   0.000   0.000  -0.000   0.000   0.000
 -0.821   0.269   0.000  -0.000  -0.000   0.000   0.000   0.000
  0.000   0.000   1.101   0.000   0.000  -0.070  -0.000  -0.000
  0.000  -0.000   0.000   1.101   0.000  -0.000  -0.070  -0.000
  0.000  -0.000   0.000   0.000   1.101  -0.000  -0.000  -0.070
 -0.000   0.000  -0.070  -0.000  -0.000   0.005   0.000   0.000
  0.000   0.000  -0.000  -0.070  -0.000   0.000   0.005   0.000
  0.000   0.000  -0.000  -0.000  -0.070   0.000   0.000   0.005


------------------------ aborting loop because EDIFF is reached ----------------------------------------


    CHARGE:  cpu time      0.0337: real time      0.0339
    FORLOC:  cpu time      0.0011: real time      0.0014
    FORNL :  cpu time      0.0330: real time      0.0336
    STRESS:  cpu time      0.3947: real time      0.3989
    FORCOR:  cpu time      0.0137: real time      0.0138
    FORHAR:  cpu time      0.0035: real time      0.0039
    MIXING:  cpu time      0.0006: real time      0.0006
    OFIELD:  cpu time      0.0011: real time      0.0013

  FORCE on cell =-STRESS in cart. coord.  units (eV):
  Direction    XX          YY          ZZ          XY          YZ          ZX
  --------------------------------------------------------------------------------------
  Alpha Z    -0.81278    -0.81278    -0.81278
  Ewald     -97.96162   -97.96162   -97.96162    -0.00000     0.00000     0.00000
  Hartree     0.14256     0.14256     0.14256     0.00000    -0.00000    -0.00000
  E(xc)     -34.23080   -34.23080   -34.23080    -0.00000     0.00000     0.00000
  Local       1.38399     1.38399     1.38399     0.00000    -0.00000     0.00000
  n-local    74.04079    75.14588    77.15241     0.21338     0.93995     0.36569
  augment    -4.11420    -4.11420    -4.11420     0.00000     0.00000     0.00000
  Kinetic    57.81914    58.80272    63.42340     1.69641    -8.12875    -1.44104
  Fock        0.00000     0.00000     0.00000     0.00000     0.00000     0.00000
  -------------------------------------------------------------------------------------
  Total      -0.13139    -0.13139    -0.13139     0.00000     0.00000    -0.00000
  in kB      -3.18380    -3.18380    -3.18380     0.00000     0.00000    -0.00000
  external pressure =       -3.18 kB  Pullay stress =        0.00 kB


 VOLUME and BASIS-vectors are now :
 -----------------------------------------------------------------------------
  energy-cutoff  :      670.00
  volume of cell :       66.12
      direct lattice vectors                 reciprocal lattice vectors
     4.043689723  0.000000000  0.000000000     0.247298895 -0.000000000  0.000000000
     0.000000000  4.043689723  0.000000000     0.000000000  0.247298895  0.000000000
     0.000000000  0.000000000  4.043689723    -0.000000000 -0.000000000  0.247298895

  length of vectors
     4.043689723  4.043689723  4.043689723     0.247298895  0.247298895  0.247298895


 FORCES acting on ions
    electron-ion (+dipol)            ewald-force                    non-local-force                 convergence-correction
 -----------------------------------------------------------------------------------------------
   0.642E-15 -.330E-15 -.173E-14   0.489E-15 0.764E-15 -.890E-15   0.122E-20 0.858E-20 -.457E-19   0.152E-14 0.402E-15 0.569E-15
   0.122E-14 -.456E-14 -.634E-14   0.516E-15 -.538E-15 0.377E-15   -.999E-20 0.334E-20 -.396E-19   0.155E-14 -.403E-15 -.556E-15
   -.621E-14 -.160E-14 -.403E-13   -.475E-15 0.591E-15 0.377E-15   0.746E-20 -.694E-20 0.442E-19   -.152E-14 0.407E-15 -.578E-15
   -.617E-14 -.970E-14 0.157E-13   -.448E-15 -.707E-15 0.305E-15   0.182E-19 0.153E-19 -.809E-19   -.154E-14 -.417E-15 0.569E-15
 -----------------------------------------------------------------------------------------------
   -.105E-13 -.162E-13 -.327E-13   0.811E-16 0.111E-15 0.169E-15   0.168E-19 0.203E-19 -.122E-18   0.216E-16 -.112E-16 0.315E-17
 
 
 POSITION                                       TOTAL-FORCE (eV/Angst)
 -----------------------------------------------------------------------------------
      0.00000      0.00000      0.00000         0.000000      0.000000      0.000000
      0.00000      2.02184      2.02184        -0.000000      0.000000     -0.000000
      2.02184      0.00000      2.02184        -0.000000     -0.000000     -0.000000
      2.02184      2.02184      0.00000         0.000000      0.000000      0.000000
 -----------------------------------------------------------------------------------
    total drift:                               -0.000000     -0.000000     -0.000000


--------------------------------------------------------------------------------------------------------



  FREE ENERGIE OF THE ION-ELECTRON SYSTEM (eV)
  ---------------------------------------------------
  free  energy   TOTEN  =       -14.97726095 eV

  energy  without entropy=      -14.97726095  energy(sigma->0) =      -14.97726095
 


--------------------------------------------------------------------------------------------------------


    POTLOK:  cpu time      0.0195: real time      0.0198


--------------------------------------------------------------------------------------------------------


     LOOP+:  cpu time    222.7712: real time    223.9172
 -----------------------------------------------------------------------------
|                                                                             |
|           W    W    AA    RRRRR   N    N  II  N    N   GGGG   !!!           |
|           W    W   A  A   R    R  NN   N  II  NN   N  G    G  !!!           |
|           W    W  A    A  R    R  N N  N  II  N N  N  G       !!!           |
|           W WW W  AAAAAA  RRRRR   N  N N  II  N  N N  G  GGG   !            |
|           WW  WW  A    A  R   R   N   NN  II  N   NN  G    G                |
|           W    W  A    A  R    R  N    N  II  N    N   GGGG   !!!           |
|                                                                             |
|     Tetrahedron method does not include variations of the Fermi             |
|     occupations, so forces and stress will be inaccurate. We suggest        |
|     using a different smearing scheme ISMEAR = 1 or 2 for metals in         |
|     relaxations.                                                            |
|                                                                             |
 -----------------------------------------------------------------------------

    4ORBIT:  cpu time      0.0000: real time      0.0000
 BZINTS: Fermi energy:    7.923626;   12.000000 electrons
         Band energy: 0.427538E+02;  BLOECHL correction:   -0.251949

 total amount of memory used by VASP MPI-rank0    40316. kBytes
=======================================================================

   base      :      30000. kBytes
   nonl-proj :       6193. kBytes
   fftplans  :        395. kBytes
   grid      :       2140. kBytes
   one-center:         12. kBytes
   wavefun   :       1576. kBytes
 
  
  
 General timing and accounting informations for this job:
 ========================================================
  
                  Total CPU time used (sec):      230.651
                            User time (sec):      225.360
                          System time (sec):        5.291
                         Elapsed time (sec):      237.340
  
                   Maximum memory used (kb):     1106524.
                   Average memory used (kb):          N/A
  
                          Minor page faults:       253025
                          Major page faults:          107
                 Voluntary context switches:         7069
