 vasp.6.4.3 19Mar24 (build Mar 26 2024 14:05:37) complex                        
  
 executed on             LinuxIFC date 2025.01.02  08:00:27
 running  128 mpi-ranks, on    1 nodes
 distrk:  each k-point on  128 cores,    1 groups
 distr:  one band on NCORE=   1 cores,  128 groups


--------------------------------------------------------------------------------------------------------


 INCAR:
   EDIFF = 1e-06
   EDIFFG = -0.01
   ENCUT = 270
   GGA = Pe
   IBRION = -1
   ISIF = 2
   ISMEAR = -5
   LCHARG = False
   LREAL = False
   LWAVE = False
   NELM = 200
   NSW = 0
   PREC = Accurate
   SIGMA = 0.2

 POTCAR:    PAW_PBE Al 04Jan2001                  
 -----------------------------------------------------------------------------
|                                                                             |
|           W    W    AA    RRRRR   N    N  II  N    N   GGGG   !!!           |
|           W    W   A  A   R    R  NN   N  II  NN   N  G    G  !!!           |
|           W    W  A    A  R    R  N N  N  II  N N  N  G       !!!           |
|           W WW W  AAAAAA  RRRRR   N  N N  II  N  N N  G  GGG   !            |
|           WW  WW  A    A  R   R   N   NN  II  N   NN  G    G                |
|           W    W  A    A  R    R  N    N  II  N    N   GGGG   !!!           |
|                                                                             |
|     For optimal performance we recommend to set                             |
|       NCORE = 2 up to number-of-cores-per-socket                            |
|     NCORE specifies how many cores store one orbital (NPAR=cpu/NCORE).      |
|     This setting can greatly improve the performance of VASP for DFT.       |
|     The default, NCORE=1 might be grossly inefficient on modern             |
|     multi-core architectures or massively parallel machines. Do your        |
|     own testing! More info at https://www.vasp.at/wiki/index.php/NCORE      |
|     Unfortunately you need to use the default for GW and RPA                |
|     calculations (for HF NCORE is supported but not extensively tested      |
|     yet).                                                                   |
|                                                                             |
 -----------------------------------------------------------------------------

 POTCAR:    PAW_PBE Al 04Jan2001                  
   SHA256 =  17880443556af62b473fe41b62a467bd001ad55d2cabe504a3f22e34d4e9db96 Al/POTCAR             
   COPYR  = (c) Copyright 04Jan2001 Georg Kresse                                                    
   COPYR  = This file is part of the software VASP. Any use, copying, and all other rights are regul
   COPYR  = If you do not have a valid VASP license, you may not use, copy or distribute this file. 
   VRHFIN =Al: s2p1                                                                                 
   LEXCH  = PE                                                                                      
   EATOM  =    53.5387 eV,    3.9350 Ry                                                             
                                                                                                    
   TITEL  = PAW_PBE Al 04Jan2001                                                                    
   LULTRA =        F    use ultrasoft PP ?                                                          
   IUNSCR =        1    unscreen: 0-lin 1-nonlin 2-no                                               
   RPACOR =    1.500    partial core radius                                                         
   POMASS =   26.981; ZVAL   =    3.000    mass and valenz                                          
   RCORE  =    1.900    outmost cutoff radius                                                       
   RWIGS  =    2.650; RWIGS  =    1.402    wigner-seitz radius (au A)                               
   ENMAX  =  240.300; ENMIN  =  180.225 eV                                                          
   ICORE  =        2    local potential                                                             
   LCOR   =        T    correct aug charges                                                         
   LPAW   =        T    paw PP                                                                      
   EAUG   =  291.052                                                                                
   DEXC   =    0.000                                                                                
   RMAX   =    1.939    core radius for proj-oper                                                   
   RAUG   =    1.300    factor for augmentation sphere                                              
   RDEP   =    1.966    radius for radial grids                                                     
   RDEPT  =    1.856    core radius for aug-charge                                                  
                                                                                                    
   Atomic configuration                                                                             
    6 entries                                                                                       
     n  l   j            E        occ.                                                              
     1  0  0.50     -1511.1048   2.0000                                                             
     2  0  0.50      -108.1629   2.0000                                                             
     2  1  1.50       -69.6402   6.0000                                                             
     3  0  0.50        -7.7528   2.0000                                                             
     3  1  1.50        -2.7121   1.0000                                                             
     3  2  2.50        -2.7212   0.0000                                                             
   Description                                                                                      
     l       E           TYP  RCUT    TYP  RCUT                                                     
     0     -7.7528455     23  1.900                                                                 
     0     -3.3096929     23  1.900                                                                 
     1     -2.7120682     23  1.900                                                                 
     1     13.6058260     23  1.900                                                                 
     2     -2.7211652      7  1.900                                                                 
  local pseudopotential read in
  partial core-charges read in
  partial kinetic energy density read in
  atomic valenz-charges read in
  non local Contribution for L=           0  read in
    real space projection operators read in
  non local Contribution for L=           0  read in
    real space projection operators read in
  non local Contribution for L=           1  read in
    real space projection operators read in
  non local Contribution for L=           1  read in
    real space projection operators read in
    PAW grid and wavefunctions read in
 
   number of l-projection  operators is LMAX  =           4
   number of lm-projection operators is LMMAX =           8
 
  PAW_PBE Al 04Jan2001                  :
 energy of atom  1       EATOM=  -53.5387
 kinetic energy error for atom=    0.0018 (will be added to EATOM!!)
 
 
 POSCAR: Al4
  positions in direct lattice
  velocities in cartesian coordinates


 exchange-correlation table for PE
   RHO(1)=    0.500       N(1)  =     2000
   RHO(2)=  100.500       N(2)  =     4000
 


--------------------------------------------------------------------------------------------------------


 ion  position               nearest neighbor table
   1  0.000  0.000  0.000-   2 2.86   3 2.86   2 2.86   3 2.86   2 2.86   4 2.86   2 2.86   3 2.86
                             4 2.86   3 2.86   4 2.86   4 2.86
   2  0.000  0.500  0.500-   1 2.86   4 2.86   1 2.86   4 2.86   1 2.86   3 2.86   1 2.86   3 2.86
                             4 2.86   4 2.86   3 2.86   3 2.86
   3  0.500  0.000  0.500-   1 2.86   4 2.86   1 2.86   4 2.86   2 2.86   4 2.86   4 2.86   1 2.86
                             2 2.86   1 2.86   2 2.86   2 2.86
   4  0.500  0.500  0.000-   2 2.86   3 2.86   2 2.86   3 2.86   1 2.86   3 2.86   3 2.86   1 2.86
                             2 2.86   2 2.86   1 2.86   1 2.86
 
  LATTYP: Found a simple cubic cell.
 ALAT       =     4.0436897231
  
  Lattice vectors:
  
 A1 = (   4.0436897231,   0.0000000000,   0.0000000000)
 A2 = (   0.0000000000,   4.0436897231,   0.0000000000)
 A3 = (   0.0000000000,   0.0000000000,   4.0436897231)


Analysis of symmetry for initial positions (statically):
=====================================================================
 Subroutine PRICEL returns following result:
 
  LATTYP: Found a face centered cubic cell.
 ALAT       =     4.0436897231
  
  Lattice vectors:
  
 A1 = (   2.0218448615,  -2.0218448615,   0.0000000000)
 A2 = (   2.0218448615,   0.0000000000,   2.0218448615)
 A3 = (  -0.0000000000,  -2.0218448615,   2.0218448615)
 
   4 primitive cells build up your supercell.
 

 Routine SETGRP: Setting up the symmetry group for a 
 simple cubic supercell.


 Subroutine GETGRP returns: Found 48 space group operations
 (whereof 48 operations were pure point group operations)
 out of a pool of 48 trial point group operations.


The static configuration has the point symmetry O_h .


Analysis of symmetry for dynamics (positions and initial velocities):
=====================================================================
 Subroutine PRICEL returns following result:
 
  LATTYP: Found a face centered cubic cell.
 ALAT       =     4.0436897231
  
  Lattice vectors:
  
 A1 = (   2.0218448615,  -2.0218448615,   0.0000000000)
 A2 = (   2.0218448615,   0.0000000000,   2.0218448615)
 A3 = (  -0.0000000000,  -2.0218448615,   2.0218448615)
 
   4 primitive cells build up your supercell.
 

 Routine SETGRP: Setting up the symmetry group for a 
 simple cubic supercell.


 Subroutine GETGRP returns: Found 48 space group operations
 (whereof 48 operations were pure point group operations)
 out of a pool of 48 trial point group operations.


The dynamic configuration has the point symmetry O_h .


 Subroutine INISYM returns: Found 48 space group operations
 (whereof 48 operations are pure point group operations),
 and found     4 'primitive' translations


----------------------------------------------------------------------------------------

                                     Primitive cell                                     

  volume of cell :      16.5300

  direct lattice vectors                    reciprocal lattice vectors
     2.021844862 -2.021844862  0.000000000     0.247298895 -0.247298895 -0.247298895
     2.021844862  0.000000000  2.021844862     0.247298895  0.247298895  0.247298895
    -0.000000000 -2.021844862  2.021844862    -0.247298895 -0.247298895  0.247298895

  length of vectors
     2.859320424  2.859320424  2.859320424     0.428334251  0.428334251  0.428334251

  position of ions in fractional coordinates (direct lattice)
     0.000000000  0.000000000  0.000000000

  ion indices of the primitive-cell ions
   primitive index   ion index
                 1           1

----------------------------------------------------------------------------------------

 
 
 KPOINTS: pymatgen with grid density = 4000 / numb

Automatic generation of k-mesh.
 Grid dimensions read from file:
 generate k-points for:    9    9    9

 Generating k-lattice:

  Cartesian coordinates                     Fractional coordinates (reciprocal lattice)
     0.027477655 -0.000000000  0.000000000     0.111111111  0.000000000  0.000000000
     0.000000000  0.027477655  0.000000000     0.000000000  0.111111111  0.000000000
    -0.000000000 -0.000000000  0.027477655     0.000000000  0.000000000  0.111111111

  Length of vectors
     0.027477655  0.027477655  0.027477655

  Shift w.r.t. Gamma in fractional coordinates (k-lattice)
     0.000000000  0.000000000  0.000000000

 TETIRR: Found    353 inequivalent tetrahedra from     4374
 
 Subroutine IBZKPT returns following result:
 ===========================================
 
 Found     35 irreducible k-points:
 
 Following reciprocal coordinates:
            Coordinates               Weight
  0.000000  0.000000  0.000000      1.000000
  0.111111  0.000000  0.000000      6.000000
  0.222222  0.000000  0.000000      6.000000
  0.333333  0.000000  0.000000      6.000000
  0.444444  0.000000  0.000000      6.000000
  0.111111  0.111111  0.000000     12.000000
  0.222222  0.111111  0.000000     24.000000
  0.333333  0.111111  0.000000     24.000000
  0.444444  0.111111  0.000000     24.000000
  0.222222  0.222222  0.000000     12.000000
  0.333333  0.222222  0.000000     24.000000
  0.444444  0.222222  0.000000     24.000000
  0.333333  0.333333  0.000000     12.000000
  0.444444  0.333333  0.000000     24.000000
  0.444444  0.444444  0.000000     12.000000
  0.111111  0.111111  0.111111      8.000000
  0.222222  0.111111  0.111111     24.000000
  0.333333  0.111111  0.111111     24.000000
  0.444444  0.111111  0.111111     24.000000
  0.222222  0.222222  0.111111     24.000000
  0.333333  0.222222  0.111111     48.000000
  0.444444  0.222222  0.111111     48.000000
  0.333333  0.333333  0.111111     24.000000
  0.444444  0.333333  0.111111     48.000000
  0.444444  0.444444  0.111111     24.000000
  0.222222  0.222222  0.222222      8.000000
  0.333333  0.222222  0.222222     24.000000
  0.444444  0.222222  0.222222     24.000000
  0.333333  0.333333  0.222222     24.000000
  0.444444  0.333333  0.222222     48.000000
  0.444444  0.444444  0.222222     24.000000
  0.333333  0.333333  0.333333      8.000000
  0.444444  0.333333  0.333333     24.000000
  0.444444  0.444444  0.333333     24.000000
  0.444444  0.444444  0.444444      8.000000
 
 Following cartesian coordinates:
            Coordinates               Weight
  0.000000  0.000000  0.000000      1.000000
  0.027478  0.000000  0.000000      6.000000
  0.054955  0.000000  0.000000      6.000000
  0.082433  0.000000  0.000000      6.000000
  0.109911  0.000000  0.000000      6.000000
  0.027478  0.027478  0.000000     12.000000
  0.054955  0.027478  0.000000     24.000000
  0.082433  0.027478  0.000000     24.000000
  0.109911  0.027478  0.000000     24.000000
  0.054955  0.054955  0.000000     12.000000
  0.082433  0.054955  0.000000     24.000000
  0.109911  0.054955  0.000000     24.000000
  0.082433  0.082433  0.000000     12.000000
  0.109911  0.082433  0.000000     24.000000
  0.109911  0.109911  0.000000     12.000000
  0.027478  0.027478  0.027478      8.000000
  0.054955  0.027478  0.027478     24.000000
  0.082433  0.027478  0.027478     24.000000
  0.109911  0.027478  0.027478     24.000000
  0.054955  0.054955  0.027478     24.000000
  0.082433  0.054955  0.027478     48.000000
  0.109911  0.054955  0.027478     48.000000
  0.082433  0.082433  0.027478     24.000000
  0.109911  0.082433  0.027478     48.000000
  0.109911  0.109911  0.027478     24.000000
  0.054955  0.054955  0.054955      8.000000
  0.082433  0.054955  0.054955     24.000000
  0.109911  0.054955  0.054955     24.000000
  0.082433  0.082433  0.054955     24.000000
  0.109911  0.082433  0.054955     48.000000
  0.109911  0.109911  0.054955     24.000000
  0.082433  0.082433  0.082433      8.000000
  0.109911  0.082433  0.082433     24.000000
  0.109911  0.109911  0.082433     24.000000
  0.109911  0.109911  0.109911      8.000000
 


--------------------------------------------------------------------------------------------------------




 Dimension of arrays:
   k-points           NKPTS =     35   k-points in BZ     NKDIM =     35   number of bands    NBANDS=    128
   number of dos      NEDOS =    301   number of ions     NIONS =      4
   non local maximal  LDIM  =      4   non local SUM 2l+1 LMDIM =      8
   total plane-waves  NPLWV =  13824
   max r-space proj   IRMAX =      1   max aug-charges    IRDMAX=   8336
   dimension x,y,z NGX =    24 NGY =   24 NGZ =   24
   dimension x,y,z NGXF=    48 NGYF=   48 NGZF=   48
   support grid    NGXF=    48 NGYF=   48 NGZF=   48
   ions per type =               4
   NGX,Y,Z   is equivalent  to a cutoff of   9.87,  9.87,  9.87 a.u.
   NGXF,Y,Z  is equivalent  to a cutoff of  19.73, 19.73, 19.73 a.u.

 SYSTEM =  unknown system                          
 POSCAR =  Al4                                     

 Startparameter for this run:
   NWRITE =      2    write-flag & timer
   PREC   = accura    normal or accurate (medium, high low for compatibility)
   ISTART =      0    job   : 0-new  1-cont  2-samecut
   ICHARG =      2    charge: 1-file 2-atom 10-const
   ISPIN  =      1    spin polarized calculation?
   LNONCOLLINEAR =      F non collinear calculations
   LSORBIT =      F    spin-orbit coupling
   INIWAV =      1    electr: 0-lowe 1-rand  2-diag
   LASPH  =      F    aspherical Exc in radial PAW
 Electronic Relaxation 1
   ENCUT  =  270.0 eV  19.84 Ry    4.45 a.u.   5.42  5.42  5.42*2*pi/ulx,y,z
   ENINI  =  270.0     initial cutoff
   ENAUG  =  291.1 eV  augmentation charge cutoff
   NELM   =    200;   NELMIN=  2; NELMDL= -5     # of ELM steps 
   EDIFF  = 0.1E-05   stopping-criterion for ELM
   LREAL  =      F    real-space projection
   NLSPLINE    = F    spline interpolate recip. space projectors
   LCOMPAT=      F    compatible to vasp.4.4
   GGA_COMPAT  = T    GGA compatible to vasp.4.4-vasp.4.6
   LMAXPAW     = -100 max onsite density
   LMAXMIX     =    2 max onsite mixed and CHGCAR
   VOSKOWN=      0    Vosko Wilk Nusair interpolation
   ROPT   =    0.00000
 Ionic relaxation
   EDIFFG = -.1E-01   stopping-criterion for IOM
   NSW    =      0    number of steps for IOM
   NBLOCK =      1;   KBLOCK =      1    inner block; outer block 
   IBRION =     -1    ionic relax: 0-MD 1-quasi-New 2-CG
   NFREE  =      0    steps in history (QN), initial steepest desc. (CG)
   ISIF   =      2    stress and relaxation
   IWAVPR =     10    prediction:  0-non 1-charg 2-wave 3-comb
   ISYM   =      2    0-nonsym 1-usesym 2-fastsym
   LCORR  =      T    Harris-Foulkes like correction to forces

   POTIM  = 0.5000    time-step for ionic-motion
   TEIN   =    0.0    initial temperature
   TEBEG  =    0.0;   TEEND  =   0.0 temperature during run
   SMASS  =  -3.00    Nose mass-parameter (am)
   estimated Nose-frequenzy (Omega)   =  0.10E-29 period in steps = 0.13E+47 mass=  -0.374E-27a.u.
   SCALEE = 1.0000    scale energy and forces
   NPACO  =    256;   APACO  = 10.0  distance and # of slots for P.C.
   PSTRESS=    0.0 pullay stress

  Mass of Ions in am
   POMASS =  26.98
  Ionic Valenz
   ZVAL   =   3.00
  Atomic Wigner-Seitz radii
   RWIGS  =  -1.00
  virtual crystal weights 
   VCA    =   1.00
   NELECT =      12.0000    total number of electrons
   NUPDOWN=      -1.0000    fix difference up-down

 DOS related values:
   EMIN   =  10.00;   EMAX   =-10.00  energy-range for DOS
   EFERMI =   0.00;   METHOD = LEGACY      
   ISMEAR =    -5;   SIGMA  =   0.20  broadening in eV -4-tet -1-fermi 0-gaus

 Electronic relaxation 2 (details)
   IALGO  =     38    algorithm
   LDIAG  =      T    sub-space diagonalisation (order eigenvalues)
   LSUBROT=      F    optimize rotation matrix (better conditioning)
   TURBO    =      0    0=normal 1=particle mesh
   IRESTART =      0    0=no restart 2=restart with 2 vectors
   NREBOOT  =      0    no. of reboots
   NMIN     =      0    reboot dimension
   EREF     =   0.00    reference energy to select bands
   IMIX   =      4    mixing-type and parameters
     AMIX     =   0.40;   BMIX     =  1.00
     AMIX_MAG =   1.60;   BMIX_MAG =  1.00
     AMIN     =   0.10
     WC   =   100.;   INIMIX=   1;  MIXPRE=   1;  MAXMIX= -45

 Intra band minimization:
   WEIMIN = 0.0000     energy-eigenvalue tresh-hold
   EBREAK =  0.20E-08  absolut break condition
   DEPER  =   0.30     relativ break condition  

   TIME   =   0.40     timestep for ELM

  volume/ion in A,a.u.               =      16.53       111.55
  Fermi-wavevector in a.u.,A,eV,Ry     =   0.926881  1.751552 11.688885  0.859109
  Thomas-Fermi vector in A             =   2.052891
 
 Write flags
   LWAVE        =      F    write WAVECAR
   LDOWNSAMPLE  =      F    k-point downsampling of WAVECAR
   LCHARG       =      F    write CHGCAR
   LVTOT        =      F    write LOCPOT, total local potential
   LVHAR        =      F    write LOCPOT, Hartree potential only
   WRT_POTENTIAL= false  ! write potential to hdf5 file
   LELF         =      F    write electronic localiz. function (ELF)
   LORBIT       =      0    0 simple, 1 ext, 2 COOP (PROOUT), +10 PAW based schemes


 Dipole corrections
   LMONO      =      F    monopole corrections only (constant potential shift)
   LDIPOL     =      F    correct potential (dipole corrections)
   IDIPOL     =      0    1-x, 2-y, 3-z, 4-all directions 
   EPSILON    =  1.0000000 bulk dielectric constant
   LVACPOTAV  =      F  vacuum potentials using an averaging scheme for the charge density
   VACPOTFLAT =  0.1000000 required flatness to determine vacuum potential
 Exchange correlation treatment:
   GGA     = PE    functional components
   XC_C    = 1    coefficients multiplying the functional components
   LIBXC   =     F    Libxc                    
   VOSKOWN =     0    Vosko Wilk Nusair interpolation
   LHFCALC =     F    Hartree Fock is set to
   LHFONE  =     F    Hartree Fock one center treatment
   AEXX    =    0.0000 exact exchange contribution

 Parameters of functionals:
   PE:
     No parameter
 
 Van der Waals corrections
   IVDW    =     0    specifies the selected vdW correction

 Linear response parameters
   LEPSILON=     F    determine dielectric tensor
   LRPA    =     F    only Hartree local field effects (RPA)
   LNABLA  =     F    use nabla operator in PAW spheres
   LVEL    =     F    velocity operator in full k-point grid
   CSHIFT  =0.1000    complex shift for real part using Kramers Kronig
   OMEGAMAX=  -1.0    maximum frequency
   DEG_THRESHOLD= 0.2000000E-02 threshold for treating states as degnerate
   RTIME   =   -0.100 relaxation time in fs
  (WPLASMAI=    0.000 imaginary part of plasma frequency in eV, 0.658/RTIME)
   DFIELD  = 0.0000000 0.0000000 0.0000000 field for delta impulse in time
 
  Optional k-point grid parameters
   LKPOINTS_OPT  =     F    use optional k-point grid
   KPOINTS_OPT_MODE=     1    mode for optional k-point grid
 
 Orbital magnetization related:
   ORBITALMAG=     F  switch on orbital magnetization
   LCHIMAG   =     F  perturbation theory with respect to B field
   DQ        =  0.001000  dq finite difference perturbation B field
   LLRAUG    =     F  two centre corrections for induced B field
   LBONE     =     F  B-component reconstruction in AE one-centre
   LVGVCALC  =     T  calculate vGv susceptibility
   LVGVAPPL  =     F  apply vGv susceptibility instead of pGv for G=0

 Random number generation:
   RANDOM_GENERATOR = DEFAULT
   PCG_SEED         = not used


--------------------------------------------------------------------------------------------------------


 Static calculation
 charge density and potential will be updated during run
 non-spin polarized calculation
 Variant of blocked Davidson
 Davidson routine will perform the subspace rotation
 perform sub-space diagonalisation
    after iterative eigenvector-optimisation
 modified Broyden-mixing scheme, WC =      100.0
 initial mixing is a Kerker type mixing with AMIX =  0.4000 and BMIX =      1.0000
 Hartree-type preconditioning will be used
 using additional bands          122
 reciprocal scheme for non local part
 use partial core corrections
 calculate Harris-corrections to forces 
   (improved forces if not selfconsistent)
 use gradient corrections 
 use of overlap-Matrix (Vanderbilt PP)
 Fermi weights with tetrahedron method with Bloechl corrections


--------------------------------------------------------------------------------------------------------


  energy-cutoff  :      270.00
  volume of cell :       66.12
      direct lattice vectors                 reciprocal lattice vectors
     4.043689723  0.000000000  0.000000000     0.247298895 -0.000000000  0.000000000
     0.000000000  4.043689723  0.000000000     0.000000000  0.247298895  0.000000000
     0.000000000  0.000000000  4.043689723    -0.000000000 -0.000000000  0.247298895

  length of vectors
     4.043689723  4.043689723  4.043689723     0.247298895  0.247298895  0.247298895


 
 k-points in units of 2pi/SCALE and weight: pymatgen with grid density = 4000 / numb
   0.00000000  0.00000000  0.00000000       0.001
   0.02747765  0.00000000  0.00000000       0.008
   0.05495531  0.00000000  0.00000000       0.008
   0.08243296  0.00000000  0.00000000       0.008
   0.10991062  0.00000000  0.00000000       0.008
   0.02747765  0.02747765  0.00000000       0.016
   0.05495531  0.02747765  0.00000000       0.033
   0.08243296  0.02747765  0.00000000       0.033
   0.10991062  0.02747765  0.00000000       0.033
   0.05495531  0.05495531  0.00000000       0.016
   0.08243296  0.05495531  0.00000000       0.033
   0.10991062  0.05495531  0.00000000       0.033
   0.08243296  0.08243296  0.00000000       0.016
   0.10991062  0.08243296  0.00000000       0.033
   0.10991062  0.10991062  0.00000000       0.016
   0.02747765  0.02747765  0.02747765       0.011
   0.05495531  0.02747765  0.02747765       0.033
   0.08243296  0.02747765  0.02747765       0.033
   0.10991062  0.02747765  0.02747765       0.033
   0.05495531  0.05495531  0.02747765       0.033
   0.08243296  0.05495531  0.02747765       0.066
   0.10991062  0.05495531  0.02747765       0.066
   0.08243296  0.08243296  0.02747765       0.033
   0.10991062  0.08243296  0.02747765       0.066
   0.10991062  0.10991062  0.02747765       0.033
   0.05495531  0.05495531  0.05495531       0.011
   0.08243296  0.05495531  0.05495531       0.033
   0.10991062  0.05495531  0.05495531       0.033
   0.08243296  0.08243296  0.05495531       0.033
   0.10991062  0.08243296  0.05495531       0.066
   0.10991062  0.10991062  0.05495531       0.033
   0.08243296  0.08243296  0.08243296       0.011
   0.10991062  0.08243296  0.08243296       0.033
   0.10991062  0.10991062  0.08243296       0.033
   0.10991062  0.10991062  0.10991062       0.011
 
 k-points in reciprocal lattice and weights: pymatgen with grid density = 4000 / numb
   0.00000000  0.00000000  0.00000000       0.001
   0.11111111  0.00000000  0.00000000       0.008
   0.22222222  0.00000000  0.00000000       0.008
   0.33333333  0.00000000  0.00000000       0.008
   0.44444444  0.00000000  0.00000000       0.008
   0.11111111  0.11111111  0.00000000       0.016
   0.22222222  0.11111111  0.00000000       0.033
   0.33333333  0.11111111  0.00000000       0.033
   0.44444444  0.11111111  0.00000000       0.033
   0.22222222  0.22222222  0.00000000       0.016
   0.33333333  0.22222222  0.00000000       0.033
   0.44444444  0.22222222  0.00000000       0.033
   0.33333333  0.33333333  0.00000000       0.016
   0.44444444  0.33333333  0.00000000       0.033
   0.44444444  0.44444444  0.00000000       0.016
   0.11111111  0.11111111  0.11111111       0.011
   0.22222222  0.11111111  0.11111111       0.033
   0.33333333  0.11111111  0.11111111       0.033
   0.44444444  0.11111111  0.11111111       0.033
   0.22222222  0.22222222  0.11111111       0.033
   0.33333333  0.22222222  0.11111111       0.066
   0.44444444  0.22222222  0.11111111       0.066
   0.33333333  0.33333333  0.11111111       0.033
   0.44444444  0.33333333  0.11111111       0.066
   0.44444444  0.44444444  0.11111111       0.033
   0.22222222  0.22222222  0.22222222       0.011
   0.33333333  0.22222222  0.22222222       0.033
   0.44444444  0.22222222  0.22222222       0.033
   0.33333333  0.33333333  0.22222222       0.033
   0.44444444  0.33333333  0.22222222       0.066
   0.44444444  0.44444444  0.22222222       0.033
   0.33333333  0.33333333  0.33333333       0.011
   0.44444444  0.33333333  0.33333333       0.033
   0.44444444  0.44444444  0.33333333       0.033
   0.44444444  0.44444444  0.44444444       0.011
 
 position of ions in fractional coordinates (direct lattice) 
   0.00000000  0.00000000  0.00000000
   0.00000000  0.50000000  0.50000000
   0.50000000  0.00000000  0.50000000
   0.50000000  0.50000000  0.00000000
 
 position of ions in cartesian coordinates  (Angst):
   0.00000000  0.00000000  0.00000000
   0.00000000  2.02184486  2.02184486
   2.02184486  0.00000000  2.02184486
   2.02184486  2.02184486  0.00000000
 


--------------------------------------------------------------------------------------------------------


 k-point     1 :   0.0000 0.0000 0.0000  plane waves:     691
 k-point     2 :   0.1111 0.0000 0.0000  plane waves:     667
 k-point     3 :   0.2222 0.0000 0.0000  plane waves:     675
 k-point     4 :   0.3333 0.0000 0.0000  plane waves:     667
 k-point     5 :   0.4444 0.0000 0.0000  plane waves:     670
 k-point     6 :   0.1111 0.1111 0.0000  plane waves:     675
 k-point     7 :   0.2222 0.1111 0.0000  plane waves:     674
 k-point     8 :   0.3333 0.1111 0.0000  plane waves:     666
 k-point     9 :   0.4444 0.1111 0.0000  plane waves:     663
 k-point    10 :   0.2222 0.2222 0.0000  plane waves:     670
 k-point    11 :   0.3333 0.2222 0.0000  plane waves:     669
 k-point    12 :   0.4444 0.2222 0.0000  plane waves:     663
 k-point    13 :   0.3333 0.3333 0.0000  plane waves:     658
 k-point    14 :   0.4444 0.3333 0.0000  plane waves:     670
 k-point    15 :   0.4444 0.4444 0.0000  plane waves:     666
 k-point    16 :   0.1111 0.1111 0.1111  plane waves:     679
 k-point    17 :   0.2222 0.1111 0.1111  plane waves:     675
 k-point    18 :   0.3333 0.1111 0.1111  plane waves:     667
 k-point    19 :   0.4444 0.1111 0.1111  plane waves:     661
 k-point    20 :   0.2222 0.2222 0.1111  plane waves:     676
 k-point    21 :   0.3333 0.2222 0.1111  plane waves:     665
 k-point    22 :   0.4444 0.2222 0.1111  plane waves:     660
 k-point    23 :   0.3333 0.3333 0.1111  plane waves:     668
 k-point    24 :   0.4444 0.3333 0.1111  plane waves:     665
 k-point    25 :   0.4444 0.4444 0.1111  plane waves:     662
 k-point    26 :   0.2222 0.2222 0.2222  plane waves:     672
 k-point    27 :   0.3333 0.2222 0.2222  plane waves:     668
 k-point    28 :   0.4444 0.2222 0.2222  plane waves:     662
 k-point    29 :   0.3333 0.3333 0.2222  plane waves:     663
 k-point    30 :   0.4444 0.3333 0.2222  plane waves:     660
 k-point    31 :   0.4444 0.4444 0.2222  plane waves:     657
 k-point    32 :   0.3333 0.3333 0.3333  plane waves:     669
 k-point    33 :   0.4444 0.3333 0.3333  plane waves:     666
 k-point    34 :   0.4444 0.4444 0.3333  plane waves:     663
 k-point    35 :   0.4444 0.4444 0.4444  plane waves:     660

 maximum and minimum number of plane-waves per node :       691      657

 maximum number of plane-waves:       691
 maximum index in each direction: 
   IXMAX=    5   IYMAX=    5   IZMAX=    5
   IXMIN=   -5   IYMIN=   -5   IZMIN=   -5


 serial   3D FFT for wavefunctions
 parallel 3D FFT for charge:
    minimum data exchange during FFTs selected (reduces bandwidth)


 total amount of memory used by VASP MPI-rank0    33117. kBytes
=======================================================================

   base      :      30000. kBytes
   nonl-proj :       1769. kBytes
   fftplans  :        160. kBytes
   grid      :        675. kBytes
   one-center:         12. kBytes
   wavefun   :        501. kBytes
 
     INWAV:  cpu time      0.0000: real time      0.0000
 Broyden mixing: mesh for mixing (old mesh)
   NGX = 11   NGY = 11   NGZ = 11
  (NGX  = 48   NGY  = 48   NGZ  = 48)
  gives a total of   1331 points

 initial charge density was supplied:
 charge density of overlapping atoms calculated
 number of electron      12.0000000 magnetization 
 keeping initial charge density in first step


--------------------------------------------------------------------------------------------------------


 Maximum index for augmentation-charges          481 (set IRDMAX)


--------------------------------------------------------------------------------------------------------


 First call to EWALD:  gamma=   0.438
 Maximum number of real-space cells 3x 3x 3
 Maximum number of reciprocal cells 3x 3x 3

    FEWALD:  cpu time      0.0025: real time      0.0027


--------------------------------------- Ionic step        1  -------------------------------------------




--------------------------------------- Iteration      1(   1)  ---------------------------------------


    POTLOK:  cpu time      0.0180: real time      0.0204
    SETDIJ:  cpu time      0.0085: real time      0.0094
     EDDAV:  cpu time     22.5676: real time     22.6866
 BZINTS: Fermi energy:    7.965716;   12.000000 electrons
         Band energy: 0.431315E+02;  BLOECHL correction:   -0.251397
       DOS:  cpu time      0.1486: real time      0.1494
    --------------------------------------------
      LOOP:  cpu time     22.7428: real time     22.8658

 eigenvalue-minimisations  : 13440
 total energy-change (2. order) :-0.1498080E+02  (-0.3097517E+03)
 number of electron      12.0000000 magnetization 
 augmentation part       12.0000000 magnetization 

 Free energy of the ion-electron system (eV)
  ---------------------------------------------------
  alpha Z        PSCENC =        -0.81277799
  Ewald energy   TEWEN  =      -293.88473869
  -Hartree energ DENC   =        -0.40832449
  -exchange      EXHF   =         0.00000000
  -V(xc)+E(xc)   XCENC  =      -104.97206780
  PAW double counting   =       264.80062850     -136.98248303
  entropy T*S    EENTRO =         0.00000000
  eigenvalues    EBANDS =        43.13146040
  atomic energy  EATOM  =       214.14750026
  Solvation  Ediel_sol  =         0.00000000
  ---------------------------------------------------
  free energy    TOTEN  =       -14.98080284 eV

  energy without entropy =      -14.98080284  energy(sigma->0) =      -14.98080284


--------------------------------------------------------------------------------------------------------




--------------------------------------- Iteration      1(   2)  ---------------------------------------


     EDDAV:  cpu time     10.2666: real time     10.3274
 BZINTS: Fermi energy:    7.957910;   12.000000 electrons
         Band energy: 0.430716E+02;  BLOECHL correction:   -0.251430
       DOS:  cpu time      0.0255: real time      0.0256
    --------------------------------------------
      LOOP:  cpu time     10.2921: real time     10.3530

 eigenvalue-minimisations  :  8960
 total energy-change (2. order) :-0.5990025E-01  (-0.5976520E-01)
 number of electron      12.0000000 magnetization 
 augmentation part       12.0000000 magnetization 

 Free energy of the ion-electron system (eV)
  ---------------------------------------------------
  alpha Z        PSCENC =        -0.81277799
  Ewald energy   TEWEN  =      -293.88473869
  -Hartree energ DENC   =        -0.40832449
  -exchange      EXHF   =         0.00000000
  -V(xc)+E(xc)   XCENC  =      -104.97206780
  PAW double counting   =       264.80062850     -136.98248303
  entropy T*S    EENTRO =         0.00000000
  eigenvalues    EBANDS =        43.07156015
  atomic energy  EATOM  =       214.14750026
  Solvation  Ediel_sol  =         0.00000000
  ---------------------------------------------------
  free energy    TOTEN  =       -15.04070309 eV

  energy without entropy =      -15.04070309  energy(sigma->0) =      -15.04070309


--------------------------------------------------------------------------------------------------------




--------------------------------------- Iteration      1(   3)  ---------------------------------------


     EDDAV:  cpu time     40.4147: real time     40.5982
 BZINTS: Fermi energy:    7.957910;   12.000000 electrons
         Band energy: 0.430716E+02;  BLOECHL correction:   -0.251430
       DOS:  cpu time      0.0177: real time      0.0191
    --------------------------------------------
      LOOP:  cpu time     40.4323: real time     40.6173

 eigenvalue-minimisations  : 17664
 total energy-change (2. order) :-0.3046923E-05  (-0.3021777E-05)
 number of electron      12.0000000 magnetization 
 augmentation part       12.0000000 magnetization 

 Free energy of the ion-electron system (eV)
  ---------------------------------------------------
  alpha Z        PSCENC =        -0.81277799
  Ewald energy   TEWEN  =      -293.88473869
  -Hartree energ DENC   =        -0.40832449
  -exchange      EXHF   =         0.00000000
  -V(xc)+E(xc)   XCENC  =      -104.97206780
  PAW double counting   =       264.80062850     -136.98248303
  entropy T*S    EENTRO =         0.00000000
  eigenvalues    EBANDS =        43.07155710
  atomic energy  EATOM  =       214.14750026
  Solvation  Ediel_sol  =         0.00000000
  ---------------------------------------------------
  free energy    TOTEN  =       -15.04070614 eV

  energy without entropy =      -15.04070614  energy(sigma->0) =      -15.04070614


--------------------------------------------------------------------------------------------------------




--------------------------------------- Iteration      1(   4)  ---------------------------------------


     EDDAV:  cpu time     10.7115: real time     10.7697
 BZINTS: Fermi energy:    7.957910;   12.000000 electrons
         Band energy: 0.430716E+02;  BLOECHL correction:   -0.251430
       DOS:  cpu time      0.0158: real time      0.0160
    --------------------------------------------
      LOOP:  cpu time     10.7273: real time     10.7857

 eigenvalue-minimisations  :  8960
 total energy-change (2. order) : 0.9834480E-09  ( 0.1834755E-12)
 number of electron      12.0000000 magnetization 
 augmentation part       12.0000000 magnetization 

 Free energy of the ion-electron system (eV)
  ---------------------------------------------------
  alpha Z        PSCENC =        -0.81277799
  Ewald energy   TEWEN  =      -293.88473869
  -Hartree energ DENC   =        -0.40832449
  -exchange      EXHF   =         0.00000000
  -V(xc)+E(xc)   XCENC  =      -104.97206780
  PAW double counting   =       264.80062850     -136.98248303
  entropy T*S    EENTRO =         0.00000000
  eigenvalues    EBANDS =        43.07155710
  atomic energy  EATOM  =       214.14750026
  Solvation  Ediel_sol  =         0.00000000
  ---------------------------------------------------
  free energy    TOTEN  =       -15.04070614 eV

  energy without entropy =      -15.04070614  energy(sigma->0) =      -15.04070614


--------------------------------------------------------------------------------------------------------




--------------------------------------- Iteration      1(   5)  ---------------------------------------


     EDDAV:  cpu time     38.7320: real time     38.9343
 BZINTS: Fermi energy:    7.957910;   12.000000 electrons
         Band energy: 0.430716E+02;  BLOECHL correction:   -0.251430
       DOS:  cpu time      0.0157: real time      0.0159
    CHARGE:  cpu time      0.0246: real time      0.0254
    MIXING:  cpu time      0.0069: real time      0.0079
    --------------------------------------------
      LOOP:  cpu time     38.7793: real time     38.9836

 eigenvalue-minimisations  : 17536
 total energy-change (2. order) :-0.6193090E-09  ( 0.9655468E-14)
 number of electron      11.9999999 magnetization 
 augmentation part       -0.1429272 magnetization 

 Broyden mixing:
  rms(total) = 0.28674E+00    rms(broyden)= 0.28674E+00
  rms(prec ) = 0.48656E+00
  weight for this iteration     100.00

 Free energy of the ion-electron system (eV)
  ---------------------------------------------------
  alpha Z        PSCENC =        -0.81277799
  Ewald energy   TEWEN  =      -293.88473869
  -Hartree energ DENC   =        -0.40832449
  -exchange      EXHF   =         0.00000000
  -V(xc)+E(xc)   XCENC  =      -104.97206780
  PAW double counting   =       264.80062850     -136.98248303
  entropy T*S    EENTRO =         0.00000000
  eigenvalues    EBANDS =        43.07155710
  atomic energy  EATOM  =       214.14750026
  Solvation  Ediel_sol  =         0.00000000
  ---------------------------------------------------
  free energy    TOTEN  =       -15.04070614 eV

  energy without entropy =      -15.04070614  energy(sigma->0) =      -15.04070614


--------------------------------------------------------------------------------------------------------




--------------------------------------- Iteration      1(   6)  ---------------------------------------


    POTLOK:  cpu time      0.0205: real time      0.0265
    SETDIJ:  cpu time      0.0010: real time      0.0011
     EDDAV:  cpu time     12.8244: real time     12.8875
 BZINTS: Fermi energy:    7.945171;   12.000000 electrons
         Band energy: 0.429360E+02;  BLOECHL correction:   -0.251646
       DOS:  cpu time      0.0184: real time      0.0186
    CHARGE:  cpu time      0.0113: real time      0.0114
    MIXING:  cpu time      0.0047: real time      0.0090
    --------------------------------------------
      LOOP:  cpu time     12.8803: real time     12.9539

 eigenvalue-minimisations  :  9728
 total energy-change (2. order) : 0.5094979E-01  (-0.6080651E-03)
 number of electron      11.9999999 magnetization 
 augmentation part       -0.1451591 magnetization 

 Broyden mixing:
  rms(total) = 0.16535E+00    rms(broyden)= 0.16535E+00
  rms(prec ) = 0.29661E+00
  weight for this iteration     100.00

 eigenvalues of (default mixing * dielectric matrix)
  average eigenvalue GAMMA=   2.3133
  2.3133

 Free energy of the ion-electron system (eV)
  ---------------------------------------------------
  alpha Z        PSCENC =        -0.81277799
  Ewald energy   TEWEN  =      -293.88473869
  -Hartree energ DENC   =        -0.34456233
  -exchange      EXHF   =         0.00000000
  -V(xc)+E(xc)   XCENC  =      -104.83421896
  PAW double counting   =       405.73268429     -277.92967115
  entropy T*S    EENTRO =         0.00000000
  eigenvalues    EBANDS =        42.93602822
  atomic energy  EATOM  =       214.14750026
  Solvation  Ediel_sol  =         0.00000000
  ---------------------------------------------------
  free energy    TOTEN  =       -14.98975635 eV

  energy without entropy =      -14.98975635  energy(sigma->0) =      -14.98975635


--------------------------------------------------------------------------------------------------------




--------------------------------------- Iteration      1(   7)  ---------------------------------------


    POTLOK:  cpu time      0.3826: real time      0.3899
    SETDIJ:  cpu time      0.0010: real time      0.0010
     EDDAV:  cpu time     18.4624: real time     18.5560
 BZINTS: Fermi energy:    7.930849;   12.000000 electrons
         Band energy: 0.427978E+02;  BLOECHL correction:   -0.252196
       DOS:  cpu time      0.0160: real time      0.0174
    CHARGE:  cpu time      0.0101: real time      0.0101
    MIXING:  cpu time      0.0026: real time      0.0027
    --------------------------------------------
      LOOP:  cpu time     18.8747: real time     18.9771

 eigenvalue-minimisations  : 10240
 total energy-change (2. order) : 0.3753014E-01  (-0.1762671E-02)
 number of electron      11.9999999 magnetization 
 augmentation part       -0.1493556 magnetization 

 Broyden mixing:
  rms(total) = 0.29397E-01    rms(broyden)= 0.29397E-01
  rms(prec ) = 0.32286E-01
  weight for this iteration     100.00

 eigenvalues of (default mixing * dielectric matrix)
  average eigenvalue GAMMA=   2.8758
  2.8758  2.8758

 Free energy of the ion-electron system (eV)
  ---------------------------------------------------
  alpha Z        PSCENC =        -0.81277799
  Ewald energy   TEWEN  =      -293.88473869
  -Hartree energ DENC   =        -0.40949987
  -exchange      EXHF   =         0.00000000
  -V(xc)+E(xc)   XCENC  =      -104.56317849
  PAW double counting   =       694.67974243     -566.90705885
  entropy T*S    EENTRO =         0.00000000
  eigenvalues    EBANDS =        42.79778501
  atomic energy  EATOM  =       214.14750026
  Solvation  Ediel_sol  =         0.00000000
  ---------------------------------------------------
  free energy    TOTEN  =       -14.95222620 eV

  energy without entropy =      -14.95222620  energy(sigma->0) =      -14.95222620


--------------------------------------------------------------------------------------------------------




--------------------------------------- Iteration      1(   8)  ---------------------------------------


    POTLOK:  cpu time      0.0241: real time      0.0253
    SETDIJ:  cpu time      0.0010: real time      0.0010
     EDDAV:  cpu time     16.0620: real time     16.1377
 BZINTS: Fermi energy:    7.931114;   12.000000 electrons
         Band energy: 0.428033E+02;  BLOECHL correction:   -0.252243
       DOS:  cpu time      0.0160: real time      0.0162
    CHARGE:  cpu time      0.0100: real time      0.0101
    MIXING:  cpu time      0.0006: real time      0.0014
    --------------------------------------------
      LOOP:  cpu time     16.1138: real time     16.1918

 eigenvalue-minimisations  : 11008
 total energy-change (2. order) : 0.1269044E-03  (-0.3967207E-05)
 number of electron      11.9999999 magnetization 
 augmentation part       -0.1496433 magnetization 

 Broyden mixing:
  rms(total) = 0.56262E-02    rms(broyden)= 0.56262E-02
  rms(prec ) = 0.66300E-02
  weight for this iteration     100.00

 eigenvalues of (default mixing * dielectric matrix)
  average eigenvalue GAMMA=   2.0981
  1.0716  2.5026  2.7200

 Free energy of the ion-electron system (eV)
  ---------------------------------------------------
  alpha Z        PSCENC =        -0.81277799
  Ewald energy   TEWEN  =      -293.88473869
  -Hartree energ DENC   =        -0.42560803
  -exchange      EXHF   =         0.00000000
  -V(xc)+E(xc)   XCENC  =      -104.54112470
  PAW double counting   =       629.69610468     -501.93476991
  entropy T*S    EENTRO =         0.00000000
  eigenvalues    EBANDS =        42.80331508
  atomic energy  EATOM  =       214.14750026
  Solvation  Ediel_sol  =         0.00000000
  ---------------------------------------------------
  free energy    TOTEN  =       -14.95209930 eV

  energy without entropy =      -14.95209930  energy(sigma->0) =      -14.95209930


--------------------------------------------------------------------------------------------------------




--------------------------------------- Iteration      1(   9)  ---------------------------------------


    POTLOK:  cpu time      0.0237: real time      0.0251
    SETDIJ:  cpu time      0.0010: real time      0.0010
     EDDAV:  cpu time     25.2704: real time     25.4005
 BZINTS: Fermi energy:    7.930882;   12.000000 electrons
         Band energy: 0.428010E+02;  BLOECHL correction:   -0.252251
       DOS:  cpu time      0.0158: real time      0.0160
    CHARGE:  cpu time      0.0111: real time      0.0112
    MIXING:  cpu time      0.0004: real time      0.0004
    --------------------------------------------
      LOOP:  cpu time     25.3224: real time     25.4541

 eigenvalue-minimisations  : 13824
 total energy-change (2. order) : 0.4229231E-05  (-0.4326677E-06)
 number of electron      11.9999999 magnetization 
 augmentation part       -0.1497001 magnetization 

 Broyden mixing:
  rms(total) = 0.17736E-03    rms(broyden)= 0.17733E-03
  rms(prec ) = 0.22014E-03
  weight for this iteration     100.00

 eigenvalues of (default mixing * dielectric matrix)
  average eigenvalue GAMMA=   2.1977
  0.9975  2.6495  2.6495  2.4944

 Free energy of the ion-electron system (eV)
  ---------------------------------------------------
  alpha Z        PSCENC =        -0.81277799
  Ewald energy   TEWEN  =      -293.88473869
  -Hartree energ DENC   =        -0.42743512
  -exchange      EXHF   =         0.00000000
  -V(xc)+E(xc)   XCENC  =      -104.53748846
  PAW double counting   =       640.91657792     -513.15473312
  entropy T*S    EENTRO =         0.00000000
  eigenvalues    EBANDS =        42.80100014
  atomic energy  EATOM  =       214.14750026
  Solvation  Ediel_sol  =         0.00000000
  ---------------------------------------------------
  free energy    TOTEN  =       -14.95209507 eV

  energy without entropy =      -14.95209507  energy(sigma->0) =      -14.95209507


--------------------------------------------------------------------------------------------------------




--------------------------------------- Iteration      1(  10)  ---------------------------------------


    POTLOK:  cpu time      0.0233: real time      0.0251
    SETDIJ:  cpu time      0.0010: real time      0.0010
     EDDAV:  cpu time     16.3460: real time     16.4270
 BZINTS: Fermi energy:    7.930876;   12.000000 electrons
         Band energy: 0.428009E+02;  BLOECHL correction:   -0.252251
       DOS:  cpu time      0.0158: real time      0.0159
    --------------------------------------------
      LOOP:  cpu time     16.3862: real time     16.4691

 eigenvalue-minimisations  : 10624
 total energy-change (2. order) : 0.6249704E-06  (-0.4740363E-09)
 number of electron      11.9999999 magnetization 
 augmentation part       -0.1497001 magnetization 

 Free energy of the ion-electron system (eV)
  ---------------------------------------------------
  alpha Z        PSCENC =        -0.81277799
  Ewald energy   TEWEN  =      -293.88473869
  -Hartree energ DENC   =        -0.42746247
  -exchange      EXHF   =         0.00000000
  -V(xc)+E(xc)   XCENC  =      -104.53754699
  PAW double counting   =       640.96266644     -513.20064097
  entropy T*S    EENTRO =         0.00000000
  eigenvalues    EBANDS =        42.80090597
  atomic energy  EATOM  =       214.14750026
  Solvation  Ediel_sol  =         0.00000000
  ---------------------------------------------------
  free energy    TOTEN  =       -14.95209445 eV

  energy without entropy =      -14.95209445  energy(sigma->0) =      -14.95209445


--------------------------------------------------------------------------------------------------------




 average (electrostatic) potential at core
  the test charge radii are     1.0406
  (the norm of the test charge is              1.0000)
       1 -72.6438       2 -72.6438       3 -72.6438       4 -72.6438
 
 
 
 E-fermi :   7.9309     XC(G=0): -10.1894     alpha+bet :-14.8493

 val. band max:        8.3313550805   @ k =   0.2222   0.1111   0.1111
 cond. band min:       7.8271720314   @ k =   0.2222   0.2222   0.2222
 fundamental gap:     -0.5041830491
 Fermi energy:         7.9308758708

 k-point     1 :       0.0000    0.0000    0.0000
  band No.  band energies     occupation 
      1      -3.1387      2.00000
      2       5.0646      2.00000
      3       5.0646      2.00000
      4       5.0646      2.00000
      5       6.3865      2.00250
      6       6.3865      2.05798
      7       6.3865      2.64921
      8      13.2676      0.00000
      9      13.2676      0.00000
     10      13.2676      0.00000
     11      13.5704      0.00000
     12      13.5704      0.00000
     13      13.5704      0.00000
     14      13.5704      0.00000
     15      13.5704      0.00000
     16      13.5704      0.00000
     17      17.0489      0.00000
     18      17.0489      0.00000
     19      17.0489      0.00000
     20      20.6406      0.00000
     21      20.6406      0.00000
     22      20.6406      0.00000
     23      22.0721      0.00000
     24      22.0721      0.00000
     25      22.0721      0.00000
     26      24.4408      0.00000
     27      27.4574      0.00000
     28      27.4574      0.00000
     29      30.2443      0.00000
     30      32.6008      0.00000
     31      32.6008      0.00000
     32      32.6008      0.00000
     33      33.5517      0.00000
     34      33.5517      0.00000
     35      33.5517      0.00000
     36      35.0183      0.00000
     37      35.0183      0.00000
     38      35.0183      0.00000
     39      35.0183      0.00000
     40      35.0183      0.00000
     41      35.0183      0.00000
     42      40.5585      0.00000
     43      40.5585      0.00000
     44      40.5585      0.00000
     45      41.2680      0.00000
     46      41.3930      0.00000
     47      41.3930      0.00000
     48      41.3930      0.00000
     49      41.3930      0.00000
     50      41.3930      0.00000
     51      41.3930      0.00000
     52      41.7927      0.00000
     53      41.7927      0.00000
     54      41.7927      0.00000
     55      42.8181      0.00000
     56      42.8181      0.00000
     57      42.8181      0.00000
     58      48.4455      0.00000
     59      48.4455      0.00000
     60      48.4455      0.00000
     61      48.4455      0.00000
     62      48.4455      0.00000
     63      48.4455      0.00000
     64      49.1501      0.00000
     65      49.1501      0.00000
     66      49.1501      0.00000
     67      49.5250      0.00000
     68      49.5250      0.00000
     69      49.5250      0.00000
     70      49.5250      0.00000
     71      49.5250      0.00000
     72      49.5250      0.00000
     73      50.4060      0.00000
     74      50.4060      0.00000
     75      50.4060      0.00000
     76      51.2650      0.00000
     77      51.2650      0.00000
     78      51.2650      0.00000
     79      54.1735      0.00000
     80      54.1735      0.00000
     81      54.1735      0.00000
     82      59.7456      0.00000
     83      59.7456      0.00000
     84      59.7456      0.00000
     85      59.7615      0.00000
     86      62.3434      0.00000
     87      62.3434      0.00000
     88      62.3434      0.00000
     89      63.2257      0.00000
     90      63.2257      0.00000
     91      64.1552      0.00000
     92      64.1552      0.00000
     93      64.1552      0.00000
     94      64.4434      0.00000
     95      64.4434      0.00000
     96      64.4434      0.00000
     97      65.3470      0.00000
     98      65.3470      0.00000
     99      65.3470      0.00000
    100      66.9345      0.00000
    101      66.9345      0.00000
    102      66.9345      0.00000
    103      66.9345      0.00000
    104      66.9345      0.00000
    105      66.9345      0.00000
    106      67.3351      0.00000
    107      67.3351      0.00000
    108      67.3351      0.00000
    109      72.3827      0.00000
    110      72.3827      0.00000
    111      72.3827      0.00000
    112      75.4454      0.00000
    113      75.4454      0.00000
    114      75.4454      0.00000
    115      75.5609      0.00000
    116      75.5609      0.00000
    117      75.5609      0.00000
    118      75.5609      0.00000
    119      75.5609      0.00000
    120      75.5609      0.00000
    121      75.7713      0.00000
    122      75.7713      0.00000
    123      75.7713      0.00000
    124      76.3392      0.00000
    125      76.3392      0.00000
    126      76.3392      0.00000
    127      77.6311      0.00000
    128      77.6311      0.00000

 k-point     2 :       0.1111    0.0000    0.0000
  band No.  band energies     occupation 
      1      -3.0270      2.00000
      2       3.7943      2.00000
      3       5.1672      2.00000
      4       5.1672      2.00000
      5       6.4956      2.03488
      6       6.4956      2.54449
      7       7.8530      1.09733
      8      11.6552      0.00000
      9      11.6552      0.00000
     10      12.8598      0.00000
     11      12.8598      0.00000
     12      13.3822      0.00000
     13      13.6657      0.00000
     14      13.6657      0.00000
     15      15.3937      0.00000
     16      15.3937      0.00000
     17      17.1530      0.00000
     18      17.9274      0.00000
     19      17.9274      0.00000
     20      19.5930      0.00000
     21      19.5930      0.00000
     22      19.8735      0.00000
     23      21.8034      0.00000
     24      23.2854      0.00000
     25      23.2854      0.00000
     26      25.4313      0.00000
     27      26.0726      0.00000
     28      27.5614      0.00000
     29      30.2678      0.00000
     30      32.7282      0.00000
     31      32.7282      0.00000
     32      32.9106      0.00000
     33      32.9106      0.00000
     34      33.1349      0.00000
     35      33.6513      0.00000
     36      33.6513      0.00000
     37      34.1788      0.00000
     38      34.6755      0.00000
     39      34.6755      0.00000
     40      35.0818      0.00000
     41      35.0818      0.00000
     42      40.5856      0.00000
     43      40.6780      0.00000
     44      40.6780      0.00000
     45      41.0892      0.00000
     46      41.0892      0.00000
     47      41.2165      0.00000
     48      41.4583      0.00000
     49      41.4583      0.00000
     50      41.5998      0.00000
     51      41.5998      0.00000
     52      41.7411      0.00000
     53      42.3458      0.00000
     54      42.3458      0.00000
     55      43.5083      0.00000
     56      43.7515      0.00000
     57      43.7515      0.00000
     58      45.8988      0.00000
     59      45.8988      0.00000
     60      45.9000      0.00000
     61      47.5594      0.00000
     62      47.5594      0.00000
     63      47.6580      0.00000
     64      47.6580      0.00000
     65      48.3805      0.00000
     66      48.3805      0.00000
     67      49.9247      0.00000
     68      49.9247      0.00000
     69      51.1951      0.00000
     70      51.1951      0.00000
     71      51.3928      0.00000
     72      51.6161      0.00000
     73      51.6161      0.00000
     74      52.2243      0.00000
     75      52.2243      0.00000
     76      52.7109      0.00000
     77      52.7109      0.00000
     78      53.8350      0.00000
     79      54.7447      0.00000
     80      54.7447      0.00000
     81      55.2273      0.00000
     82      58.3482      0.00000
     83      58.3482      0.00000
     84      59.6854      0.00000
     85      59.8221      0.00000
     86      60.3944      0.00000
     87      61.7392      0.00000
     88      61.7392      0.00000
     89      62.5125      0.00000
     90      62.6898      0.00000
     91      63.3498      0.00000
     92      63.3498      0.00000
     93      64.3474      0.00000
     94      64.3474      0.00000
     95      64.3788      0.00000
     96      64.9499      0.00000
     97      66.6279      0.00000
     98      66.6279      0.00000
     99      67.2027      0.00000
    100      67.7085      0.00000
    101      67.7085      0.00000
    102      67.7974      0.00000
    103      67.7974      0.00000
    104      68.3353      0.00000
    105      68.5960      0.00000
    106      68.5960      0.00000
    107      68.8430      0.00000
    108      68.8430      0.00000
    109      72.0459      0.00000
    110      72.0459      0.00000
    111      72.5173      0.00000
    112      72.5173      0.00000
    113      72.5454      0.00000
    114      72.5454      0.00000
    115      72.5685      0.00000
    116      74.1350      0.00000
    117      74.6029      0.00000
    118      74.6029      0.00000
    119      75.6061      0.00000
    120      75.6061      0.00000
    121      75.7339      0.00000
    122      75.7339      0.00000
    123      76.7236      0.00000
    124      77.7460      0.00000
    125      77.9700      0.00000
    126      78.5754      0.00000
    127      78.5754      0.00000
    128      79.2244      0.00000

 k-point     3 :       0.2222    0.0000    0.0000
  band No.  band energies     occupation 
      1      -2.6923      2.00000
      2       2.2270      2.00000
      3       5.4747      2.00000
      4       5.4747      2.00000
      5       6.8165      2.04945
      6       6.8165      2.55524
      7      10.0015     -0.04758
      8      10.1074      0.00000
      9      10.1074      0.00000
     10      11.5848      0.00000
     11      11.5848      0.00000
     12      13.7111      0.00000
     13      13.9513      0.00000
     14      13.9513      0.00000
     15      17.4532      0.00000
     16      17.5622      0.00000
     17      17.5622      0.00000
     18      18.2244      0.00000
     19      18.2244      0.00000
     20      18.5094      0.00000
     21      19.7008      0.00000
     22      19.7008      0.00000
     23      21.1262      0.00000
     24      23.3622      0.00000
     25      25.1359      0.00000
     26      25.1359      0.00000
     27      27.4655      0.00000
     28      27.8723      0.00000
     29      30.9750      0.00000
     30      30.9750      0.00000
     31      31.0401      0.00000
     32      31.2737      0.00000
     33      31.2737      0.00000
     34      32.0999      0.00000
     35      33.1235      0.00000
     36      33.1235      0.00000
     37      33.6866      0.00000
     38      33.6866      0.00000
     39      35.1438      0.00000
     40      35.1438      0.00000
     41      36.5209      0.00000
     42      38.8039      0.00000
     43      40.1355      0.00000
     44      40.1355      0.00000
     45      40.8492      0.00000
     46      40.8492      0.00000
     47      41.5829      0.00000
     48      41.5829      0.00000
     49      41.6429      0.00000
     50      41.6429      0.00000
     51      42.2774      0.00000
     52      42.8462      0.00000
     53      43.1990      0.00000
     54      43.1990      0.00000
     55      43.2661      0.00000
     56      43.5793      0.00000
     57      44.4384      0.00000
     58      44.4384      0.00000
     59      44.8842      0.00000
     60      44.8842      0.00000
     61      46.1722      0.00000
     62      46.1722      0.00000
     63      46.4034      0.00000
     64      46.4034      0.00000
     65      49.0462      0.00000
     66      49.0462      0.00000
     67      51.4968      0.00000
     68      51.4968      0.00000
     69      52.0184      0.00000
     70      53.0393      0.00000
     71      53.0393      0.00000
     72      53.6972      0.00000
     73      53.6972      0.00000
     74      54.3237      0.00000
     75      54.3237      0.00000
     76      55.5062      0.00000
     77      55.5062      0.00000
     78      55.8133      0.00000
     79      55.8133      0.00000
     80      56.4121      0.00000
     81      56.6558      0.00000
     82      56.6558      0.00000
     83      56.9105      0.00000
     84      57.7487      0.00000
     85      59.3656      0.00000
     86      60.0461      0.00000
     87      61.1247      0.00000
     88      61.1247      0.00000
     89      61.5963      0.00000
     90      61.6013      0.00000
     91      61.6013      0.00000
     92      61.8776      0.00000
     93      63.2517      0.00000
     94      64.1976      0.00000
     95      64.5458      0.00000
     96      64.5458      0.00000
     97      66.1921      0.00000
     98      66.2145      0.00000
     99      66.2145      0.00000
    100      67.3695      0.00000
    101      67.3695      0.00000
    102      68.2977      0.00000
    103      68.2977      0.00000
    104      68.3963      0.00000
    105      68.3963      0.00000
    106      69.1260      0.00000
    107      69.1260      0.00000
    108      70.0590      0.00000
    109      70.0590      0.00000
    110      70.5186      0.00000
    111      70.5186      0.00000
    112      70.8305      0.00000
    113      70.8305      0.00000
    114      71.2281      0.00000
    115      72.0917      0.00000
    116      72.2353      0.00000
    117      72.7797      0.00000
    118      72.7797      0.00000
    119      75.1810      0.00000
    120      75.1810      0.00000
    121      75.4564      0.00000
    122      75.4564      0.00000
    123      75.5649      0.00000
    124      75.5649      0.00000
    125      77.6987      0.00000
    126      77.8000      0.00000
    127      78.5000      0.00000
    128      78.5000      0.00000

 k-point     4 :       0.3333    0.0000    0.0000
  band No.  band energies     occupation 
      1      -2.1359      2.00000
      2       0.8283      2.00000
      3       5.9874      2.00000
      4       5.9874      2.00000
      5       7.3374      2.00657
      6       7.3374      2.10993
      7       8.7665      0.00000
      8       8.7665      0.00000
      9      10.3356      0.00000
     10      10.3356      0.00000
     11      12.3670      0.00000
     12      14.2606      0.00000
     13      14.4278      0.00000
     14      14.4278      0.00000
     15      16.9993      0.00000
     16      16.9993      0.00000
     17      17.1746      0.00000
     18      17.9442      0.00000
     19      19.9331      0.00000
     20      19.9331      0.00000
     21      20.2553      0.00000
     22      20.4834      0.00000
     23      21.7634      0.00000
     24      21.7634      0.00000
     25      27.1110      0.00000
     26      27.1110      0.00000
     27      28.0724      0.00000
     28      28.0724      0.00000
     29      28.3862      0.00000
     30      29.1352      0.00000
     31      29.1352      0.00000
     32      29.9166      0.00000
     33      31.0025      0.00000
     34      32.2685      0.00000
     35      32.4054      0.00000
     36      32.4054      0.00000
     37      33.8311      0.00000
     38      33.8311      0.00000
     39      35.2190      0.00000
     40      35.2190      0.00000
     41      37.0217      0.00000
     42      38.4790      0.00000
     43      38.6477      0.00000
     44      38.6477      0.00000
     45      38.8531      0.00000
     46      40.0088      0.00000
     47      40.0088      0.00000
     48      41.9438      0.00000
     49      41.9438      0.00000
     50      42.1205      0.00000
     51      42.1205      0.00000
     52      42.7824      0.00000
     53      43.2268      0.00000
     54      43.2268      0.00000
     55      44.4148      0.00000
     56      44.4148      0.00000
     57      44.8753      0.00000
     58      44.8753      0.00000
     59      45.0385      0.00000
     60      45.5528      0.00000
     61      45.5528      0.00000
     62      45.9688      0.00000
     63      46.1732      0.00000
     64      46.1732      0.00000
     65      50.7225      0.00000
     66      50.7225      0.00000
     67      53.1634      0.00000
     68      53.1634      0.00000
     69      53.3941      0.00000
     70      53.5934      0.00000
     71      54.2568      0.00000
     72      54.2568      0.00000
     73      54.5053      0.00000
     74      54.5053      0.00000
     75      56.1173      0.00000
     76      56.1173      0.00000
     77      56.5091      0.00000
     78      56.5091      0.00000
     79      56.6252      0.00000
     80      57.3129      0.00000
     81      57.3129      0.00000
     82      58.6636      0.00000
     83      60.2420      0.00000
     84      60.2420      0.00000
     85      60.3976      0.00000
     86      60.4495      0.00000
     87      60.4799      0.00000
     88      60.4799      0.00000
     89      60.6692      0.00000
     90      60.8466      0.00000
     91      60.8466      0.00000
     92      61.3200      0.00000
     93      61.9518      0.00000
     94      64.8377      0.00000
     95      64.8377      0.00000
     96      64.9721      0.00000
     97      64.9721      0.00000
     98      65.0047      0.00000
     99      65.0047      0.00000
    100      65.1101      0.00000
    101      65.8811      0.00000
    102      65.8811      0.00000
    103      65.9389      0.00000
    104      65.9389      0.00000
    105      68.0303      0.00000
    106      69.1704      0.00000
    107      69.8868      0.00000
    108      69.8868      0.00000
    109      70.0153      0.00000
    110      70.0153      0.00000
    111      71.0997      0.00000
    112      71.0997      0.00000
    113      71.5023      0.00000
    114      71.5023      0.00000
    115      71.5636      0.00000
    116      71.5636      0.00000
    117      72.0292      0.00000
    118      73.1690      0.00000
    119      73.1690      0.00000
    120      73.7660      0.00000
    121      73.7660      0.00000
    122      74.7369      0.00000
    123      74.7369      0.00000
    124      75.9177      0.00000
    125      77.2789      0.00000
    126      77.2789      0.00000
    127      77.7231      0.00000
    128      77.8459      0.00000

 k-point     5 :       0.4444    0.0000    0.0000
  band No.  band energies     occupation 
      1      -1.3609      2.00000
      2      -0.3712      2.00000
      3       6.7059      2.00000
      4       6.7059      2.00000
      5       7.6332      2.00000
      6       7.6332      2.00000
      7       7.9820      0.00000
      8       7.9820      0.00000
      9       9.3104      0.00000
     10       9.3104      0.00000
     11      14.9170      0.00000
     12      15.0269      0.00000
     13      15.0955      0.00000
     14      15.0955      0.00000
     15      15.9536      0.00000
     16      15.9536      0.00000
     17      16.0032      0.00000
     18      17.6251      0.00000
     19      18.6050      0.00000
     20      19.3998      0.00000
     21      22.4927      0.00000
     22      22.4927      0.00000
     23      23.8141      0.00000
     24      23.8141      0.00000
     25      25.2125      0.00000
     26      25.2125      0.00000
     27      26.9772      0.00000
     28      26.9772      0.00000
     29      29.0724      0.00000
     30      29.0724      0.00000
     31      29.0883      0.00000
     32      29.9747      0.00000
     33      30.8693      0.00000
     34      30.8693      0.00000
     35      32.6603      0.00000
     36      33.7155      0.00000
     37      34.9370      0.00000
     38      34.9370      0.00000
     39      35.2454      0.00000
     40      35.2454      0.00000
     41      35.3130      0.00000
     42      35.6403      0.00000
     43      36.5430      0.00000
     44      36.5430      0.00000
     45      40.0132      0.00000
     46      40.0132      0.00000
     47      40.0896      0.00000
     48      41.5254      0.00000
     49      42.3379      0.00000
     50      42.3379      0.00000
     51      42.6780      0.00000
     52      42.6780      0.00000
     53      42.9772      0.00000
     54      42.9772      0.00000
     55      43.7779      0.00000
     56      43.7779      0.00000
     57      44.2032      0.00000
     58      44.2032      0.00000
     59      45.1066      0.00000
     60      45.1066      0.00000
     61      47.6139      0.00000
     62      48.2358      0.00000
     63      48.2358      0.00000
     64      49.4245      0.00000
     65      50.4632      0.00000
     66      50.5689      0.00000
     67      50.5689      0.00000
     68      52.6453      0.00000
     69      52.6453      0.00000
     70      53.1348      0.00000
     71      54.4144      0.00000
     72      54.4144      0.00000
     73      55.4494      0.00000
     74      57.0385      0.00000
     75      57.0385      0.00000
     76      57.0765      0.00000
     77      57.6125      0.00000
     78      57.6125      0.00000
     79      58.8046      0.00000
     80      58.8046      0.00000
     81      59.7393      0.00000
     82      59.7393      0.00000
     83      60.4319      0.00000
     84      60.4319      0.00000
     85      60.8595      0.00000
     86      60.9379      0.00000
     87      60.9379      0.00000
     88      61.1989      0.00000
     89      61.4752      0.00000
     90      61.5050      0.00000
     91      61.7781      0.00000
     92      61.7781      0.00000
     93      62.0617      0.00000
     94      62.0617      0.00000
     95      62.5367      0.00000
     96      62.5367      0.00000
     97      62.7984      0.00000
     98      65.2157      0.00000
     99      65.2749      0.00000
    100      65.2749      0.00000
    101      65.3088      0.00000
    102      65.3088      0.00000
    103      65.4818      0.00000
    104      65.4818      0.00000
    105      65.6957      0.00000
    106      65.6957      0.00000
    107      68.5804      0.00000
    108      69.5731      0.00000
    109      69.5731      0.00000
    110      69.6883      0.00000
    111      69.6883      0.00000
    112      70.3081      0.00000
    113      70.3081      0.00000
    114      70.5552      0.00000
    115      72.0069      0.00000
    116      72.0625      0.00000
    117      72.0625      0.00000
    118      73.1015      0.00000
    119      73.5181      0.00000
    120      73.5181      0.00000
    121      73.5614      0.00000
    122      73.5614      0.00000
    123      74.3560      0.00000
    124      74.3560      0.00000
    125      76.0971      0.00000
    126      76.0971      0.00000
    127      77.3588      0.00000
    128      77.9539      0.00000

 k-point     6 :       0.1111    0.1111    0.0000
  band No.  band energies     occupation 
      1      -2.9153      2.00000
      2       3.9001      2.00000
      3       3.9001      2.00000
      4       5.2698      2.00000
      5       6.6032      2.08709
      6       7.9567      0.88862
      7       7.9567      0.30173
      8      10.4474      0.00000
      9      11.7578      0.00000
     10      11.7578      0.00000
     11      12.9589      0.00000
     12      12.9589      0.00000
     13      13.7621      0.00000
     14      15.0699      0.00000
     15      15.4946      0.00000
     16      15.4946      0.00000
     17      18.0269      0.00000
     18      18.0269      0.00000
     19      18.1453      0.00000
     20      18.7987      0.00000
     21      18.9307      0.00000
     22      20.8585      0.00000
     23      22.2115      0.00000
     24      23.0327      0.00000
     25      23.5552      0.00000
     26      25.7969      0.00000
     27      26.5280      0.00000
     28      26.7207      0.00000
     29      30.0115      0.00000
     30      32.0455      0.00000
     31      32.0455      0.00000
     32      32.4322      0.00000
     33      32.8635      0.00000
     34      33.5176      0.00000
     35      33.9045      0.00000
     36      34.0596      0.00000
     37      34.0596      0.00000
     38      34.0842      0.00000
     39      34.6668      0.00000
     40      34.6668      0.00000
     41      34.7057      0.00000
     42      39.3196      0.00000
     43      39.7648      0.00000
     44      39.7648      0.00000
     45      41.3162      0.00000
     46      41.3162      0.00000
     47      41.5832      0.00000
     48      41.5832      0.00000
     49      41.9250      0.00000
     50      42.1622      0.00000
     51      42.2263      0.00000
     52      42.2263      0.00000
     53      42.3133      0.00000
     54      42.8207      0.00000
     55      43.7016      0.00000
     56      44.4181      0.00000
     57      44.4181      0.00000
     58      44.4926      0.00000
     59      44.4926      0.00000
     60      46.5736      0.00000
     61      46.5736      0.00000
     62      47.0934      0.00000
     63      47.5662      0.00000
     64      47.6181      0.00000
     65      47.6181      0.00000
     66      49.2871      0.00000
     67      49.7826      0.00000
     68      51.0832      0.00000
     69      51.0832      0.00000
     70      51.0936      0.00000
     71      51.5194      0.00000
     72      51.5194      0.00000
     73      52.0557      0.00000
     74      53.3870      0.00000
     75      53.3870      0.00000
     76      53.6409      0.00000
     77      55.1542      0.00000
     78      55.1845      0.00000
     79      55.1845      0.00000
     80      55.6224      0.00000
     81      55.6224      0.00000
     82      56.4065      0.00000
     83      57.9503      0.00000
     84      58.9707      0.00000
     85      59.6397      0.00000
     86      60.8089      0.00000
     87      61.0675      0.00000
     88      61.4956      0.00000
     89      61.9701      0.00000
     90      61.9701      0.00000
     91      63.2582      0.00000
     92      63.2582      0.00000
     93      63.4209      0.00000
     94      64.4623      0.00000
     95      64.6193      0.00000
     96      64.8789      0.00000
     97      66.4705      0.00000
     98      66.8824      0.00000
     99      66.8824      0.00000
    100      67.4242      0.00000
    101      67.4242      0.00000
    102      67.5028      0.00000
    103      67.5043      0.00000
    104      67.6590      0.00000
    105      68.2823      0.00000
    106      68.2823      0.00000
    107      69.1640      0.00000
    108      70.1971      0.00000
    109      70.2159      0.00000
    110      70.7746      0.00000
    111      70.7746      0.00000
    112      72.3170      0.00000
    113      72.3170      0.00000
    114      72.6640      0.00000
    115      73.3269      0.00000
    116      73.5350      0.00000
    117      74.1788      0.00000
    118      74.1788      0.00000
    119      74.8401      0.00000
    120      75.4835      0.00000
    121      75.4835      0.00000
    122      75.6203      0.00000
    123      75.7930      0.00000
    124      76.0201      0.00000
    125      76.1837      0.00000
    126      78.8386      0.00000
    127      78.8386      0.00000
    128      79.5778      0.00000

 k-point     7 :       0.2222    0.1111    0.0000
  band No.  band energies     occupation 
      1      -2.5808      2.00000
      2       2.3345      2.00000
      3       4.2170      2.00000
      4       5.5773      2.00000
      5       6.9164      2.07901
      6       8.2634      0.16913
      7       8.9578     -0.02107
      8      10.0999      0.00000
      9      10.2101      0.00000
     10      11.6908      0.00000
     11      12.0695      0.00000
     12      12.8854      0.00000
     13      13.2567      0.00000
     14      15.8003      0.00000
     15      16.6643      0.00000
     16      16.6968      0.00000
     17      17.5262      0.00000
     18      17.6625      0.00000
     19      18.3180      0.00000
     20      19.7939      0.00000
     21      20.1711      0.00000
     22      20.7902      0.00000
     23      21.8036      0.00000
     24      23.4647      0.00000
     25      24.3450      0.00000
     26      24.9866      0.00000
     27      26.8114      0.00000
     28      28.5056      0.00000
     29      29.6850      0.00000
     30      30.4915      0.00000
     31      30.8084      0.00000
     32      31.0337      0.00000
     33      31.0822      0.00000
     34      32.4360      0.00000
     35      33.2908      0.00000
     36      33.6581      0.00000
     37      33.8590      0.00000
     38      33.9023      0.00000
     39      34.6701      0.00000
     40      34.8858      0.00000
     41      36.9708      0.00000
     42      37.9505      0.00000
     43      38.3645      0.00000
     44      39.0011      0.00000
     45      40.1382      0.00000
     46      41.3690      0.00000
     47      41.4991      0.00000
     48      41.6080      0.00000
     49      41.9563      0.00000
     50      42.4224      0.00000
     51      42.8282      0.00000
     52      42.9806      0.00000
     53      42.9910      0.00000
     54      43.0204      0.00000
     55      43.5536      0.00000
     56      43.5763      0.00000
     57      44.0064      0.00000
     58      44.2165      0.00000
     59      45.2858      0.00000
     60      45.8228      0.00000
     61      46.1054      0.00000
     62      46.9605      0.00000
     63      47.1692      0.00000
     64      48.5878      0.00000
     65      49.2842      0.00000
     66      49.6899      0.00000
     67      50.4595      0.00000
     68      50.9216      0.00000
     69      51.0286      0.00000
     70      52.2399      0.00000
[...]
     56      47.3567      0.00000
     57      47.5919      0.00000
     58      47.6324      0.00000
     59      47.6324      0.00000
     60      49.0535      0.00000
     61      49.1398      0.00000
     62      49.2816      0.00000
     63      49.2816      0.00000
     64      49.7195      0.00000
     65      50.3817      0.00000
     66      50.3817      0.00000
     67      51.1578      0.00000
     68      51.1578      0.00000
     69      53.1808      0.00000
     70      54.9519      0.00000
     71      54.9519      0.00000
     72      55.0987      0.00000
     73      56.2155      0.00000
     74      56.2155      0.00000
     75      57.0396      0.00000
     76      57.0871      0.00000
     77      57.0871      0.00000
     78      58.7087      0.00000
     79      59.2650      0.00000
     80      59.2650      0.00000
     81      59.3476      0.00000
     82      59.6832      0.00000
     83      60.3690      0.00000
     84      60.4492      0.00000
     85      60.4492      0.00000
     86      60.7439      0.00000
     87      60.9824      0.00000
     88      61.0650      0.00000
     89      61.0650      0.00000
     90      61.1641      0.00000
     91      62.5907      0.00000
     92      62.5907      0.00000
     93      62.9763      0.00000
     94      63.0745      0.00000
     95      63.4298      0.00000
     96      63.4298      0.00000
     97      63.8182      0.00000
     98      64.0697      0.00000
     99      64.0697      0.00000
    100      64.2557      0.00000
    101      66.4928      0.00000
    102      66.6762      0.00000
    103      66.9562      0.00000
    104      67.0576      0.00000
    105      67.2532      0.00000
    106      67.2532      0.00000
    107      67.4973      0.00000
    108      67.8775      0.00000
    109      67.8775      0.00000
    110      68.3451      0.00000
    111      68.5216      0.00000
    112      69.1606      0.00000
    113      69.3134      0.00000
    114      69.3134      0.00000
    115      70.1025      0.00000
    116      70.7060      0.00000
    117      70.7060      0.00000
    118      70.8039      0.00000
    119      72.4754      0.00000
    120      72.6233      0.00000
    121      73.4128      0.00000
    122      73.5448      0.00000
    123      74.0674      0.00000
    124      74.0674      0.00000
    125      75.7177      0.00000
    126      75.8199      0.00000
    127      75.8199      0.00000
    128      76.3296      0.00000

 k-point    34 :       0.4444    0.4444    0.3333
  band No.  band energies     occupation 
      1       1.3735      2.00000
      2       2.3442      2.00000
      3       2.3442      2.00000
      4       3.3020      2.00000
      5       4.2876      2.00000
      6       5.2346      2.00000
      7       5.2346      2.00000
      8       6.1838      2.09981
      9      15.5771      0.00000
     10      16.3888      0.00000
     11      16.3888      0.00000
     12      17.2210      0.00000
     13      17.3043      0.00000
     14      17.3043      0.00000
     15      17.5181      0.00000
     16      19.2475      0.00000
     17      19.3080      0.00000
     18      20.1385      0.00000
     19      20.1808      0.00000
     20      20.1808      0.00000
     21      20.7116      0.00000
     22      21.1205      0.00000
     23      21.1205      0.00000
     24      21.8804      0.00000
     25      23.1758      0.00000
     26      24.7300      0.00000
     27      24.7300      0.00000
     28      24.7735      0.00000
     29      25.1155      0.00000
     30      25.8008      0.00000
     31      25.8008      0.00000
     32      26.4377      0.00000
     33      30.3781      0.00000
     34      30.3912      0.00000
     35      30.3912      0.00000
     36      31.5457      0.00000
     37      31.7768      0.00000
     38      31.8109      0.00000
     39      32.6740      0.00000
     40      32.6740      0.00000
     41      37.8861      0.00000
     42      38.3316      0.00000
     43      38.3841      0.00000
     44      38.3841      0.00000
     45      39.6301      0.00000
     46      39.9437      0.00000
     47      39.9437      0.00000
     48      40.4087      0.00000
     49      40.9716      0.00000
     50      40.9716      0.00000
     51      41.1695      0.00000
     52      41.7747      0.00000
     53      46.8170      0.00000
     54      46.9512      0.00000
     55      47.1619      0.00000
     56      47.1619      0.00000
     57      47.2920      0.00000
     58      48.2364      0.00000
     59      48.2364      0.00000
     60      48.7380      0.00000
     61      49.2591      0.00000
     62      49.6148      0.00000
     63      50.0223      0.00000
     64      50.0223      0.00000
     65      51.1395      0.00000
     66      51.3465      0.00000
     67      51.3465      0.00000
     68      51.7418      0.00000
     69      54.6020      0.00000
     70      55.0420      0.00000
     71      55.0420      0.00000
     72      55.3289      0.00000
     73      56.1395      0.00000
     74      56.9762      0.00000
     75      57.2528      0.00000
     76      57.2528      0.00000
     77      57.6600      0.00000
     78      57.6600      0.00000
     79      58.1419      0.00000
     80      58.5576      0.00000
     81      58.8426      0.00000
     82      58.8426      0.00000
     83      59.4221      0.00000
     84      60.2632      0.00000
     85      60.3810      0.00000
     86      60.4290      0.00000
     87      60.4290      0.00000
     88      60.5886      0.00000
     89      60.8008      0.00000
     90      61.5392      0.00000
     91      61.5392      0.00000
     92      62.7571      0.00000
     93      63.0250      0.00000
     94      63.3801      0.00000
     95      63.3801      0.00000
     96      63.8598      0.00000
     97      64.4055      0.00000
     98      64.6904      0.00000
     99      64.6904      0.00000
    100      66.2141      0.00000
    101      66.4424      0.00000
    102      66.9260      0.00000
    103      66.9368      0.00000
    104      67.0588      0.00000
    105      67.0588      0.00000
    106      67.3869      0.00000
    107      67.5437      0.00000
    108      67.5437      0.00000
    109      67.7717      0.00000
    110      67.8942      0.00000
    111      67.8942      0.00000
    112      68.8818      0.00000
    113      69.7707      0.00000
    114      70.4978      0.00000
    115      70.6192      0.00000
    116      70.6192      0.00000
    117      71.1335      0.00000
    118      71.1335      0.00000
    119      72.3049      0.00000
    120      72.4364      0.00000
    121      73.0015      0.00000
    122      73.0015      0.00000
    123      73.0168      0.00000
    124      73.8595      0.00000
    125      74.3239      0.00000
    126      74.3239      0.00000
    127      75.1404      0.00000
    128      75.4634      0.00000

 k-point    35 :       0.4444    0.4444    0.4444
  band No.  band energies     occupation 
      1       2.1295      2.00000
      2       3.0894      2.00000
      3       3.0894      2.00000
      4       3.0894      2.00000
      5       4.0756      2.00000
      6       4.0756      2.00000
      7       4.0756      2.00000
      8       5.0249      2.00834
      9      17.9141      0.00000
     10      17.9141      0.00000
     11      17.9141      0.00000
     12      18.1940      0.00000
     13      18.1940      0.00000
     14      18.1940      0.00000
     15      19.0620      0.00000
     16      19.0620      0.00000
     17      19.6229      0.00000
     18      19.6229      0.00000
     19      19.6229      0.00000
     20      19.9401      0.00000
     21      19.9401      0.00000
     22      20.8108      0.00000
     23      20.8108      0.00000
     24      20.8108      0.00000
     25      22.7495      0.00000
     26      23.7757      0.00000
     27      23.9123      0.00000
     28      23.9123      0.00000
     29      23.9123      0.00000
     30      24.0355      0.00000
     31      24.0355      0.00000
     32      24.0355      0.00000
     33      32.0562      0.00000
     34      32.0562      0.00000
     35      32.0562      0.00000
     36      32.2265      0.00000
     37      32.2265      0.00000
     38      32.9042      0.00000
     39      32.9042      0.00000
     40      32.9042      0.00000
     41      38.9152      0.00000
     42      38.9152      0.00000
     43      38.9152      0.00000
     44      38.9284      0.00000
     45      39.0063      0.00000
     46      39.0063      0.00000
     47      39.0063      0.00000
     48      39.6212      0.00000
     49      39.6212      0.00000
     50      39.9731      0.00000
     51      39.9731      0.00000
     52      39.9731      0.00000
     53      46.1081      0.00000
     54      46.1081      0.00000
     55      46.1081      0.00000
     56      46.2170      0.00000
     57      49.8551      0.00000
     58      50.2259      0.00000
     59      50.2259      0.00000
     60      50.9179      0.00000
     61      50.9179      0.00000
     62      50.9179      0.00000
     63      50.9776      0.00000
     64      50.9776      0.00000
     65      50.9776      0.00000
     66      51.6524      0.00000
     67      51.6524      0.00000
     68      51.6524      0.00000
     69      55.3081      0.00000
     70      55.3081      0.00000
     71      55.3081      0.00000
     72      56.0217      0.00000
     73      56.0217      0.00000
     74      56.0217      0.00000
     75      56.1128      0.00000
     76      56.7053      0.00000
     77      56.7053      0.00000
     78      56.7053      0.00000
     79      57.0683      0.00000
     80      57.5577      0.00000
     81      57.5577      0.00000
     82      58.7293      0.00000
     83      58.7293      0.00000
     84      58.7293      0.00000
     85      60.3082      0.00000
     86      60.3082      0.00000
     87      60.3082      0.00000
     88      61.0517      0.00000
     89      62.0568      0.00000
     90      62.0568      0.00000
     91      62.0568      0.00000
     92      63.1827      0.00000
     93      63.1827      0.00000
     94      63.1827      0.00000
     95      63.7585      0.00000
     96      64.3622      0.00000
     97      64.3622      0.00000
     98      64.3622      0.00000
     99      64.7889      0.00000
    100      64.7889      0.00000
    101      66.6200      0.00000
    102      66.6200      0.00000
    103      66.6200      0.00000
    104      66.8607      0.00000
    105      66.8607      0.00000
    106      67.3998      0.00000
    107      67.3998      0.00000
    108      67.3998      0.00000
    109      69.2197      0.00000
    110      69.2537      0.00000
    111      69.2537      0.00000
    112      69.2537      0.00000
    113      70.9451      0.00000
    114      70.9451      0.00000
    115      70.9451      0.00000
    116      71.0179      0.00000
    117      71.4506      0.00000
    118      71.4506      0.00000
    119      71.4506      0.00000
    120      72.7904      0.00000
    121      72.7904      0.00000
    122      72.7904      0.00000
    123      74.1151      0.00000
    124      74.1151      0.00000
    125      74.8424      0.00000
    126      74.8424      0.00000
    127      74.8424      0.00000
    128      75.8741      0.00000


--------------------------------------------------------------------------------------------------------


 soft charge-density along one line, spin component           1
         0         1         2         3         4         5         6         7         8         9
 total charge-density along one line
 
 pseudopotential strength for first ion, spin component:           1
  8.445  14.393  -0.000  -0.000  -0.000  -0.000  -0.000  -0.000
 14.393  24.531  -0.000  -0.000  -0.000  -0.000  -0.000   0.000
 -0.000  -0.000   1.988   0.000   0.000   5.732   0.000   0.000
 -0.000  -0.000   0.000   1.988   0.000   0.000   5.732   0.000
 -0.000  -0.000   0.000   0.000   1.988   0.000   0.000   5.732
 -0.000  -0.000   5.732   0.000   0.000  16.439   0.000   0.000
 -0.000  -0.000   0.000   5.732   0.000   0.000  16.439   0.000
 -0.000   0.000   0.000   0.000   5.732   0.000   0.000  16.439
 total augmentation occupancy for first ion, spin component:           1
  3.640  -0.940   0.000   0.000  -0.000   0.000  -0.000   0.000
 -0.940   0.304   0.000  -0.000  -0.000  -0.000  -0.000  -0.000
  0.000   0.000   1.243   0.000   0.000  -0.101  -0.000  -0.000
  0.000  -0.000   0.000   1.243   0.000  -0.000  -0.101  -0.000
 -0.000  -0.000   0.000   0.000   1.243  -0.000  -0.000  -0.101
  0.000  -0.000  -0.101  -0.000  -0.000   0.009   0.000   0.000
 -0.000  -0.000  -0.000  -0.101  -0.000   0.000   0.009   0.000
  0.000  -0.000  -0.000  -0.000  -0.101   0.000   0.000   0.009


------------------------ aborting loop because EDIFF is reached ----------------------------------------


    CHARGE:  cpu time      0.0104: real time      0.0105
    FORLOC:  cpu time      0.0014: real time      0.0015
    FORNL :  cpu time      0.0130: real time      0.0135
    STRESS:  cpu time      0.1007: real time      0.1017
    FORCOR:  cpu time      0.0050: real time      0.0052
    FORHAR:  cpu time      0.0020: real time      0.0024
    MIXING:  cpu time      0.0015: real time      0.0015
    OFIELD:  cpu time      0.0010: real time      0.0012

  FORCE on cell =-STRESS in cart. coord.  units (eV):
  Direction    XX          YY          ZZ          XY          YZ          ZX
  --------------------------------------------------------------------------------------
  Alpha Z    -0.81278    -0.81278    -0.81278
  Ewald     -97.96162   -97.96162   -97.96162    -0.00000     0.00000     0.00000
  Hartree     0.14250     0.14250     0.14250    -0.00000    -0.00000    -0.00000
  E(xc)     -34.25624   -34.25624   -34.25624    -0.00000    -0.00000    -0.00000
  Local       1.31479     1.31479     1.31479     0.00000    -0.00000     0.00000
  n-local    74.06821    75.14569    77.23336     0.20455     0.92489     0.38941
  augment    -3.99276    -3.99276    -3.99276    -0.00000     0.00000     0.00000
  Kinetic    57.74293    59.12186    62.94803     1.78632    -7.98378    -1.66631
  Fock        0.00000     0.00000     0.00000     0.00000     0.00000     0.00000
  -------------------------------------------------------------------------------------
  Total      -0.14608    -0.14608    -0.14608     0.00000    -0.00000    -0.00000
  in kB      -3.53970    -3.53970    -3.53970     0.00000    -0.00000    -0.00000
  external pressure =       -3.54 kB  Pullay stress =        0.00 kB


 VOLUME and BASIS-vectors are now :
 -----------------------------------------------------------------------------
  energy-cutoff  :      270.00
  volume of cell :       66.12
      direct lattice vectors                 reciprocal lattice vectors
     4.043689723  0.000000000  0.000000000     0.247298895 -0.000000000  0.000000000
     0.000000000  4.043689723  0.000000000     0.000000000  0.247298895  0.000000000
     0.000000000  0.000000000  4.043689723    -0.000000000 -0.000000000  0.247298895

  length of vectors
     4.043689723  4.043689723  4.043689723     0.247298895  0.247298895  0.247298895


 FORCES acting on ions
    electron-ion (+dipol)            ewald-force                    non-local-force                 convergence-correction
 -----------------------------------------------------------------------------------------------
   -.397E-14 0.508E-15 -.324E-15   0.489E-15 0.764E-15 -.890E-15   0.263E-19 -.244E-19 0.634E-19   -.542E-15 -.806E-16 -.710E-16
   -.426E-14 -.297E-14 -.359E-14   0.516E-15 -.538E-15 0.377E-15   0.329E-20 -.880E-19 0.637E-19   -.517E-15 0.717E-16 0.574E-16
   -.426E-14 -.157E-14 -.352E-13   -.475E-15 0.591E-15 0.377E-15   -.237E-19 0.483E-20 0.270E-18   0.501E-15 -.653E-16 0.809E-16
   -.458E-14 -.339E-15 0.482E-14   -.448E-15 -.707E-15 0.305E-15   -.146E-18 -.290E-20 0.378E-19   0.472E-15 0.796E-16 -.690E-16
 -----------------------------------------------------------------------------------------------
   -.171E-13 -.437E-14 -.343E-13   0.811E-16 0.111E-15 0.169E-15   -.141E-18 -.110E-18 0.434E-18   -.867E-16 0.540E-17 -.171E-17
 
 
 POSITION                                       TOTAL-FORCE (eV/Angst)
 -----------------------------------------------------------------------------------
      0.00000      0.00000      0.00000         0.000000     -0.000000     -0.000000
      0.00000      2.02184      2.02184        -0.000000      0.000000     -0.000000
      2.02184      0.00000      2.02184         0.000000      0.000000      0.000000
      2.02184      2.02184      0.00000        -0.000000      0.000000      0.000000
 -----------------------------------------------------------------------------------
    total drift:                               -0.000000     -0.000000     -0.000000


--------------------------------------------------------------------------------------------------------



  FREE ENERGIE OF THE ION-ELECTRON SYSTEM (eV)
  ---------------------------------------------------
  free  energy   TOTEN  =       -14.95209445 eV

  energy  without entropy=      -14.95209445  energy(sigma->0) =      -14.95209445
 


--------------------------------------------------------------------------------------------------------


    POTLOK:  cpu time      0.0091: real time      0.0094


--------------------------------------------------------------------------------------------------------


     LOOP+:  cpu time    212.7307: real time    213.9314
 -----------------------------------------------------------------------------
|                                                                             |
|           W    W    AA    RRRRR   N    N  II  N    N   GGGG   !!!           |
|           W    W   A  A   R    R  NN   N  II  NN   N  G    G  !!!           |
|           W    W  A    A  R    R  N N  N  II  N N  N  G       !!!           |
|           W WW W  AAAAAA  RRRRR   N  N N  II  N  N N  G  GGG   !            |
|           WW  WW  A    A  R   R   N   NN  II  N   NN  G    G                |
|           W    W  A    A  R    R  N    N  II  N    N   GGGG   !!!           |
|                                                                             |
|     Tetrahedron method does not include variations of the Fermi             |
|     occupations, so forces and stress will be inaccurate. We suggest        |
|     using a different smearing scheme ISMEAR = 1 or 2 for metals in         |
|     relaxations.                                                            |
|                                                                             |
 -----------------------------------------------------------------------------

    4ORBIT:  cpu time      0.0000: real time      0.0000
 BZINTS: Fermi energy:    7.930876;   12.000000 electrons
         Band energy: 0.428009E+02;  BLOECHL correction:   -0.252251

 total amount of memory used by VASP MPI-rank0    33117. kBytes
=======================================================================

   base      :      30000. kBytes
   nonl-proj :       1769. kBytes
   fftplans  :        160. kBytes
   grid      :        675. kBytes
   one-center:         12. kBytes
   wavefun   :        501. kBytes
 
  
  
 General timing and accounting informations for this job:
 ========================================================
  
                  Total CPU time used (sec):      223.962
                            User time (sec):      214.586
                          System time (sec):        9.376
                         Elapsed time (sec):      228.133
  
                   Maximum memory used (kb):      947704.
                   Average memory used (kb):          N/A
  
                          Minor page faults:       187067
                          Major page faults:         1460
                 Voluntary context switches:         9562
