       N       E                     dE             d eps       ncg     rms          rms(c)
DAV:   1    -0.123046674389E+02   -0.12305E+02   -0.59974E+03  8960   0.105E+02
DAV:   2    -0.150655072136E+02   -0.27608E+01   -0.27581E+01 13440   0.497E+00
DAV:   3    -0.150662290956E+02   -0.72188E-03   -0.71980E-03  8960   0.112E-01
DAV:   4    -0.150662291188E+02   -0.23149E-07   -0.23335E-07 17920   0.633E-04
DAV:   5    -0.150662291192E+02   -0.39984E-09   -0.93709E-13  8960   0.347E-08    0.261E+00
DAV:   6    -0.150148407615E+02    0.51388E-01   -0.65263E-03 12288   0.495E-02    0.152E+00
DAV:   7    -0.149775090679E+02    0.37332E-01   -0.18748E-02 12672   0.790E-02    0.270E-01
DAV:   8    -0.149774279021E+02    0.81166E-04   -0.29321E-05 11776   0.372E-03    0.410E-02
DAV:   9    -0.149774240877E+02    0.38145E-05   -0.42568E-06 14208   0.125E-03    0.127E-03
DAV:  10    -0.149774231095E+02    0.97820E-06   -0.71186E-09 11520   0.821E-05
   1 F= -.14977423E+02 E0= -.14977423E+02  d E =0.000000E+00
