       N       E                     dE             d eps       ncg     rms          rms(c)
DAV:   1    -0.149171676768E+02   -0.14917E+02   -0.35008E+03 13440   0.471E+01
DAV:   2    -0.150554324061E+02   -0.13826E+00   -0.13789E+00  9216   0.129E+00
DAV:   3    -0.150554459071E+02   -0.13501E-04   -0.13468E-04 17536   0.119E-02
DAV:   4    -0.150554459067E+02    0.42553E-09   -0.96971E-14  9472   0.194E-06
DAV:   5    -0.150554459075E+02   -0.80848E-09   -0.12013E-12 17408   0.279E-09    0.267E+00
DAV:   6    -0.150043748767E+02    0.51071E-01   -0.62613E-03  9856   0.436E-02    0.155E+00
DAV:   7    -0.149669102667E+02    0.37465E-01   -0.18251E-02 11392   0.703E-02    0.278E-01
DAV:   8    -0.149668202339E+02    0.90033E-04   -0.30274E-05 10880   0.282E-03    0.442E-02
DAV:   9    -0.149668164434E+02    0.37905E-05   -0.42426E-06 13440   0.113E-03    0.165E-03
DAV:  10    -0.149668155595E+02    0.88384E-06   -0.54774E-09 11264   0.495E-05
   1 F= -.14966816E+02 E0= -.14966816E+02  d E =0.000000E+00
