       N       E                     dE             d eps       ncg     rms          rms(c)
DAV:   1     0.173612702024E+04    0.17361E+04   -0.91631E+04 32256   0.241E+03
DAV:   2     0.809683557085E+01   -0.17280E+04   -0.16974E+04 32512   0.605E+02
DAV:   3    -0.102831958847E+03   -0.11093E+03   -0.10978E+03 39744   0.160E+02
DAV:   4    -0.105177563232E+03   -0.23456E+01   -0.23430E+01 33024   0.247E+01
DAV:   5    -0.105230555142E+03   -0.52992E-01   -0.53024E-01 40896   0.370E+00    0.397E+01
DAV:   6    -0.108040894641E+03   -0.28103E+01   -0.21397E+02 36928   0.841E+01    0.592E+01
DAV:   7    -0.114120867543E+03   -0.60800E+01   -0.46585E+02 43200   0.863E+01    0.611E+01
DAV:   8    -0.958809010929E+02    0.18240E+02   -0.80300E+01 43808   0.603E+01    0.256E+01
DAV:   9    -0.105302029291E+03   -0.94211E+01   -0.17682E+02 43904   0.451E+01    0.515E+01
DAV:  10    -0.931023873352E+02    0.12200E+02   -0.57731E+01 45088   0.309E+01    0.169E+01
DAV:  11    -0.933118036673E+02   -0.20942E+00   -0.18646E+01 43200   0.179E+01    0.142E+01
DAV:  12    -0.931452455314E+02    0.16656E+00   -0.99405E+00 43936   0.112E+01    0.103E+01
DAV:  13    -0.930649878823E+02    0.80258E-01   -0.26224E+00 44032   0.652E+00    0.843E+00
DAV:  14    -0.931582927824E+02   -0.93305E-01   -0.11094E+00 42176   0.582E+00    0.606E+00
DAV:  15    -0.934526809117E+02   -0.29439E+00   -0.21065E+00 43040   0.754E+00    0.780E+00
DAV:  16    -0.933998071067E+02    0.52874E-01   -0.30690E+00 43392   0.874E+00    0.573E+00
DAV:  17    -0.933563677328E+02    0.43439E-01   -0.10646E+00 42592   0.596E+00    0.283E+00
DAV:  18    -0.933860764822E+02   -0.29709E-01   -0.80733E-02 41088   0.156E+00    0.235E+00
DAV:  19    -0.933836860991E+02    0.23904E-02   -0.80420E-02 43904   0.145E+00    0.101E+00
DAV:  20    -0.933850932363E+02   -0.14071E-02   -0.26718E-02 40896   0.722E-01    0.583E-01
DAV:  21    -0.933863248910E+02   -0.12317E-02   -0.43528E-03 39360   0.328E-01    0.363E-01
DAV:  22    -0.933867440672E+02   -0.41918E-03   -0.30434E-03 42848   0.299E-01    0.117E-01
DAV:  23    -0.933868163299E+02   -0.72263E-04   -0.55258E-04 40000   0.957E-02    0.808E-02
DAV:  24    -0.933868204045E+02   -0.40746E-05   -0.10890E-04 40960   0.570E-02    0.514E-02
DAV:  25    -0.933868274796E+02   -0.70750E-05   -0.38529E-05 43264   0.378E-02    0.321E-02
DAV:  26    -0.933868321005E+02   -0.46210E-05   -0.17148E-05 40320   0.256E-02    0.159E-02
DAV:  27    -0.933868328196E+02   -0.71914E-06   -0.71752E-06 33408   0.142E-02
   1 F= -.93386833E+02 E0= -.93386833E+02  d E =0.000000E+00  mag=     2.4218
