 vasp.6.4.3 19Mar24 (build Mar 26 2024 14:05:37) complex                        
  
 executed on             LinuxIFC date 2024.12.16  14:31:52
 running  128 mpi-ranks, on    1 nodes
 distrk:  each k-point on   32 cores,    4 groups
 distr:  one band on NCORE=   1 cores,   32 groups


--------------------------------------------------------------------------------------------------------


 INCAR:
   ALGO = Normal
   EDIFF = 1e-06
   EDIFFG = -0.01
   ENCUT = 520
   GGA = Pe
   IBRION = -1
   ISIF = 4
   ISMEAR = -5
   ISPIN = 2
   KPAR = 4
   LCHARG = True
   LORBIT = 11
   LREAL = False
   LWAVE = False
   MAGMOM = 1*-2.507 1*2.456 1*2.455 1*-2.531 1*-2.532 1*2.659 1*-2.507 1*2.456 1*2.455 2*-0.091 1*0.226
   NELM = 200
   NSW = 0
   PREC = Accurate
   SIGMA = 0.2

 POTCAR:    PAW_PBE Fe_pv 02Aug2007               
 POTCAR:    PAW_PBE Pt 04Feb2005                  
 -----------------------------------------------------------------------------
|                                                                             |
|           W    W    AA    RRRRR   N    N  II  N    N   GGGG   !!!           |
|           W    W   A  A   R    R  NN   N  II  NN   N  G    G  !!!           |
|           W    W  A    A  R    R  N N  N  II  N N  N  G       !!!           |
|           W WW W  AAAAAA  RRRRR   N  N N  II  N  N N  G  GGG   !            |
|           WW  WW  A    A  R   R   N   NN  II  N   NN  G    G                |
|           W    W  A    A  R    R  N    N  II  N    N   GGGG   !!!           |
|                                                                             |
|     For optimal performance we recommend to set                             |
|       NCORE = 2 up to number-of-cores-per-socket                            |
|     NCORE specifies how many cores store one orbital (NPAR=cpu/NCORE).      |
|     This setting can greatly improve the performance of VASP for DFT.       |
|     The default, NCORE=1 might be grossly inefficient on modern             |
|     multi-core architectures or massively parallel machines. Do your        |
|     own testing! More info at https://www.vasp.at/wiki/index.php/NCORE      |
|     Unfortunately you need to use the default for GW and RPA                |
|     calculations (for HF NCORE is supported but not extensively tested      |
|     yet).                                                                   |
|                                                                             |
 -----------------------------------------------------------------------------

 POTCAR:    PAW_PBE Fe_pv 02Aug2007               
   SHA256 =  5d22e414b1f82158bf2c7ecb8b97b28fd0923e48cadc1c3bf74d524558f5dd32 Fe_pv/POTCAR          
   COPYR  = (c) Copyright 02Aug2007 Georg Kresse                                                    
   COPYR  = This file is part of the software VASP. Any use, copying, and all other rights are regul
   COPYR  = If you do not have a valid VASP license, you may not use, copy or distribute this file. 
   VRHFIN =Fe:  3pd7s1                                                                              
   LEXCH  = PE                                                                                      
   EATOM  =  2457.4239 eV,  180.6156 Ry                                                             
                                                                                                    
   TITEL  = PAW_PBE Fe_pv 02Aug2007                                                                 
   LULTRA =        F    use ultrasoft PP ?                                                          
   IUNSCR =        1    unscreen: 0-lin 1-nonlin 2-no                                               
   RPACOR =    1.750    partial core radius                                                         
   POMASS =   55.847; ZVAL   =   14.000    mass and valenz                                          
   RCORE  =    2.200    outmost cutoff radius                                                       
   RWIGS  =    2.200; RWIGS  =    1.164    wigner-seitz radius (au A)                               
   ENMAX  =  293.238; ENMIN  =  219.928 eV                                                          
   ICORE  =        3    local potential                                                             
   LCOR   =        T    correct aug charges                                                         
   LPAW   =        T    paw PP                                                                      
   EAUG   =  578.342                                                                                
   DEXC   =    0.000                                                                                
   RMAX   =    2.249    core radius for proj-oper                                                   
   RAUG   =    1.300    factor for augmentation sphere                                              
   RDEP   =    2.296    radius for radial grids                                                     
   RDEPT  =    1.766    core radius for aug-charge                                                  
                                                                                                    
   Atomic configuration                                                                             
    8 entries                                                                                       
     n  l   j            E        occ.                                                              
     1  0  0.50     -6993.8440   2.0000                                                             
     2  0  0.50      -814.6047   2.0000                                                             
     2  1  1.50      -693.3689   6.0000                                                             
     3  0  0.50       -89.4732   2.0000                                                             
     3  1  1.50       -55.6373   6.0000                                                             
     3  2  2.50        -3.8151   7.0000                                                             
     4  0  0.50        -4.2551   1.0000                                                             
     4  3  2.50        -1.3606   0.0000                                                             
   Description                                                                                      
     l       E           TYP  RCUT    TYP  RCUT                                                     
     1    -55.6372668     23  2.000                                                                 
     1     -5.4423304     23  2.000                                                                 
     2     -3.8151096     23  2.200                                                                 
     2     -5.1756922     23  2.200                                                                 
     0     -4.2550951     23  2.200                                                                 
     0     27.2116520     23  2.200                                                                 
     3     -1.3605826     23  2.200                                                                 
  local pseudopotential read in
  partial core-charges read in
  partial kinetic energy density read in
  atomic valenz-charges read in
  non local Contribution for L=           1  read in
    real space projection operators read in
  non local Contribution for L=           1  read in
    real space projection operators read in
  non local Contribution for L=           2  read in
    real space projection operators read in
  non local Contribution for L=           2  read in
    real space projection operators read in
  non local Contribution for L=           0  read in
    real space projection operators read in
  non local Contribution for L=           0  read in
    real space projection operators read in
    PAW grid and wavefunctions read in
 
   number of l-projection  operators is LMAX  =           6
   number of lm-projection operators is LMMAX =          18
 
 POTCAR:    PAW_PBE Pt 04Feb2005                  
   SHA256 =  3ed90460adef76debcff1cfb73ee1349b515b1a3db03439735b44de3a8db7dc8 Pt/POTCAR             
   COPYR  = (c) Copyright 04Feb2005 Georg Kresse                                                    
   COPYR  = This file is part of the software VASP. Any use, copying, and all other rights are regul
   COPYR  = If you do not have a valid VASP license, you may not use, copy or distribute this file. 
   VRHFIN =Pt: s1d9                                                                                 
   LEXCH  = PE                                                                                      
   EATOM  =   729.1176 eV,   53.5886 Ry                                                             
                                                                                                    
   TITEL  = PAW_PBE Pt 04Feb2005                                                                    
   LULTRA =        F    use ultrasoft PP ?                                                          
   IUNSCR =        1    unscreen: 0-lin 1-nonlin 2-no                                               
   RPACOR =    2.330    partial core radius                                                         
   POMASS =  195.080; ZVAL   =   10.000    mass and valenz                                          
   RCORE  =    2.600    outmost cutoff radius                                                       
   RWIGS  =    2.750; RWIGS  =    1.455    wigner-seitz radius (au A)                               
   ENMAX  =  230.283; ENMIN  =  172.712 eV                                                          
   ICORE  =        3    local potential                                                             
   LCOR   =        T    correct aug charges                                                         
   LPAW   =        T    paw PP                                                                      
   EAUG   =  358.966                                                                                
   DEXC   =    0.000                                                                                
   RMAX   =    2.658    core radius for proj-oper                                                   
   RAUG   =    1.300    factor for augmentation sphere                                              
   RDEP   =    2.761    radius for radial grids                                                     
   RDEPT  =    2.203    core radius for aug-charge                                                  
                                                                                                    
   Atomic configuration                                                                             
   16 entries                                                                                       
     n  l   j            E        occ.                                                              
     1  0  0.50    -78401.1885   2.0000                                                             
     2  0  0.50    -13770.7750   2.0000                                                             
     2  1  1.50    -11931.0468   6.0000                                                             
     3  0  0.50     -3234.7234   2.0000                                                             
     3  1  1.50     -2699.2216   6.0000                                                             
     3  2  2.50     -2119.5714  10.0000                                                             
     4  0  0.50      -695.1528   2.0000                                                             
     4  1  1.50      -519.6034   6.0000                                                             
     4  2  2.50      -306.6786  10.0000                                                             
     4  3  3.50       -70.1041  14.0000                                                             
     5  0  0.50      -101.7747   2.0000                                                             
     5  1  1.50       -55.9873   6.0000                                                             
     5  2  2.50        -6.1423   9.0000                                                             
     6  0  0.50        -5.6573   1.0000                                                             
     6  1  1.50        -6.8029   0.0000                                                             
     5  3  2.50        -1.3606   0.0000                                                             
   Description                                                                                      
     l       E           TYP  RCUT    TYP  RCUT                                                     
     2     -6.1423404     23  2.500                                                                 
     2     -7.5029230     23  2.500                                                                 
     0     -5.6573207     23  2.500                                                                 
     0      0.7416693     23  2.500                                                                 
     1     -2.7211652     23  2.600                                                                 
     1     20.4087390     23  2.600                                                                 
     3     -1.3605826     23  2.500                                                                 
  local pseudopotential read in
  partial core-charges read in
  partial kinetic energy density read in
  atomic valenz-charges read in
  non local Contribution for L=           2  read in
    real space projection operators read in
  non local Contribution for L=           2  read in
    real space projection operators read in
  non local Contribution for L=           0  read in
    real space projection operators read in
  non local Contribution for L=           0  read in
    real space projection operators read in
  non local Contribution for L=           1  read in
    real space projection operators read in
  non local Contribution for L=           1  read in
    real space projection operators read in
    PAW grid and wavefunctions read in
 
   number of l-projection  operators is LMAX  =           6
   number of lm-projection operators is LMMAX =          18
 
  PAW_PBE Fe_pv 02Aug2007               :
 energy of atom  1       EATOM=-2457.4239
 kinetic energy error for atom=    0.0062 (will be added to EATOM!!)
  PAW_PBE Pt 04Feb2005                  :
 energy of atom  2       EATOM= -729.1176
 kinetic energy error for atom=    0.0032 (will be added to EATOM!!)
 
 
 POSCAR: Fe9 Pt3
  positions in direct lattice
  velocities in cartesian coordinates


 exchange-correlation table for PE
   RHO(1)=    0.500       N(1)  =     2000
   RHO(2)=  100.500       N(2)  =     4000
 


--------------------------------------------------------------------------------------------------------


 ion  position               nearest neighbor table
   1  0.000  0.500  0.167-   4 2.58   4 2.58   5 2.58   5 2.58   7 2.60   7 2.60   7 2.60   7 2.60
                            10 2.63  10 2.63  11 2.63  11 2.63
   2  0.000  0.500  0.499-  11 2.59  11 2.59   8 2.60   8 2.60   8 2.60   8 2.60  12 2.62  12 2.62
                             6 2.62   6 2.62   5 2.65   5 2.65
   3  0.000  0.500  0.834-  10 2.59  10 2.59   9 2.60   9 2.60   9 2.60   9 2.60   6 2.62   6 2.62
                            12 2.62  12 2.62   4 2.65   4 2.65
   4  0.500  0.500  0.005-   1 2.58   7 2.58   7 2.58   1 2.58  10 2.60  10 2.60  10 2.60  10 2.60
                             9 2.65   3 2.65   9 2.65   3 2.65
   5  0.500  0.500  0.328-   1 2.58   7 2.58   7 2.58   1 2.58  11 2.60  11 2.60  11 2.60  11 2.60
                             8 2.65   2 2.65   8 2.65   2 2.65
   6  0.500  0.500  0.667-  12 2.60  12 2.60  12 2.60  12 2.60   9 2.62   3 2.62   3 2.62   9 2.62
                             2 2.62   8 2.62   2 2.62   8 2.62
   7  0.500  0.000  0.167-   4 2.58   4 2.58   5 2.58   5 2.58   1 2.60   1 2.60   1 2.60   1 2.60
                            10 2.63  10 2.63  11 2.63  11 2.63
   8  0.500  0.000  0.499-  11 2.59  11 2.59   2 2.60   2 2.60   2 2.60   2 2.60  12 2.62  12 2.62
                             6 2.62   6 2.62   5 2.65   5 2.65
   9  0.500  0.000  0.834-  10 2.59  10 2.59   3 2.60   3 2.60   3 2.60   3 2.60   6 2.62   6 2.62
                            12 2.62  12 2.62   4 2.65   4 2.65
  10  0.000  0.000  0.998-   3 2.59   9 2.59   3 2.59   9 2.59   4 2.60   4 2.60   4 2.60   4 2.60
                             1 2.63   7 2.63   7 2.63   1 2.63
  11  0.000  0.000  0.336-   2 2.59   8 2.59   2 2.59   8 2.59   5 2.60   5 2.60   5 2.60   5 2.60
                             1 2.63   7 2.63   7 2.63   1 2.63
  12  0.000  0.000  0.667-   6 2.60   6 2.60   6 2.60   6 2.60   3 2.62   9 2.62   9 2.62   3 2.62
                             2 2.62   8 2.62   8 2.62   2 2.62
 
  LATTYP: Found a simple tetragonal cell.
 ALAT       =     3.6769393117
 C/A-ratio  =     3.0375089186
  
  Lattice vectors:
  
 A1 = (   3.6769393117,   0.0000000000,   0.0000000000)
 A2 = (   0.0000000000,   3.6769393117,   0.0000000000)
 A3 = (   0.0000000000,   0.0000000000,  11.1687359522)


Analysis of symmetry for initial positions (statically):
=====================================================================
 Subroutine PRICEL returns:
 Original cell was already a primitive cell.
 

 Routine SETGRP: Setting up the symmetry group for a 
 simple tetragonal supercell.


 Subroutine GETGRP returns: Found  8 space group operations
 (whereof  8 operations were pure point group operations)
 out of a pool of 16 trial point group operations.


The static configuration has the point symmetry C_4v.


Analysis of symmetry for dynamics (positions and initial velocities):
=====================================================================
 Subroutine PRICEL returns:
 Original cell was already a primitive cell.
 

 Routine SETGRP: Setting up the symmetry group for a 
 simple tetragonal supercell.


 Subroutine GETGRP returns: Found  8 space group operations
 (whereof  8 operations were pure point group operations)
 out of a pool of 16 trial point group operations.


The dynamic configuration has the point symmetry C_4v.


Analysis of structural, dynamic, and magnetic symmetry:
=====================================================================
 Subroutine PRICEL returns:
 Original cell was already a primitive cell.
 

 Routine SETGRP: Setting up the symmetry group for a 
 simple tetragonal supercell.


 Subroutine GETGRP returns: Found  8 space group operations
 (whereof  8 operations were pure point group operations)
 out of a pool of 16 trial point group operations.


The overall configuration has the point symmetry C_4v.


 Subroutine INISYM returns: Found  8 space group operations
 (whereof  8 operations are pure point group operations),
 and found     1 'primitive' translations


----------------------------------------------------------------------------------------

                                     Primitive cell                                     

  volume of cell :     151.0000

  direct lattice vectors                    reciprocal lattice vectors
     3.676939312  0.000000000  0.000000000     0.271965326  0.000000000  0.000000000
     0.000000000  3.676939312  0.000000000     0.000000000  0.271965326  0.000000000
     0.000000000  0.000000000 11.168735952     0.000000000  0.000000000  0.089535647

  length of vectors
     3.676939312  3.676939312 11.168735952     0.271965326  0.271965326  0.089535647

  position of ions in fractional coordinates (direct lattice)
     0.000000000  0.500000000  0.166646106
     0.000000000  0.500000000  0.499351226
     0.000000000  0.500000000  0.833999193
     0.500000000  0.500000000  0.005072362
     0.500000000  0.500000000  0.328231148
     0.500000000  0.500000000  0.666699556
     0.500000000  0.000000000  0.166646106
     0.500000000  0.000000000  0.499351226
     0.500000000  0.000000000  0.833999193
     0.000000000  0.000000000  0.997802956
     0.000000000  0.000000000  0.335514278
     0.000000000  0.000000000  0.666686651

  ion indices of the primitive-cell ions
   primitive index   ion index
                 1           1
                 2           2
                 3           3
                 4           4
                 5           5
                 6           6
                 7           7
                 8           8
                 9           9
                10          10
                11          11
                12          12

----------------------------------------------------------------------------------------

 
 
 KPOINTS: pymatgen with grid density = 8800 / numb

Automatic generation of k-mesh.
 Grid dimensions read from file:
 generate k-points for:   13   13    4

 Generating k-lattice:

  Cartesian coordinates                     Fractional coordinates (reciprocal lattice)
     0.020920410  0.000000000  0.000000000     0.076923077  0.000000000  0.000000000
     0.000000000  0.020920410  0.000000000     0.000000000  0.076923077  0.000000000
     0.000000000  0.000000000  0.022383912     0.000000000  0.000000000  0.250000000

  Length of vectors
     0.020920410  0.020920410  0.022383912

  Shift w.r.t. Gamma in fractional coordinates (k-lattice)
     0.000000000  0.000000000  0.000000000

 TETIRR: Found   1010 inequivalent tetrahedra from     4056
 
 Subroutine IBZKPT returns following result:
 ===========================================
 
 Found     84 irreducible k-points:
 
 Following reciprocal coordinates:
            Coordinates               Weight
  0.000000  0.000000  0.000000      1.000000
  0.076923  0.000000  0.000000      4.000000
  0.153846  0.000000  0.000000      4.000000
  0.230769  0.000000  0.000000      4.000000
  0.307692  0.000000  0.000000      4.000000
  0.384615  0.000000  0.000000      4.000000
  0.461538  0.000000  0.000000      4.000000
  0.076923  0.076923  0.000000      4.000000
  0.153846  0.076923  0.000000      8.000000
  0.230769  0.076923  0.000000      8.000000
  0.307692  0.076923  0.000000      8.000000
  0.384615  0.076923  0.000000      8.000000
  0.461538  0.076923  0.000000      8.000000
  0.153846  0.153846  0.000000      4.000000
  0.230769  0.153846  0.000000      8.000000
  0.307692  0.153846  0.000000      8.000000
  0.384615  0.153846  0.000000      8.000000
  0.461538  0.153846  0.000000      8.000000
  0.230769  0.230769  0.000000      4.000000
  0.307692  0.230769  0.000000      8.000000
  0.384615  0.230769  0.000000      8.000000
  0.461538  0.230769  0.000000      8.000000
  0.307692  0.307692  0.000000      4.000000
  0.384615  0.307692  0.000000      8.000000
  0.461538  0.307692  0.000000      8.000000
  0.384615  0.384615  0.000000      4.000000
  0.461538  0.384615  0.000000      8.000000
  0.461538  0.461538  0.000000      4.000000
  0.000000  0.000000  0.250000      2.000000
  0.076923  0.000000  0.250000      8.000000
  0.153846  0.000000  0.250000      8.000000
  0.230769  0.000000  0.250000      8.000000
  0.307692  0.000000  0.250000      8.000000
  0.384615  0.000000  0.250000      8.000000
  0.461538  0.000000  0.250000      8.000000
  0.076923  0.076923  0.250000      8.000000
  0.153846  0.076923  0.250000     16.000000
  0.230769  0.076923  0.250000     16.000000
  0.307692  0.076923  0.250000     16.000000
  0.384615  0.076923  0.250000     16.000000
  0.461538  0.076923  0.250000     16.000000
  0.153846  0.153846  0.250000      8.000000
  0.230769  0.153846  0.250000     16.000000
  0.307692  0.153846  0.250000     16.000000
  0.384615  0.153846  0.250000     16.000000
  0.461538  0.153846  0.250000     16.000000
  0.230769  0.230769  0.250000      8.000000
  0.307692  0.230769  0.250000     16.000000
  0.384615  0.230769  0.250000     16.000000
  0.461538  0.230769  0.250000     16.000000
  0.307692  0.307692  0.250000      8.000000
  0.384615  0.307692  0.250000     16.000000
  0.461538  0.307692  0.250000     16.000000
  0.384615  0.384615  0.250000      8.000000
  0.461538  0.384615  0.250000     16.000000
  0.461538  0.461538  0.250000      8.000000
  0.000000  0.000000  0.500000      1.000000
  0.076923  0.000000  0.500000      4.000000
  0.153846  0.000000  0.500000      4.000000
  0.230769  0.000000  0.500000      4.000000
  0.307692  0.000000  0.500000      4.000000
  0.384615  0.000000  0.500000      4.000000
  0.461538  0.000000  0.500000      4.000000
  0.076923  0.076923  0.500000      4.000000
  0.153846  0.076923  0.500000      8.000000
  0.230769  0.076923  0.500000      8.000000
  0.307692  0.076923  0.500000      8.000000
  0.384615  0.076923  0.500000      8.000000
  0.461538  0.076923  0.500000      8.000000
  0.153846  0.153846  0.500000      4.000000
  0.230769  0.153846  0.500000      8.000000
  0.307692  0.153846  0.500000      8.000000
  0.384615  0.153846  0.500000      8.000000
  0.461538  0.153846  0.500000      8.000000
  0.230769  0.230769  0.500000      4.000000
  0.307692  0.230769  0.500000      8.000000
  0.384615  0.230769  0.500000      8.000000
  0.461538  0.230769  0.500000      8.000000
  0.307692  0.307692  0.500000      4.000000
  0.384615  0.307692  0.500000      8.000000
  0.461538  0.307692  0.500000      8.000000
  0.384615  0.384615  0.500000      4.000000
  0.461538  0.384615  0.500000      8.000000
  0.461538  0.461538  0.500000      4.000000
 
 Following cartesian coordinates:
            Coordinates               Weight
  0.000000  0.000000  0.000000      1.000000
  0.020920  0.000000  0.000000      4.000000
  0.041841  0.000000  0.000000      4.000000
  0.062761  0.000000  0.000000      4.000000
  0.083682  0.000000  0.000000      4.000000
  0.104602  0.000000  0.000000      4.000000
  0.125522  0.000000  0.000000      4.000000
  0.020920  0.020920  0.000000      4.000000
  0.041841  0.020920  0.000000      8.000000
  0.062761  0.020920  0.000000      8.000000
  0.083682  0.020920  0.000000      8.000000
  0.104602  0.020920  0.000000      8.000000
  0.125522  0.020920  0.000000      8.000000
  0.041841  0.041841  0.000000      4.000000
  0.062761  0.041841  0.000000      8.000000
  0.083682  0.041841  0.000000      8.000000
  0.104602  0.041841  0.000000      8.000000
  0.125522  0.041841  0.000000      8.000000
  0.062761  0.062761  0.000000      4.000000
  0.083682  0.062761  0.000000      8.000000
  0.104602  0.062761  0.000000      8.000000
  0.125522  0.062761  0.000000      8.000000
  0.083682  0.083682  0.000000      4.000000
  0.104602  0.083682  0.000000      8.000000
  0.125522  0.083682  0.000000      8.000000
  0.104602  0.104602  0.000000      4.000000
  0.125522  0.104602  0.000000      8.000000
  0.125522  0.125522  0.000000      4.000000
  0.000000  0.000000  0.022384      2.000000
  0.020920  0.000000  0.022384      8.000000
  0.041841  0.000000  0.022384      8.000000
  0.062761  0.000000  0.022384      8.000000
  0.083682  0.000000  0.022384      8.000000
  0.104602  0.000000  0.022384      8.000000
  0.125522  0.000000  0.022384      8.000000
  0.020920  0.020920  0.022384      8.000000
  0.041841  0.020920  0.022384     16.000000
  0.062761  0.020920  0.022384     16.000000
  0.083682  0.020920  0.022384     16.000000
  0.104602  0.020920  0.022384     16.000000
  0.125522  0.020920  0.022384     16.000000
  0.041841  0.041841  0.022384      8.000000
  0.062761  0.041841  0.022384     16.000000
  0.083682  0.041841  0.022384     16.000000
  0.104602  0.041841  0.022384     16.000000
  0.125522  0.041841  0.022384     16.000000
  0.062761  0.062761  0.022384      8.000000
  0.083682  0.062761  0.022384     16.000000
  0.104602  0.062761  0.022384     16.000000
  0.125522  0.062761  0.022384     16.000000
  0.083682  0.083682  0.022384      8.000000
  0.104602  0.083682  0.022384     16.000000
  0.125522  0.083682  0.022384     16.000000
  0.104602  0.104602  0.022384      8.000000
  0.125522  0.104602  0.022384     16.000000
  0.125522  0.125522  0.022384      8.000000
  0.000000  0.000000  0.044768      1.000000
  0.020920  0.000000  0.044768      4.000000
  0.041841  0.000000  0.044768      4.000000
  0.062761  0.000000  0.044768      4.000000
  0.083682  0.000000  0.044768      4.000000
  0.104602  0.000000  0.044768      4.000000
  0.125522  0.000000  0.044768      4.000000
  0.020920  0.020920  0.044768      4.000000
  0.041841  0.020920  0.044768      8.000000
  0.062761  0.020920  0.044768      8.000000
  0.083682  0.020920  0.044768      8.000000
  0.104602  0.020920  0.044768      8.000000
  0.125522  0.020920  0.044768      8.000000
  0.041841  0.041841  0.044768      4.000000
  0.062761  0.041841  0.044768      8.000000
  0.083682  0.041841  0.044768      8.000000
  0.104602  0.041841  0.044768      8.000000
  0.125522  0.041841  0.044768      8.000000
  0.062761  0.062761  0.044768      4.000000
  0.083682  0.062761  0.044768      8.000000
  0.104602  0.062761  0.044768      8.000000
  0.125522  0.062761  0.044768      8.000000
  0.083682  0.083682  0.044768      4.000000
  0.104602  0.083682  0.044768      8.000000
  0.125522  0.083682  0.044768      8.000000
  0.104602  0.104602  0.044768      4.000000
  0.125522  0.104602  0.044768      8.000000
  0.125522  0.125522  0.044768      4.000000
 


--------------------------------------------------------------------------------------------------------




 Dimension of arrays:
   k-points           NKPTS =     84   k-points in BZ     NKDIM =     84   number of bands    NBANDS=     96
   number of dos      NEDOS =    301   number of ions     NIONS =     12
   non local maximal  LDIM  =      6   non local SUM 2l+1 LMDIM =     18
   total plane-waves  NPLWV =  65856
   max r-space proj   IRMAX =      1   max aug-charges    IRDMAX=  26612
   dimension x,y,z NGX =    28 NGY =   28 NGZ =   84
   dimension x,y,z NGXF=    56 NGYF=   56 NGZF=  168
   support grid    NGXF=    56 NGYF=   56 NGZF=  168
   ions per type =               9   3
   NGX,Y,Z   is equivalent  to a cutoff of  12.66, 12.66, 12.50 a.u.
   NGXF,Y,Z  is equivalent  to a cutoff of  25.32, 25.32, 25.01 a.u.

 SYSTEM =  unknown system                          
 POSCAR =  Fe9 Pt3                                 

 Startparameter for this run:
   NWRITE =      2    write-flag & timer
   PREC   = accura    normal or accurate (medium, high low for compatibility)
   ISTART =      0    job   : 0-new  1-cont  2-samecut
   ICHARG =      2    charge: 1-file 2-atom 10-const
   ISPIN  =      2    spin polarized calculation?
   LNONCOLLINEAR =      F non collinear calculations
   LSORBIT =      F    spin-orbit coupling
   INIWAV =      1    electr: 0-lowe 1-rand  2-diag
   LASPH  =      F    aspherical Exc in radial PAW
 Electronic Relaxation 1
   ENCUT  =  520.0 eV  38.22 Ry    6.18 a.u.   6.84  6.84 20.77*2*pi/ulx,y,z
   ENINI  =  520.0     initial cutoff
   ENAUG  =  578.3 eV  augmentation charge cutoff
   NELM   =    200;   NELMIN=  2; NELMDL=  0     # of ELM steps 
   EDIFF  = 0.1E-05   stopping-criterion for ELM
   LREAL  =      F    real-space projection
   NLSPLINE    = F    spline interpolate recip. space projectors
   LCOMPAT=      F    compatible to vasp.4.4
   GGA_COMPAT  = T    GGA compatible to vasp.4.4-vasp.4.6
   LMAXPAW     = -100 max onsite density
   LMAXMIX     =    2 max onsite mixed and CHGCAR
   VOSKOWN=      0    Vosko Wilk Nusair interpolation
   ROPT   =    0.00000   0.00000
 Ionic relaxation
   EDIFFG = -.1E-01   stopping-criterion for IOM
   NSW    =      0    number of steps for IOM
   NBLOCK =      1;   KBLOCK =      1    inner block; outer block 
   IBRION =     -1    ionic relax: 0-MD 1-quasi-New 2-CG
   NFREE  =      0    steps in history (QN), initial steepest desc. (CG)
   ISIF   =      4    stress and relaxation
   IWAVPR =     10    prediction:  0-non 1-charg 2-wave 3-comb
   ISYM   =      2    0-nonsym 1-usesym 2-fastsym
   LCORR  =      T    Harris-Foulkes like correction to forces

   POTIM  = 0.5000    time-step for ionic-motion
   TEIN   =    0.0    initial temperature
   TEBEG  =    0.0;   TEEND  =   0.0 temperature during run
   SMASS  =  -3.00    Nose mass-parameter (am)
   estimated Nose-frequenzy (Omega)   =  0.10E-29 period in steps = 0.13E+47 mass=  -0.309E-27a.u.
   SCALEE = 1.0000    scale energy and forces
   NPACO  =    256;   APACO  = 10.0  distance and # of slots for P.C.
   PSTRESS=    0.0 pullay stress

  Mass of Ions in am
   POMASS =  55.85195.08
  Ionic Valenz
   ZVAL   =  14.00 10.00
  Atomic Wigner-Seitz radii
   RWIGS  =  -1.00 -1.00
  virtual crystal weights 
   VCA    =   1.00  1.00
   NELECT =     156.0000    total number of electrons
   NUPDOWN=      -1.0000    fix difference up-down

 DOS related values:
   EMIN   =  10.00;   EMAX   =-10.00  energy-range for DOS
   EFERMI =   0.00;   METHOD = LEGACY      
   ISMEAR =    -5;   SIGMA  =   0.20  broadening in eV -4-tet -1-fermi 0-gaus

 Electronic relaxation 2 (details)
   IALGO  =     38    algorithm
   LDIAG  =      T    sub-space diagonalisation (order eigenvalues)
   LSUBROT=      F    optimize rotation matrix (better conditioning)
   TURBO    =      0    0=normal 1=particle mesh
   IRESTART =      0    0=no restart 2=restart with 2 vectors
   NREBOOT  =      0    no. of reboots
   NMIN     =      0    reboot dimension
   EREF     =   0.00    reference energy to select bands
   IMIX   =      4    mixing-type and parameters
     AMIX     =   0.40;   BMIX     =  1.00
     AMIX_MAG =   1.60;   BMIX_MAG =  1.00
     AMIN     =   0.10
     WC   =   100.;   INIMIX=   1;  MIXPRE=   1;  MAXMIX= -45

 Intra band minimization:
   WEIMIN = 0.0000     energy-eigenvalue tresh-hold
   EBREAK =  0.26E-08  absolut break condition
   DEPER  =   0.30     relativ break condition  

   TIME   =   0.40     timestep for ELM

  volume/ion in A,a.u.               =      12.58        84.92
  Fermi-wavevector in a.u.,A,eV,Ry     =   1.654972  3.127444 37.265448  2.738933
  Thomas-Fermi vector in A             =   2.743148
 
 Write flags
   LWAVE        =      F    write WAVECAR
   LDOWNSAMPLE  =      F    k-point downsampling of WAVECAR
   LCHARG       =      T    write CHGCAR
   LVTOT        =      F    write LOCPOT, total local potential
   LVHAR        =      F    write LOCPOT, Hartree potential only
   WRT_POTENTIAL= false  ! write potential to hdf5 file
   LELF         =      F    write electronic localiz. function (ELF)
   LORBIT       =     11    0 simple, 1 ext, 2 COOP (PROOUT), +10 PAW based schemes


 Dipole corrections
   LMONO      =      F    monopole corrections only (constant potential shift)
   LDIPOL     =      F    correct potential (dipole corrections)
   IDIPOL     =      0    1-x, 2-y, 3-z, 4-all directions 
   EPSILON    =  1.0000000 bulk dielectric constant
   LVACPOTAV  =      F  vacuum potentials using an averaging scheme for the charge density
   VACPOTFLAT =  0.1000000 required flatness to determine vacuum potential
 Exchange correlation treatment:
   GGA     = PE    functional components
   XC_C    = 1    coefficients multiplying the functional components
   LIBXC   =     F    Libxc                    
   VOSKOWN =     0    Vosko Wilk Nusair interpolation
   LHFCALC =     F    Hartree Fock is set to
   LHFONE  =     F    Hartree Fock one center treatment
   AEXX    =    0.0000 exact exchange contribution

 Parameters of functionals:
   PE:
     No parameter
 
 Van der Waals corrections
   IVDW    =     0    specifies the selected vdW correction

 Linear response parameters
   LEPSILON=     F    determine dielectric tensor
   LRPA    =     F    only Hartree local field effects (RPA)
   LNABLA  =     F    use nabla operator in PAW spheres
   LVEL    =     F    velocity operator in full k-point grid
   CSHIFT  =0.1000    complex shift for real part using Kramers Kronig
   OMEGAMAX=  -1.0    maximum frequency
   DEG_THRESHOLD= 0.2000000E-02 threshold for treating states as degnerate
   RTIME   =   -0.100 relaxation time in fs
  (WPLASMAI=    0.000 imaginary part of plasma frequency in eV, 0.658/RTIME)
   DFIELD  = 0.0000000 0.0000000 0.0000000 field for delta impulse in time
 
  Optional k-point grid parameters
   LKPOINTS_OPT  =     F    use optional k-point grid
   KPOINTS_OPT_MODE=     1    mode for optional k-point grid
 
 Orbital magnetization related:
   ORBITALMAG=     F  switch on orbital magnetization
   LCHIMAG   =     F  perturbation theory with respect to B field
   DQ        =  0.001000  dq finite difference perturbation B field
   LLRAUG    =     F  two centre corrections for induced B field
   LBONE     =     F  B-component reconstruction in AE one-centre
   LVGVCALC  =     T  calculate vGv susceptibility
   LVGVAPPL  =     F  apply vGv susceptibility instead of pGv for G=0

 Random number generation:
   RANDOM_GENERATOR = DEFAULT
   PCG_SEED         = not used


--------------------------------------------------------------------------------------------------------


 Static calculation
 charge density and potential will be updated during run
 spin polarized calculation
 Variant of blocked Davidson
 Davidson routine will perform the subspace rotation
 perform sub-space diagonalisation
    after iterative eigenvector-optimisation
 modified Broyden-mixing scheme, WC =      100.0
 initial mixing is a Kerker type mixing with AMIX =  0.4000 and BMIX =      1.0000
 Hartree-type preconditioning will be used
 using additional bands           18
 reciprocal scheme for non local part
 use partial core corrections
 calculate Harris-corrections to forces 
   (improved forces if not selfconsistent)
 use gradient corrections 
 use of overlap-Matrix (Vanderbilt PP)
 Fermi weights with tetrahedron method with Bloechl corrections


--------------------------------------------------------------------------------------------------------


  energy-cutoff  :      520.00
  volume of cell :      151.00
      direct lattice vectors                 reciprocal lattice vectors
     3.676939312  0.000000000  0.000000000     0.271965326  0.000000000  0.000000000
     0.000000000  3.676939312  0.000000000     0.000000000  0.271965326  0.000000000
     0.000000000  0.000000000 11.168735952     0.000000000  0.000000000  0.089535647

  length of vectors
     3.676939312  3.676939312 11.168735952     0.271965326  0.271965326  0.089535647


 
 k-points in units of 2pi/SCALE and weight: pymatgen with grid density = 8800 / numb
   0.00000000  0.00000000  0.00000000       0.001
   0.02092041  0.00000000  0.00000000       0.006
   0.04184082  0.00000000  0.00000000       0.006
   0.06276123  0.00000000  0.00000000       0.006
   0.08368164  0.00000000  0.00000000       0.006
   0.10460205  0.00000000  0.00000000       0.006
   0.12552246  0.00000000  0.00000000       0.006
   0.02092041  0.02092041  0.00000000       0.006
   0.04184082  0.02092041  0.00000000       0.012
   0.06276123  0.02092041  0.00000000       0.012
   0.08368164  0.02092041  0.00000000       0.012
   0.10460205  0.02092041  0.00000000       0.012
   0.12552246  0.02092041  0.00000000       0.012
   0.04184082  0.04184082  0.00000000       0.006
   0.06276123  0.04184082  0.00000000       0.012
   0.08368164  0.04184082  0.00000000       0.012
   0.10460205  0.04184082  0.00000000       0.012
   0.12552246  0.04184082  0.00000000       0.012
   0.06276123  0.06276123  0.00000000       0.006
   0.08368164  0.06276123  0.00000000       0.012
   0.10460205  0.06276123  0.00000000       0.012
   0.12552246  0.06276123  0.00000000       0.012
   0.08368164  0.08368164  0.00000000       0.006
   0.10460205  0.08368164  0.00000000       0.012
   0.12552246  0.08368164  0.00000000       0.012
   0.10460205  0.10460205  0.00000000       0.006
   0.12552246  0.10460205  0.00000000       0.012
   0.12552246  0.12552246  0.00000000       0.006
   0.00000000  0.00000000  0.02238391       0.003
   0.02092041  0.00000000  0.02238391       0.012
   0.04184082  0.00000000  0.02238391       0.012
   0.06276123  0.00000000  0.02238391       0.012
   0.08368164  0.00000000  0.02238391       0.012
   0.10460205  0.00000000  0.02238391       0.012
   0.12552246  0.00000000  0.02238391       0.012
   0.02092041  0.02092041  0.02238391       0.012
   0.04184082  0.02092041  0.02238391       0.024
   0.06276123  0.02092041  0.02238391       0.024
   0.08368164  0.02092041  0.02238391       0.024
   0.10460205  0.02092041  0.02238391       0.024
   0.12552246  0.02092041  0.02238391       0.024
   0.04184082  0.04184082  0.02238391       0.012
   0.06276123  0.04184082  0.02238391       0.024
   0.08368164  0.04184082  0.02238391       0.024
   0.10460205  0.04184082  0.02238391       0.024
   0.12552246  0.04184082  0.02238391       0.024
   0.06276123  0.06276123  0.02238391       0.012
   0.08368164  0.06276123  0.02238391       0.024
   0.10460205  0.06276123  0.02238391       0.024
   0.12552246  0.06276123  0.02238391       0.024
   0.08368164  0.08368164  0.02238391       0.012
   0.10460205  0.08368164  0.02238391       0.024
   0.12552246  0.08368164  0.02238391       0.024
   0.10460205  0.10460205  0.02238391       0.012
   0.12552246  0.10460205  0.02238391       0.024
   0.12552246  0.12552246  0.02238391       0.012
   0.00000000  0.00000000  0.04476782       0.001
   0.02092041  0.00000000  0.04476782       0.006
   0.04184082  0.00000000  0.04476782       0.006
   0.06276123  0.00000000  0.04476782       0.006
   0.08368164  0.00000000  0.04476782       0.006
   0.10460205  0.00000000  0.04476782       0.006
   0.12552246  0.00000000  0.04476782       0.006
   0.02092041  0.02092041  0.04476782       0.006
   0.04184082  0.02092041  0.04476782       0.012
   0.06276123  0.02092041  0.04476782       0.012
   0.08368164  0.02092041  0.04476782       0.012
   0.10460205  0.02092041  0.04476782       0.012
   0.12552246  0.02092041  0.04476782       0.012
   0.04184082  0.04184082  0.04476782       0.006
   0.06276123  0.04184082  0.04476782       0.012
   0.08368164  0.04184082  0.04476782       0.012
   0.10460205  0.04184082  0.04476782       0.012
   0.12552246  0.04184082  0.04476782       0.012
   0.06276123  0.06276123  0.04476782       0.006
   0.08368164  0.06276123  0.04476782       0.012
   0.10460205  0.06276123  0.04476782       0.012
   0.12552246  0.06276123  0.04476782       0.012
   0.08368164  0.08368164  0.04476782       0.006
   0.10460205  0.08368164  0.04476782       0.012
   0.12552246  0.08368164  0.04476782       0.012
   0.10460205  0.10460205  0.04476782       0.006
   0.12552246  0.10460205  0.04476782       0.012
   0.12552246  0.12552246  0.04476782       0.006
 
 k-points in reciprocal lattice and weights: pymatgen with grid density = 8800 / numb
   0.00000000  0.00000000  0.00000000       0.001
   0.07692308  0.00000000  0.00000000       0.006
   0.15384615  0.00000000  0.00000000       0.006
   0.23076923  0.00000000  0.00000000       0.006
   0.30769231  0.00000000  0.00000000       0.006
   0.38461538  0.00000000  0.00000000       0.006
   0.46153846  0.00000000  0.00000000       0.006
   0.07692308  0.07692308  0.00000000       0.006
   0.15384615  0.07692308  0.00000000       0.012
   0.23076923  0.07692308  0.00000000       0.012
   0.30769231  0.07692308  0.00000000       0.012
   0.38461538  0.07692308  0.00000000       0.012
   0.46153846  0.07692308  0.00000000       0.012
   0.15384615  0.15384615  0.00000000       0.006
   0.23076923  0.15384615  0.00000000       0.012
   0.30769231  0.15384615  0.00000000       0.012
   0.38461538  0.15384615  0.00000000       0.012
   0.46153846  0.15384615  0.00000000       0.012
   0.23076923  0.23076923  0.00000000       0.006
   0.30769231  0.23076923  0.00000000       0.012
   0.38461538  0.23076923  0.00000000       0.012
   0.46153846  0.23076923  0.00000000       0.012
   0.30769231  0.30769231  0.00000000       0.006
   0.38461538  0.30769231  0.00000000       0.012
   0.46153846  0.30769231  0.00000000       0.012
   0.38461538  0.38461538  0.00000000       0.006
   0.46153846  0.38461538  0.00000000       0.012
   0.46153846  0.46153846  0.00000000       0.006
   0.00000000  0.00000000  0.25000000       0.003
   0.07692308  0.00000000  0.25000000       0.012
   0.15384615  0.00000000  0.25000000       0.012
   0.23076923  0.00000000  0.25000000       0.012
   0.30769231  0.00000000  0.25000000       0.012
   0.38461538  0.00000000  0.25000000       0.012
   0.46153846  0.00000000  0.25000000       0.012
   0.07692308  0.07692308  0.25000000       0.012
   0.15384615  0.07692308  0.25000000       0.024
   0.23076923  0.07692308  0.25000000       0.024
   0.30769231  0.07692308  0.25000000       0.024
   0.38461538  0.07692308  0.25000000       0.024
   0.46153846  0.07692308  0.25000000       0.024
   0.15384615  0.15384615  0.25000000       0.012
   0.23076923  0.15384615  0.25000000       0.024
   0.30769231  0.15384615  0.25000000       0.024
   0.38461538  0.15384615  0.25000000       0.024
   0.46153846  0.15384615  0.25000000       0.024
   0.23076923  0.23076923  0.25000000       0.012
   0.30769231  0.23076923  0.25000000       0.024
   0.38461538  0.23076923  0.25000000       0.024
   0.46153846  0.23076923  0.25000000       0.024
   0.30769231  0.30769231  0.25000000       0.012
   0.38461538  0.30769231  0.25000000       0.024
   0.46153846  0.30769231  0.25000000       0.024
   0.38461538  0.38461538  0.25000000       0.012
   0.46153846  0.38461538  0.25000000       0.024
   0.46153846  0.46153846  0.25000000       0.012
   0.00000000  0.00000000  0.50000000       0.001
   0.07692308  0.00000000  0.50000000       0.006
   0.15384615  0.00000000  0.50000000       0.006
   0.23076923  0.00000000  0.50000000       0.006
   0.30769231  0.00000000  0.50000000       0.006
   0.38461538  0.00000000  0.50000000       0.006
   0.46153846  0.00000000  0.50000000       0.006
   0.07692308  0.07692308  0.50000000       0.006
   0.15384615  0.07692308  0.50000000       0.012
   0.23076923  0.07692308  0.50000000       0.012
   0.30769231  0.07692308  0.50000000       0.012
   0.38461538  0.07692308  0.50000000       0.012
   0.46153846  0.07692308  0.50000000       0.012
   0.15384615  0.15384615  0.50000000       0.006
   0.23076923  0.15384615  0.50000000       0.012
   0.30769231  0.15384615  0.50000000       0.012
   0.38461538  0.15384615  0.50000000       0.012
   0.46153846  0.15384615  0.50000000       0.012
   0.23076923  0.23076923  0.50000000       0.006
   0.30769231  0.23076923  0.50000000       0.012
   0.38461538  0.23076923  0.50000000       0.012
   0.46153846  0.23076923  0.50000000       0.012
   0.30769231  0.30769231  0.50000000       0.006
   0.38461538  0.30769231  0.50000000       0.012
   0.46153846  0.30769231  0.50000000       0.012
   0.38461538  0.38461538  0.50000000       0.006
   0.46153846  0.38461538  0.50000000       0.012
   0.46153846  0.46153846  0.50000000       0.006
 
 position of ions in fractional coordinates (direct lattice) 
   0.00000000  0.50000000  0.16664611
   0.00000000  0.50000000  0.49935123
   0.00000000  0.50000000  0.83399919
   0.50000000  0.50000000  0.00507236
   0.50000000  0.50000000  0.32823115
   0.50000000  0.50000000  0.66669956
   0.50000000  0.00000000  0.16664611
   0.50000000  0.00000000  0.49935123
   0.50000000  0.00000000  0.83399919
   0.00000000  0.00000000  0.99780296
   0.00000000  0.00000000  0.33551428
   0.00000000  0.00000000  0.66668665
 
 position of ions in cartesian coordinates  (Angst):
   0.00000000  1.83846966  1.86122635
   0.00000000  1.83846966  5.57712199
   0.00000000  1.83846966  9.31471677
   1.83846966  1.83846966  0.05665187
   1.83846966  1.83846966  3.66592702
   1.83846966  1.83846966  7.44619130
   1.83846966  0.00000000  1.86122635
   1.83846966  0.00000000  5.57712199
   1.83846966  0.00000000  9.31471677
   0.00000000  0.00000000 11.14419775
   0.00000000  0.00000000  3.74727038
   0.00000000  0.00000000  7.44604717
 


--------------------------------------------------------------------------------------------------------


 k-point     1 :   0.0000 0.0000 0.0000  plane waves:    4049
 k-point     2 :   0.0769 0.0000 0.0000  plane waves:    4051
 k-point     3 :   0.1538 0.0000 0.0000  plane waves:    4057
 k-point     4 :   0.2308 0.0000 0.0000  plane waves:    4048
 k-point     5 :   0.3077 0.0000 0.0000  plane waves:    4056
 k-point     6 :   0.3846 0.0000 0.0000  plane waves:    4070
 k-point     7 :   0.4615 0.0000 0.0000  plane waves:    4072
 k-point     8 :   0.0769 0.0769 0.0000  plane waves:    4061
 k-point     9 :   0.1538 0.0769 0.0000  plane waves:    4043
 k-point    10 :   0.2308 0.0769 0.0000  plane waves:    4052
 k-point    11 :   0.3077 0.0769 0.0000  plane waves:    4070
 k-point    12 :   0.3846 0.0769 0.0000  plane waves:    4072
 k-point    13 :   0.4615 0.0769 0.0000  plane waves:    4068
 k-point    14 :   0.1538 0.1538 0.0000  plane waves:    4059
 k-point    15 :   0.2308 0.1538 0.0000  plane waves:    4063
 k-point    16 :   0.3077 0.1538 0.0000  plane waves:    4062
 k-point    17 :   0.3846 0.1538 0.0000  plane waves:    4055
 k-point    18 :   0.4615 0.1538 0.0000  plane waves:    4054
 k-point    19 :   0.2308 0.2308 0.0000  plane waves:    4066
 k-point    20 :   0.3077 0.2308 0.0000  plane waves:    4067
 k-point    21 :   0.3846 0.2308 0.0000  plane waves:    4073
 k-point    22 :   0.4615 0.2308 0.0000  plane waves:    4079
 k-point    23 :   0.3077 0.3077 0.0000  plane waves:    4082
 k-point    24 :   0.3846 0.3077 0.0000  plane waves:    4084
 k-point    25 :   0.4615 0.3077 0.0000  plane waves:    4080
 k-point    26 :   0.3846 0.3846 0.0000  plane waves:    4090
 k-point    27 :   0.4615 0.3846 0.0000  plane waves:    4068
 k-point    28 :   0.4615 0.4615 0.0000  plane waves:    4092
 k-point    29 :   0.0000 0.0000 0.2500  plane waves:    4078
 k-point    30 :   0.0769 0.0000 0.2500  plane waves:    4071
 k-point    31 :   0.1538 0.0000 0.2500  plane waves:    4049
 k-point    32 :   0.2308 0.0000 0.2500  plane waves:    4054
 k-point    33 :   0.3077 0.0000 0.2500  plane waves:    4052
 k-point    34 :   0.3846 0.0000 0.2500  plane waves:    4065
 k-point    35 :   0.4615 0.0000 0.2500  plane waves:    4066
 k-point    36 :   0.0769 0.0769 0.2500  plane waves:    4068
 k-point    37 :   0.1538 0.0769 0.2500  plane waves:    4056
 k-point    38 :   0.2308 0.0769 0.2500  plane waves:    4052
 k-point    39 :   0.3077 0.0769 0.2500  plane waves:    4063
 k-point    40 :   0.3846 0.0769 0.2500  plane waves:    4063
 k-point    41 :   0.4615 0.0769 0.2500  plane waves:    4063
 k-point    42 :   0.1538 0.1538 0.2500  plane waves:    4043
 k-point    43 :   0.2308 0.1538 0.2500  plane waves:    4059
 k-point    44 :   0.3077 0.1538 0.2500  plane waves:    4058
 k-point    45 :   0.3846 0.1538 0.2500  plane waves:    4067
 k-point    46 :   0.4615 0.1538 0.2500  plane waves:    4060
 k-point    47 :   0.2308 0.2308 0.2500  plane waves:    4066
 k-point    48 :   0.3077 0.2308 0.2500  plane waves:    4075
 k-point    49 :   0.3846 0.2308 0.2500  plane waves:    4067
 k-point    50 :   0.4615 0.2308 0.2500  plane waves:    4071
 k-point    51 :   0.3077 0.3077 0.2500  plane waves:    4063
 k-point    52 :   0.3846 0.3077 0.2500  plane waves:    4078
 k-point    53 :   0.4615 0.3077 0.2500  plane waves:    4074
 k-point    54 :   0.3846 0.3846 0.2500  plane waves:    4077
 k-point    55 :   0.4615 0.3846 0.2500  plane waves:    4080
 k-point    56 :   0.4615 0.4615 0.2500  plane waves:    4079
 k-point    57 :   0.0000 0.0000 0.5000  plane waves:    4090
 k-point    58 :   0.0769 0.0000 0.5000  plane waves:    4098
 k-point    59 :   0.1538 0.0000 0.5000  plane waves:    4054
 k-point    60 :   0.2308 0.0000 0.5000  plane waves:    4062
 k-point    61 :   0.3077 0.0000 0.5000  plane waves:    4068
 k-point    62 :   0.3846 0.0000 0.5000  plane waves:    4060
 k-point    63 :   0.4615 0.0000 0.5000  plane waves:    4058
 k-point    64 :   0.0769 0.0769 0.5000  plane waves:    4074
 k-point    65 :   0.1538 0.0769 0.5000  plane waves:    4056
 k-point    66 :   0.2308 0.0769 0.5000  plane waves:    4062
 k-point    67 :   0.3077 0.0769 0.5000  plane waves:    4062
 k-point    68 :   0.3846 0.0769 0.5000  plane waves:    4048
 k-point    69 :   0.4615 0.0769 0.5000  plane waves:    4050
 k-point    70 :   0.1538 0.1538 0.5000  plane waves:    4052
 k-point    71 :   0.2308 0.1538 0.5000  plane waves:    4048
 k-point    72 :   0.3077 0.1538 0.5000  plane waves:    4062
 k-point    73 :   0.3846 0.1538 0.5000  plane waves:    4070
 k-point    74 :   0.4615 0.1538 0.5000  plane waves:    4070
 k-point    75 :   0.2308 0.2308 0.5000  plane waves:    4054
 k-point    76 :   0.3077 0.2308 0.5000  plane waves:    4064
 k-point    77 :   0.3846 0.2308 0.5000  plane waves:    4072
 k-point    78 :   0.4615 0.2308 0.5000  plane waves:    4076
 k-point    79 :   0.3077 0.3077 0.5000  plane waves:    4060
 k-point    80 :   0.3846 0.3077 0.5000  plane waves:    4066
 k-point    81 :   0.4615 0.3077 0.5000  plane waves:    4078
 k-point    82 :   0.3846 0.3846 0.5000  plane waves:    4098
 k-point    83 :   0.4615 0.3846 0.5000  plane waves:    4080
 k-point    84 :   0.4615 0.4615 0.5000  plane waves:    4086

 maximum and minimum number of plane-waves per node :      4098     4043

 maximum number of plane-waves:      4098
 maximum index in each direction: 
   IXMAX=    6   IYMAX=    6   IZMAX=   20
   IXMIN=   -7   IYMIN=   -7   IZMIN=  -21


 serial   3D FFT for wavefunctions
 parallel 3D FFT for charge:
    minimum data exchange during FFTs selected (reduces bandwidth)


 total amount of memory used by VASP MPI-rank0   173825. kBytes
=======================================================================

   base      :      30000. kBytes
   nonl-proj :     100657. kBytes
   fftplans  :        888. kBytes
   grid      :       6813. kBytes
   one-center:        373. kBytes
   wavefun   :      35094. kBytes
 
     INWAV:  cpu time      0.0000: real time      0.0000
 Broyden mixing: mesh for mixing (old mesh)
   NGX = 13   NGY = 13   NGZ = 41
  (NGX  = 56   NGY  = 56   NGZ  =168)
  gives a total of   6929 points

 initial charge density was supplied:
 charge density of overlapping atoms calculated
 number of electron     156.0000000 magnetization       2.4480000
 keeping initial charge density in first step


--------------------------------------------------------------------------------------------------------


 Maximum index for augmentation-charges         1052 (set IRDMAX)


--------------------------------------------------------------------------------------------------------


 First call to EWALD:  gamma=   0.333
 Maximum number of real-space cells 4x 4x 2
 Maximum number of reciprocal cells 2x 2x 5

    FEWALD:  cpu time      0.0029: real time      0.0029


--------------------------------------- Ionic step        1  -------------------------------------------




--------------------------------------- Iteration      1(   1)  ---------------------------------------


    POTLOK:  cpu time      0.0258: real time      0.0751
    SETDIJ:  cpu time      0.0092: real time      0.0096
     EDDAV:  cpu time      4.3773: real time      4.4120
 BZINTS: Fermi energy:   24.855096;  156.000000 electrons
         Band energy: 0.552895E+03;  BLOECHL correction:   -0.092147
       DOS:  cpu time      0.1020: real time      0.1030
    --------------------------------------------
      LOOP:  cpu time      4.5146: real time      4.6000

 eigenvalue-minimisations  : 32256
 total energy-change (2. order) : 0.1736127E+04  (-0.9163052E+04)
 number of electron     156.0000000 magnetization       2.4480000
 augmentation part      156.0000000 magnetization       2.4480000

 Free energy of the ion-electron system (eV)
  ---------------------------------------------------
  alpha Z        PSCENC =      1127.08695075
  Ewald energy   TEWEN  =    -18285.74066464
  -Hartree energ DENC   =     -5895.97318826
  -exchange      EXHF   =         0.00000000
  -V(xc)+E(xc)   XCENC  =       657.75933703
  PAW double counting   =     20094.78800429   -20818.79106761
  entropy T*S    EENTRO =         0.00000000
  eigenvalues    EBANDS =       552.89470436
  atomic energy  EATOM  =     24304.10294433
  Solvation  Ediel_sol  =         0.00000000
  ---------------------------------------------------
  free energy    TOTEN  =      1736.12702024 eV

  energy without entropy =     1736.12702024  energy(sigma->0) =     1736.12702024


--------------------------------------------------------------------------------------------------------




--------------------------------------- Iteration      1(   2)  ---------------------------------------


     EDDAV:  cpu time      4.3794: real time      4.4241
 BZINTS: Fermi energy:   13.043065;  156.000000 electrons
         Band energy:-0.117514E+04;  BLOECHL correction:   -0.053545
       DOS:  cpu time      0.1014: real time      0.1021
    --------------------------------------------
      LOOP:  cpu time      4.4806: real time      4.5259

 eigenvalue-minimisations  : 32512
 total energy-change (2. order) :-0.1728030E+04  (-0.1697422E+04)
 number of electron     156.0000000 magnetization       2.4480000
 augmentation part      156.0000000 magnetization       2.4480000

 Free energy of the ion-electron system (eV)
  ---------------------------------------------------
  alpha Z        PSCENC =      1127.08695075
  Ewald energy   TEWEN  =    -18285.74066464
  -Hartree energ DENC   =     -5895.97318826
  -exchange      EXHF   =         0.00000000
  -V(xc)+E(xc)   XCENC  =       657.75933703
  PAW double counting   =     20094.78800429   -20818.79106761
  entropy T*S    EENTRO =         0.00000000
  eigenvalues    EBANDS =     -1175.13548031
  atomic energy  EATOM  =     24304.10294433
  Solvation  Ediel_sol  =         0.00000000
  ---------------------------------------------------
  free energy    TOTEN  =         8.09683557 eV

  energy without entropy =        8.09683557  energy(sigma->0) =        8.09683557


--------------------------------------------------------------------------------------------------------




--------------------------------------- Iteration      1(   3)  ---------------------------------------


     EDDAV:  cpu time      5.3171: real time      5.3549
 BZINTS: Fermi energy:   12.141703;  156.000000 electrons
         Band energy:-0.128606E+04;  BLOECHL correction:   -0.029989
       DOS:  cpu time      0.1008: real time      0.1017
    --------------------------------------------
      LOOP:  cpu time      5.4179: real time      5.4566

 eigenvalue-minimisations  : 39744
 total energy-change (2. order) :-0.1109288E+03  (-0.1097754E+03)
 number of electron     156.0000000 magnetization       2.4480000
 augmentation part      156.0000000 magnetization       2.4480000

 Free energy of the ion-electron system (eV)
  ---------------------------------------------------
  alpha Z        PSCENC =      1127.08695075
  Ewald energy   TEWEN  =    -18285.74066464
  -Hartree energ DENC   =     -5895.97318826
  -exchange      EXHF   =         0.00000000
  -V(xc)+E(xc)   XCENC  =       657.75933703
  PAW double counting   =     20094.78800429   -20818.79106761
  entropy T*S    EENTRO =         0.00000000
  eigenvalues    EBANDS =     -1286.06427473
  atomic energy  EATOM  =     24304.10294433
  Solvation  Ediel_sol  =         0.00000000
  ---------------------------------------------------
  free energy    TOTEN  =      -102.83195885 eV

  energy without entropy =     -102.83195885  energy(sigma->0) =     -102.83195885


--------------------------------------------------------------------------------------------------------




--------------------------------------- Iteration      1(   4)  ---------------------------------------


     EDDAV:  cpu time      4.5334: real time      4.5643
 BZINTS: Fermi energy:   12.128482;  156.000000 electrons
         Band energy:-0.128841E+04;  BLOECHL correction:   -0.028424
       DOS:  cpu time      0.1000: real time      0.1007
    --------------------------------------------
      LOOP:  cpu time      4.6334: real time      4.6650

 eigenvalue-minimisations  : 33024
 total energy-change (2. order) :-0.2345604E+01  (-0.2342999E+01)
 number of electron     156.0000000 magnetization       2.4480000
 augmentation part      156.0000000 magnetization       2.4480000

 Free energy of the ion-electron system (eV)
  ---------------------------------------------------
  alpha Z        PSCENC =      1127.08695075
  Ewald energy   TEWEN  =    -18285.74066464
  -Hartree energ DENC   =     -5895.97318826
  -exchange      EXHF   =         0.00000000
  -V(xc)+E(xc)   XCENC  =       657.75933703
  PAW double counting   =     20094.78800429   -20818.79106761
  entropy T*S    EENTRO =         0.00000000
  eigenvalues    EBANDS =     -1288.40987911
  atomic energy  EATOM  =     24304.10294433
  Solvation  Ediel_sol  =         0.00000000
  ---------------------------------------------------
  free energy    TOTEN  =      -105.17756323 eV

  energy without entropy =     -105.17756323  energy(sigma->0) =     -105.17756323


--------------------------------------------------------------------------------------------------------




--------------------------------------- Iteration      1(   5)  ---------------------------------------


     EDDAV:  cpu time      5.6779: real time      5.7155
 BZINTS: Fermi energy:   12.128215;  156.000000 electrons
         Band energy:-0.128846E+04;  BLOECHL correction:   -0.028375
       DOS:  cpu time      0.1007: real time      0.1014
    CHARGE:  cpu time      0.1550: real time      0.1567
    MIXING:  cpu time      0.0060: real time      0.0065
    --------------------------------------------
      LOOP:  cpu time      5.9396: real time      5.9801

 eigenvalue-minimisations  : 40896
 total energy-change (2. order) :-0.5299191E-01  (-0.5302398E-01)
 number of electron     156.0000180 magnetization       2.3164995
 augmentation part       79.2446843 magnetization       1.7164262

 Broyden mixing:
  rms(total) = 0.39681E+01    rms(broyden)= 0.39674E+01
  rms(prec ) = 0.44536E+01
  weight for this iteration     100.00

 Free energy of the ion-electron system (eV)
  ---------------------------------------------------
  alpha Z        PSCENC =      1127.08695075
  Ewald energy   TEWEN  =    -18285.74066464
  -Hartree energ DENC   =     -5895.97318826
  -exchange      EXHF   =         0.00000000
  -V(xc)+E(xc)   XCENC  =       657.75933703
  PAW double counting   =     20094.78800429   -20818.79106761
  entropy T*S    EENTRO =         0.00000000
  eigenvalues    EBANDS =     -1288.46287102
  atomic energy  EATOM  =     24304.10294433
  Solvation  Ediel_sol  =         0.00000000
  ---------------------------------------------------
  free energy    TOTEN  =      -105.23055514 eV

  energy without entropy =     -105.23055514  energy(sigma->0) =     -105.23055514


--------------------------------------------------------------------------------------------------------




--------------------------------------- Iteration      1(   6)  ---------------------------------------


    POTLOK:  cpu time      0.0442: real time      0.0451
    SETDIJ:  cpu time      0.0076: real time      0.0077
     EDDAV:  cpu time      5.0857: real time      5.1178
 BZINTS: Fermi energy:    9.427269;  156.000000 electrons
         Band energy:-0.170775E+04;  BLOECHL correction:   -0.027832
       DOS:  cpu time      0.1074: real time      0.1081
    CHARGE:  cpu time      0.1475: real time      0.1487
    MIXING:  cpu time      0.0032: real time      0.0042
    --------------------------------------------
      LOOP:  cpu time      5.3956: real time      5.4315

 eigenvalue-minimisations  : 36928
 total energy-change (2. order) :-0.2810339E+01  (-0.2139696E+02)
 number of electron     156.0000201 magnetization       2.3796194
 augmentation part       88.2328759 magnetization       1.8497204

 Broyden mixing:
  rms(total) = 0.59165E+01    rms(broyden)= 0.59163E+01
  rms(prec ) = 0.78321E+01
  weight for this iteration     100.00

 eigenvalues of (default mixing * dielectric matrix)
  average eigenvalue GAMMA=   0.2742
  0.2742

 Free energy of the ion-electron system (eV)
  ---------------------------------------------------
  alpha Z        PSCENC =      1127.08695075
  Ewald energy   TEWEN  =    -18285.74066464
  -Hartree energ DENC   =     -5484.80136169
  -exchange      EXHF   =         0.00000000
  -V(xc)+E(xc)   XCENC  =       640.05189799
  PAW double counting   =     20532.31252934   -21233.30357036
  entropy T*S    EENTRO =         0.00000000
  eigenvalues    EBANDS =     -1707.74962037
  atomic energy  EATOM  =     24304.10294433
  Solvation  Ediel_sol  =         0.00000000
  ---------------------------------------------------
  free energy    TOTEN  =      -108.04089464 eV

  energy without entropy =     -108.04089464  energy(sigma->0) =     -108.04089464


--------------------------------------------------------------------------------------------------------




--------------------------------------- Iteration      1(   7)  ---------------------------------------


    POTLOK:  cpu time      0.0305: real time      0.0443
    SETDIJ:  cpu time      0.0085: real time      0.0085
     EDDAV:  cpu time      5.9002: real time      5.9362
 BZINTS: Fermi energy:   10.397644;  156.000000 electrons
         Band energy:-0.160583E+04;  BLOECHL correction:   -0.034963
       DOS:  cpu time      0.1071: real time      0.1078
    CHARGE:  cpu time      0.1495: real time      0.1505
    MIXING:  cpu time      0.0031: real time      0.0032
    --------------------------------------------
      LOOP:  cpu time      6.1989: real time      6.2506

 eigenvalue-minimisations  : 43200
 total energy-change (2. order) :-0.6079973E+01  (-0.4658464E+02)
 number of electron     156.0000197 magnetization       2.6375275
 augmentation part       85.3862564 magnetization       1.6717520

 Broyden mixing:
  rms(total) = 0.61059E+01    rms(broyden)= 0.61055E+01
  rms(prec ) = 0.82729E+01
  weight for this iteration     100.00

 eigenvalues of (default mixing * dielectric matrix)
  average eigenvalue GAMMA=   0.3666
  0.5878  0.1455

 Free energy of the ion-electron system (eV)
  ---------------------------------------------------
  alpha Z        PSCENC =      1127.08695075
  Ewald energy   TEWEN  =    -18285.74066464
  -Hartree energ DENC   =     -5576.22814366
  -exchange      EXHF   =         0.00000000
  -V(xc)+E(xc)   XCENC  =       642.70423548
  PAW double counting   =     20916.90606806   -21637.12523533
  entropy T*S    EENTRO =         0.00000000
  eigenvalues    EBANDS =     -1605.82702254
  atomic energy  EATOM  =     24304.10294433
  Solvation  Ediel_sol  =         0.00000000
  ---------------------------------------------------
  free energy    TOTEN  =      -114.12086754 eV

  energy without entropy =     -114.12086754  energy(sigma->0) =     -114.12086754


--------------------------------------------------------------------------------------------------------




--------------------------------------- Iteration      1(   8)  ---------------------------------------


    POTLOK:  cpu time      0.0434: real time      0.0443
    SETDIJ:  cpu time      0.0078: real time      0.0079
     EDDAV:  cpu time      5.9547: real time      5.9931
 BZINTS: Fermi energy:   10.727229;  156.000000 electrons
         Band energy:-0.150735E+04;  BLOECHL correction:   -0.025927
       DOS:  cpu time      0.1077: real time      0.1085
    CHARGE:  cpu time      0.1480: real time      0.1488
    MIXING:  cpu time      0.0017: real time      0.0018
    --------------------------------------------
      LOOP:  cpu time      6.2634: real time      6.3043

 eigenvalue-minimisations  : 43808
 total energy-change (2. order) : 0.1823997E+02  (-0.8030020E+01)
 number of electron     156.0000189 magnetization       2.6792676
 augmentation part       83.5953278 magnetization       2.5521854

 Broyden mixing:
  rms(total) = 0.25562E+01    rms(broyden)= 0.25556E+01
  rms(prec ) = 0.34192E+01
  weight for this iteration     100.00

 eigenvalues of (default mixing * dielectric matrix)
  average eigenvalue GAMMA=   0.4981
  1.0248  0.3279  0.1417

 Free energy of the ion-electron system (eV)
  ---------------------------------------------------
  alpha Z        PSCENC =      1127.08695075
  Ewald energy   TEWEN  =    -18285.74066464
  -Hartree energ DENC   =     -5638.54696834
  -exchange      EXHF   =         0.00000000
  -V(xc)+E(xc)   XCENC  =       644.57075943
  PAW double counting   =     21396.96347480   -22136.96599814
  entropy T*S    EENTRO =         0.00000000
  eigenvalues    EBANDS =     -1507.35139927
  atomic energy  EATOM  =     24304.10294433
  Solvation  Ediel_sol  =         0.00000000
  ---------------------------------------------------
  free energy    TOTEN  =       -95.88090109 eV

  energy without entropy =      -95.88090109  energy(sigma->0) =      -95.88090109


--------------------------------------------------------------------------------------------------------




--------------------------------------- Iteration      1(   9)  ---------------------------------------


    POTLOK:  cpu time      0.0440: real time      0.0449
    SETDIJ:  cpu time      0.0082: real time      0.0082
     EDDAV:  cpu time      6.0314: real time      6.0700
 BZINTS: Fermi energy:   10.674360;  156.000000 electrons
         Band energy:-0.154022E+04;  BLOECHL correction:   -0.022516
       DOS:  cpu time      0.1077: real time      0.1084
    CHARGE:  cpu time      0.1483: real time      0.1493
    MIXING:  cpu time      0.0018: real time      0.0018
    --------------------------------------------
      LOOP:  cpu time      6.3412: real time      6.3827

 eigenvalue-minimisations  : 43904
 total energy-change (2. order) :-0.9421128E+01  (-0.1768179E+02)
 number of electron     156.0000191 magnetization       2.8532732
 augmentation part       84.1994179 magnetization       1.2223446

 Broyden mixing:
  rms(total) = 0.51455E+01    rms(broyden)= 0.51451E+01
  rms(prec ) = 0.75056E+01
  weight for this iteration     100.00

 eigenvalues of (default mixing * dielectric matrix)
  average eigenvalue GAMMA=   0.4769
  1.2801  0.3760  0.1408  0.1106

 Free energy of the ion-electron system (eV)
  ---------------------------------------------------
  alpha Z        PSCENC =      1127.08695075
  Ewald energy   TEWEN  =    -18285.74066464
  -Hartree energ DENC   =     -5608.93347131
  -exchange      EXHF   =         0.00000000
  -V(xc)+E(xc)   XCENC  =       643.63051184
  PAW double counting   =     21645.24748682   -22390.47178484
  entropy T*S    EENTRO =         0.00000000
  eigenvalues    EBANDS =     -1540.22400224
  atomic energy  EATOM  =     24304.10294433
  Solvation  Ediel_sol  =         0.00000000
  ---------------------------------------------------
  free energy    TOTEN  =      -105.30202929 eV

  energy without entropy =     -105.30202929  energy(sigma->0) =     -105.30202929


--------------------------------------------------------------------------------------------------------




--------------------------------------- Iteration      1(  10)  ---------------------------------------


    POTLOK:  cpu time      0.0436: real time      0.0445
    SETDIJ:  cpu time      0.0074: real time      0.0074
     EDDAV:  cpu time      6.2642: real time      6.3036
 BZINTS: Fermi energy:   10.243652;  156.000000 electrons
         Band energy:-0.155670E+04;  BLOECHL correction:   -0.024973
       DOS:  cpu time      0.1069: real time      0.1084
    CHARGE:  cpu time      0.2448: real time      0.2461
    MIXING:  cpu time      0.0020: real time      0.0025
    --------------------------------------------
      LOOP:  cpu time      6.6688: real time      6.7125

 eigenvalue-minimisations  : 45088
 total energy-change (2. order) : 0.1219964E+02  (-0.5773149E+01)
 number of electron     156.0000190 magnetization       2.8762480
 augmentation part       84.5605268 magnetization       2.3214533

 Broyden mixing:
  rms(total) = 0.16876E+01    rms(broyden)= 0.16871E+01
  rms(prec ) = 0.21535E+01
  weight for this iteration     100.00

 eigenvalues of (default mixing * dielectric matrix)
  average eigenvalue GAMMA=   0.4211
  1.2784  0.3269  0.2292  0.1593  0.1116

 Free energy of the ion-electron system (eV)
  ---------------------------------------------------
  alpha Z        PSCENC =      1127.08695075
  Ewald energy   TEWEN  =    -18285.74066464
  -Hartree energ DENC   =     -5576.21582946
  -exchange      EXHF   =         0.00000000
  -V(xc)+E(xc)   XCENC  =       642.29790569
  PAW double counting   =     21821.76108766   -22569.69057148
  entropy T*S    EENTRO =         0.00000000
  eigenvalues    EBANDS =     -1556.70421019
  atomic energy  EATOM  =     24304.10294433
  Solvation  Ediel_sol  =         0.00000000
  ---------------------------------------------------
  free energy    TOTEN  =       -93.10238734 eV

  energy without entropy =      -93.10238734  energy(sigma->0) =      -93.10238734


--------------------------------------------------------------------------------------------------------




--------------------------------------- Iteration      1(  11)  ---------------------------------------


    POTLOK:  cpu time      0.0428: real time      0.0437
    SETDIJ:  cpu time      0.0077: real time      0.0077
     EDDAV:  cpu time      5.9450: real time      5.9826
 BZINTS: Fermi energy:   10.215463;  156.000000 electrons
         Band energy:-0.156058E+04;  BLOECHL correction:   -0.024142
       DOS:  cpu time      0.1071: real time      0.1078
    CHARGE:  cpu time      0.1481: real time      0.1491
    MIXING:  cpu time      0.0019: real time      0.0019
    --------------------------------------------
      LOOP:  cpu time      6.2526: real time      6.2929

 eigenvalue-minimisations  : 43200
 total energy-change (2. order) :-0.2094163E+00  (-0.1864590E+01)
 number of electron     156.0000191 magnetization       2.9116345
 augmentation part       84.6690197 magnetization       2.0538190

 Broyden mixing:
  rms(total) = 0.14171E+01    rms(broyden)= 0.14168E+01
  rms(prec ) = 0.22726E+01
  weight for this iteration     100.00

 eigenvalues of (default mixing * dielectric matrix)
  average eigenvalue GAMMA=   0.3786
  1.2533  0.3172  0.3172  0.1391  0.1391  0.1057

 Free energy of the ion-electron system (eV)
  ---------------------------------------------------
  alpha Z        PSCENC =      1127.08695075
  Ewald energy   TEWEN  =    -18285.74066464
  -Hartree energ DENC   =     -5571.47039671
  -exchange      EXHF   =         0.00000000
  -V(xc)+E(xc)   XCENC  =       642.32078543
  PAW double counting   =     21861.88017335   -22610.90667392
  entropy T*S    EENTRO =         0.00000000
  eigenvalues    EBANDS =     -1560.58492227
  atomic energy  EATOM  =     24304.10294433
  Solvation  Ediel_sol  =         0.00000000
  ---------------------------------------------------
  free energy    TOTEN  =       -93.31180367 eV

  energy without entropy =      -93.31180367  energy(sigma->0) =      -93.31180367


--------------------------------------------------------------------------------------------------------




--------------------------------------- Iteration      1(  12)  ---------------------------------------


    POTLOK:  cpu time      0.0446: real time      0.0456
    SETDIJ:  cpu time      0.0080: real time      0.0080
     EDDAV:  cpu time      6.0194: real time      6.0602
 BZINTS: Fermi energy:   10.224890;  156.000000 electrons
         Band energy:-0.156090E+04;  BLOECHL correction:   -0.026769
       DOS:  cpu time      0.1071: real time      0.1078
    CHARGE:  cpu time      0.1486: real time      0.1493
    MIXING:  cpu time      0.0019: real time      0.0020
    --------------------------------------------
      LOOP:  cpu time      6.3297: real time      6.3730

 eigenvalue-minimisations  : 43936
 total energy-change (2. order) : 0.1665581E+00  (-0.9940463E+00)
 number of electron     156.0000190 magnetization       2.9194604
 augmentation part       84.6315492 magnetization       2.2724410

 Broyden mixing:
  rms(total) = 0.10284E+01    rms(broyden)= 0.10282E+01
  rms(prec ) = 0.14446E+01
  weight for this iteration     100.00

 eigenvalues of (default mixing * dielectric matrix)
  average eigenvalue GAMMA=   0.3471
  1.2483  0.2718  0.2718  0.2618  0.1621  0.1230  0.0907

 Free energy of the ion-electron system (eV)
  ---------------------------------------------------
  alpha Z        PSCENC =      1127.08695075
  Ewald energy   TEWEN  =    -18285.74066464
  -Hartree energ DENC   =     -5570.12929643
  -exchange      EXHF   =         0.00000000
  -V(xc)+E(xc)   XCENC  =       642.66091190
  PAW double counting   =     21893.48665095   -22643.70993576
  entropy T*S    EENTRO =         0.00000000
  eigenvalues    EBANDS =     -1560.90280663
  atomic energy  EATOM  =     24304.10294433
  Solvation  Ediel_sol  =         0.00000000
  ---------------------------------------------------
  free energy    TOTEN  =       -93.14524553 eV

  energy without entropy =      -93.14524553  energy(sigma->0) =      -93.14524553


--------------------------------------------------------------------------------------------------------




--------------------------------------- Iteration      1(  13)  ---------------------------------------


    POTLOK:  cpu time      0.0434: real time      0.0444
    SETDIJ:  cpu time      0.0083: real time      0.0084
     EDDAV:  cpu time      5.9718: real time      6.0093
 BZINTS: Fermi energy:   10.234037;  156.000000 electrons
         Band energy:-0.156103E+04;  BLOECHL correction:   -0.027228
       DOS:  cpu time      0.1076: real time      0.1083
    CHARGE:  cpu time      0.1473: real time      0.1481
    MIXING:  cpu time      0.0019: real time      0.0019
    --------------------------------------------
      LOOP:  cpu time      6.2804: real time      6.3204

 eigenvalue-minimisations  : 44032
 total energy-change (2. order) : 0.8025765E-01  (-0.2622408E+00)
 number of electron     156.0000190 magnetization       2.8935385
 augmentation part       84.6226198 magnetization       2.3676555

 Broyden mixing:
  rms(total) = 0.84265E+00    rms(broyden)= 0.84260E+00
  rms(prec ) = 0.96501E+00
  weight for this iteration     100.00

 eigenvalues of (default mixing * dielectric matrix)
  average eigenvalue GAMMA=   0.3965
  1.2564  0.5428  0.5428  0.3491  0.1484  0.1418  0.0990  0.0920

 Free energy of the ion-electron system (eV)
  ---------------------------------------------------
  alpha Z        PSCENC =      1127.08695075
  Ewald energy   TEWEN  =    -18285.74066464
  -Hartree energ DENC   =     -5569.56774022
  -exchange      EXHF   =         0.00000000
  -V(xc)+E(xc)   XCENC  =       642.79247371
  PAW double counting   =     21908.18662851   -22658.89357814
  entropy T*S    EENTRO =         0.00000000
  eigenvalues    EBANDS =     -1561.03200218
  atomic energy  EATOM  =     24304.10294433
  Solvation  Ediel_sol  =         0.00000000
  ---------------------------------------------------
  free energy    TOTEN  =       -93.06498788 eV

  energy without entropy =      -93.06498788  energy(sigma->0) =      -93.06498788


--------------------------------------------------------------------------------------------------------




--------------------------------------- Iteration      1(  14)  ---------------------------------------


    POTLOK:  cpu time      0.0323: real time      0.0454
    SETDIJ:  cpu time      0.0080: real time      0.0080
     EDDAV:  cpu time      5.7795: real time      5.8216
[...]
     81      10.5703      0.00000
     82      10.6313      0.00000
     83      10.8089      0.00000
     84      10.9697      0.00000
     85      11.0527      0.00000
     86      11.2216      0.00000
     87      11.2548      0.00000
     88      11.4033      0.00000
     89      11.6829      0.00000
     90      11.8032      0.00000
     91      11.8313      0.00000
     92      11.9277      0.00000
     93      12.0100      0.00000
     94      12.4575      0.00000
     95      12.5636      0.00000
     96      12.7171      0.00000


--------------------------------------------------------------------------------------------------------


 soft charge-density along one line, spin component           1
         0         1         2         3         4         5         6         7         8         9
 total charge-density along one line
 
 soft charge-density along one line, spin component           2
         0         1         2         3         4         5         6         7         8         9
 total charge-density along one line
 
 pseudopotential strength for first ion, spin component:           1
-42.471   0.000   0.000   6.562  -0.000  -0.000  -0.000   0.000
  0.000 -42.466  -0.000  -0.000   6.559   0.000  -0.000   0.000
  0.000  -0.000 -42.408  -0.000   0.000   6.535  -0.000  -0.000
  6.562  -0.000  -0.000   5.919  -0.000  -0.000   0.000  -0.000
 -0.000   6.559   0.000  -0.000   5.920   0.000   0.000  -0.000
 -0.000   0.000   6.535  -0.000   0.000   5.926   0.000   0.000
 -0.000  -0.000  -0.000   0.000   0.000   0.000  -0.069  -0.000
  0.000   0.000  -0.000  -0.000  -0.000   0.000  -0.000  -0.046
  0.000   0.000   0.000  -0.000  -0.000  -0.000  -0.000   0.000
 -0.000  -0.000   0.000   0.000   0.000  -0.000   0.000   0.000
  0.000  -0.000  -0.000  -0.000   0.000   0.000   0.000  -0.000
 -0.000  -0.000  -0.000  -0.000   0.000   0.000  -0.616  -0.000
  0.000   0.000  -0.000  -0.000  -0.000   0.000  -0.000  -0.592
  0.000   0.000   0.000  -0.000  -0.000  -0.000  -0.000   0.000
 -0.000  -0.000   0.000   0.000   0.000  -0.000   0.000   0.000
  0.000  -0.000  -0.000  -0.000   0.000   0.000   0.000  -0.000
  0.000  -0.000   0.000   0.000  -0.000   0.000  -0.000  -0.000
  0.000  -0.000   0.000   0.000  -0.000   0.000  -0.000  -0.000
 pseudopotential strength for first ion, spin component:           2
-44.643   0.000   0.000   7.477  -0.000  -0.000  -0.000   0.000
  0.000 -44.624  -0.000  -0.000   7.469   0.000   0.000   0.000
  0.000  -0.000 -44.482  -0.000   0.000   7.412  -0.000   0.000
  7.477  -0.000  -0.000   5.665  -0.000  -0.000   0.000  -0.000
 -0.000   7.469   0.000  -0.000   5.667   0.000  -0.000  -0.000
 -0.000   0.000   7.412  -0.000   0.000   5.678   0.000  -0.000
 -0.000   0.000  -0.000   0.000  -0.000   0.000  -1.744  -0.000
  0.000   0.000   0.000  -0.000  -0.000  -0.000  -0.000  -1.908
  0.000   0.000   0.000  -0.000  -0.000  -0.000  -0.000   0.000
  0.000  -0.000   0.000  -0.000   0.000  -0.000   0.000   0.000
 -0.000  -0.000  -0.000  -0.000   0.000   0.000   0.000  -0.000
 -0.000   0.000  -0.000   0.000  -0.000   0.000  -2.263  -0.000
  0.000   0.000   0.000  -0.000  -0.000  -0.000  -0.000  -2.424
  0.000   0.000   0.000  -0.000  -0.000  -0.000  -0.000   0.000
  0.000  -0.000   0.000  -0.000   0.000  -0.000   0.000   0.000
 -0.000  -0.000  -0.000  -0.000   0.000   0.000   0.000  -0.000
  0.000  -0.000   0.000   0.000   0.000   0.000  -0.000  -0.000
  0.000  -0.000   0.000   0.000  -0.000  -0.000  -0.000  -0.000
 total augmentation occupancy for first ion, spin component:           1
  1.992   0.000   0.000  -0.026   0.000   0.000   0.000   0.000  -0.000   0.000   0.000   0.000  -0.000   0.000   0.000   0.000
  0.000   1.992   0.000   0.000  -0.025   0.000   0.000   0.000  -0.000   0.000  -0.000   0.000   0.000   0.000  -0.000   0.000
  0.000   0.000   1.992   0.000   0.000  -0.025  -0.000   0.000   0.000   0.000  -0.000   0.000  -0.000   0.000  -0.000   0.000
 -0.026   0.000   0.000   0.183   0.000   0.000   0.000   0.000   0.000   0.000   0.000   0.000  -0.000   0.000   0.000   0.000
  0.000  -0.025   0.000   0.000   0.186   0.000   0.000   0.000  -0.000   0.000   0.000   0.000   0.000  -0.000   0.000   0.000
  0.000   0.000  -0.025   0.000   0.000   0.179   0.000  -0.000  -0.000   0.000   0.000   0.000  -0.000   0.000  -0.000  -0.000
  0.000   0.000  -0.000   0.000   0.000   0.000   2.692  -0.000   0.000   0.000   0.000  -1.533   0.000   0.000   0.000  -0.000
  0.000   0.000   0.000   0.000   0.000  -0.000  -0.000   3.078   0.000   0.000   0.000   0.000  -2.168   0.000   0.000   0.000
 -0.000  -0.000   0.000   0.000  -0.000  -0.000   0.000   0.000   3.310   0.000   0.177   0.000  -0.000  -1.959   0.000  -0.050
  0.000   0.000   0.000   0.000   0.000   0.000   0.000   0.000   0.000   2.767   0.000   0.000   0.000  -0.000  -1.583   0.000
  0.000  -0.000  -0.000   0.000   0.000   0.000   0.000   0.000   0.177   0.000   3.183   0.000   0.000  -0.051  -0.000  -1.907
  0.000   0.000   0.000   0.000   0.000   0.000  -1.533   0.000   0.000   0.000   0.000   1.776   0.000   0.000   0.000   0.000
 -0.000   0.000  -0.000  -0.000   0.000  -0.000   0.000  -2.168  -0.000   0.000   0.000   0.000   2.480   0.000   0.000   0.000
  0.000   0.000   0.000   0.000  -0.000   0.000   0.000   0.000  -1.959  -0.000  -0.051   0.000   0.000   1.912   0.000  -0.026
  0.000  -0.000  -0.000   0.000   0.000  -0.000   0.000   0.000   0.000  -1.583  -0.000   0.000   0.000   0.000   1.856   0.000
  0.000   0.000   0.000   0.000   0.000  -0.000  -0.000   0.000  -0.050   0.000  -1.907   0.000   0.000  -0.026   0.000   1.916
  0.000  -0.000   0.000   0.000  -0.000   0.000   0.000   0.000  -0.081   0.000   0.135   0.000   0.000   0.064   0.000  -0.068
  0.000   0.000   0.000   0.000   0.000   0.000   0.000   0.000   0.009  -0.000  -0.015   0.000   0.000  -0.006   0.000   0.008
 total augmentation occupancy for first ion, spin component:           2
  0.002   0.000   0.000   0.008   0.000   0.000   0.000   0.000   0.000  -0.000  -0.000  -0.000  -0.000   0.000   0.000  -0.000
  0.000   0.002   0.000   0.000   0.008   0.000   0.000   0.000   0.000  -0.000  -0.000   0.000  -0.000  -0.000   0.000   0.000
  0.000   0.000   0.002   0.000   0.000   0.009  -0.000   0.000  -0.000   0.000   0.000   0.000   0.000   0.000  -0.000   0.000
  0.008   0.000   0.000  -0.003   0.000   0.000  -0.000   0.000   0.000   0.000  -0.000   0.000  -0.000   0.000   0.000  -0.000
  0.000   0.008   0.000   0.000   0.007   0.000   0.000   0.000   0.000   0.000  -0.000   0.000   0.000  -0.000  -0.000   0.000
  0.000   0.000   0.009   0.000   0.000   0.006   0.000   0.000   0.000   0.000  -0.000  -0.000  -0.000  -0.000  -0.000   0.000
  0.000   0.000  -0.000  -0.000   0.000   0.000  -2.074   0.000   0.000   0.000   0.000   0.876   0.000   0.000   0.000   0.000
  0.000   0.000   0.000   0.000   0.000   0.000   0.000  -2.091   0.000   0.000   0.000   0.000   0.682   0.000   0.000   0.000
  0.000   0.000  -0.000   0.000   0.000   0.000   0.000   0.000  -2.537   0.000  -0.087   0.000   0.000   1.070  -0.000   0.127
 -0.000  -0.000   0.000   0.000   0.000   0.000   0.000   0.000   0.000  -2.088   0.000   0.000   0.000   0.000   0.895  -0.000
 -0.000  -0.000   0.000  -0.000  -0.000  -0.000   0.000   0.000  -0.087   0.000  -2.478   0.000   0.000   0.126   0.000   0.980
 -0.000   0.000   0.000   0.000   0.000  -0.000   0.876   0.000   0.000   0.000   0.000  -0.163   0.000   0.000   0.000   0.000
 -0.000  -0.000   0.000  -0.000   0.000  -0.000   0.000   0.682   0.000   0.000   0.000   0.000   0.071   0.000   0.000  -0.000
  0.000  -0.000   0.000   0.000  -0.000  -0.000   0.000   0.000   1.070   0.000   0.126   0.000   0.000  -0.300  -0.000  -0.142
  0.000   0.000  -0.000   0.000  -0.000  -0.000   0.000   0.000  -0.000   0.895   0.000   0.000   0.000  -0.000  -0.148   0.000
 -0.000   0.000   0.000  -0.000   0.000   0.000   0.000   0.000   0.127  -0.000   0.980   0.000  -0.000  -0.142   0.000  -0.190
  0.000  -0.000   0.000   0.000  -0.000  -0.000  -0.000   0.000  -0.014  -0.000  -0.033   0.000   0.000   0.006   0.000   0.055
 -0.000  -0.000   0.000   0.000   0.000   0.000   0.000   0.000  -0.004  -0.000   0.009  -0.000   0.000   0.001  -0.000  -0.003


------------------------ aborting loop because EDIFF is reached ----------------------------------------





 total charge

# of ion       s       p       d       tot
------------------------------------------
    1        0.357   6.342   6.068  12.767
    2        0.356   6.343   6.042  12.742
    3        0.357   6.343   6.043  12.743
    4        0.362   6.350   6.031  12.743
    5        0.362   6.350   6.030  12.742
    6        0.357   6.345   6.040  12.742
    7        0.357   6.342   6.068  12.767
    8        0.356   6.343   6.042  12.742
    9        0.357   6.343   6.043  12.743
   10        0.789   0.726   8.044   9.558
   11        0.789   0.726   8.043   9.558
   12        0.773   0.742   8.041   9.556
--------------------------------------------------
tot          5.572  59.294  78.536 143.401



 magnetization (x)

# of ion       s       p       d       tot
------------------------------------------
    1       -0.005   0.010  -2.504  -2.499
    2        0.010   0.003   2.442   2.455
    3        0.010   0.003   2.441   2.454
    4       -0.015  -0.026  -2.494  -2.535
    5       -0.015  -0.026  -2.495  -2.536
    6        0.004  -0.016   2.683   2.671
    7       -0.005   0.010  -2.504  -2.499
    8        0.010   0.003   2.442   2.455
    9        0.010   0.003   2.441   2.454
   10        0.009   0.020  -0.119  -0.091
   11        0.009   0.020  -0.120  -0.091
   12       -0.037  -0.088   0.351   0.226
--------------------------------------------------
tot         -0.018  -0.084   2.565   2.464
 
    CHARGE:  cpu time      0.1472: real time      0.1484
    FORLOC:  cpu time      0.0009: real time      0.0009
    FORNL :  cpu time      0.5287: real time      0.5317
    STRESS:  cpu time      4.1087: real time      4.1424
    FORCOR:  cpu time      0.0207: real time      0.0208
    FORHAR:  cpu time      0.0025: real time      0.0025
    MIXING:  cpu time      0.0126: real time      0.0129
    OFIELD:  cpu time      0.0015: real time      0.0016

  FORCE on cell =-STRESS in cart. coord.  units (eV):
  Direction    XX          YY          ZZ          XY          YZ          ZX
  --------------------------------------------------------------------------------------
  Alpha Z  1127.08695  1127.08695  1127.08695
  Ewald   -6087.96730 -6087.96730 -6109.82826    -0.00000     0.00000     0.00000
  Hartree  1857.70364  1857.70364  1835.64492    -0.00000    -0.00000    -0.00000
  E(xc)    -944.37789  -944.37789  -944.30373     0.00000     0.00000    -0.00000
  Local    1121.30234  1121.30234  1174.01392    -0.00000     0.00000    -0.00000
  n-local  -208.56787  -222.42953  -215.36165    14.97679     0.06482     0.02903
  augment  1439.93516  1439.93516  1434.15297     0.00000     0.00000    -0.00000
  Kinetic  1713.28981  1695.72159  1701.35043     3.14783     0.28544     0.61593
  Fock        0.00000     0.00000     0.00000     0.00000     0.00000     0.00000
  -------------------------------------------------------------------------------------
  Total       2.68991     2.68991     2.75555     0.00000    -0.00000     0.00000
  in kB      28.54112    28.54112    29.23759     0.00000    -0.00000     0.00000
  external pressure =       28.77 kB  Pullay stress =        0.00 kB


 VOLUME and BASIS-vectors are now :
 -----------------------------------------------------------------------------
  energy-cutoff  :      520.00
  volume of cell :      151.00
      direct lattice vectors                 reciprocal lattice vectors
     3.676939312  0.000000000  0.000000000     0.271965326  0.000000000  0.000000000
     0.000000000  3.676939312  0.000000000     0.000000000  0.271965326  0.000000000
     0.000000000  0.000000000 11.168735952     0.000000000  0.000000000  0.089535647

  length of vectors
     3.676939312  3.676939312 11.168735952     0.271965326  0.271965326  0.089535647


 FORCES acting on ions
    electron-ion (+dipol)            ewald-force                    non-local-force                 convergence-correction
 -----------------------------------------------------------------------------------------------
   -.833E-13 0.117E-11 -.660E+00   0.287E-13 0.509E-13 0.564E+00   -.771E-21 0.852E-21 -.585E-03   0.901E-14 -.144E-14 0.974E-01
   -.816E-13 0.437E-12 -.190E+02   0.190E-13 0.428E-13 0.202E+02   -.142E-18 0.122E-17 -.118E+01   0.243E-13 0.835E-14 -.678E-01
   -.832E-13 -.439E-12 0.196E+02   -.774E-14 0.283E-13 -.207E+02   -.125E-19 -.108E-17 0.118E+01   0.136E-14 0.444E-14 -.273E-01
   0.104E-11 0.686E-11 0.745E+02   -.175E-13 -.267E-14 -.727E+02   -.431E-18 0.246E-18 -.180E+01   -.172E-12 -.343E-13 0.634E-01
   0.105E-11 0.668E-11 -.753E+02   -.183E-13 -.154E-13 0.734E+02   0.347E-18 0.426E-18 0.180E+01   -.111E-12 -.302E-13 0.166E-01
   0.106E-11 0.809E-11 0.832E+00   0.415E-13 0.192E-13 -.758E+00   -.110E-22 -.103E-20 -.130E-02   -.112E-12 -.551E-13 -.745E-01
   0.105E-11 -.481E-13 -.660E+00   0.112E-13 -.824E-14 0.564E+00   0.611E-22 -.437E-22 -.585E-03   -.103E-12 0.532E-14 0.974E-01
   0.103E-11 0.251E-13 -.190E+02   -.187E-14 0.114E-14 0.202E+02   -.235E-18 0.571E-18 -.118E+01   -.101E-12 -.216E-13 -.678E-01
   0.104E-11 -.470E-13 0.196E+02   -.258E-13 0.661E-14 -.207E+02   0.145E-18 -.618E-19 0.118E+01   -.104E-12 -.587E-14 -.273E-01
   -.441E-13 -.742E-13 0.164E+02   0.740E-14 -.321E-13 -.166E+02   0.101E-17 -.619E-18 0.172E+00   0.675E-13 -.279E-13 0.421E-01
   -.364E-13 0.858E-14 -.168E+02   -.307E-13 -.517E-14 0.170E+02   0.361E-18 0.120E-17 -.172E+00   0.501E-13 -.120E-13 0.782E-02
   -.406E-13 -.310E-13 0.527E+00   -.603E-13 -.250E-13 -.475E+00   -.352E-21 -.481E-21 -.169E-02   0.468E-13 -.120E-13 -.522E-01
 -----------------------------------------------------------------------------------------------
   0.591E-11 0.226E-10 -.658E-02   -.544E-13 0.604E-13 0.224E-12   0.104E-17 0.190E-17 -.217E-02   -.503E-12 -.182E-12 0.784E-02
 
 
 POSITION                                       TOTAL-FORCE (eV/Angst)
 -----------------------------------------------------------------------------------
      0.00000      1.83847      1.86123        -0.000000     -0.000000      0.000494
      0.00000      1.83847      5.57712        -0.000000      0.000000      0.003753
      0.00000      1.83847      9.31472        -0.000000     -0.000000     -0.003992
      1.83847      1.83847      0.05665         0.000000     -0.000000      0.022232
      1.83847      1.83847      3.66593         0.000000      0.000000     -0.021416
      1.83847      1.83847      7.44619        -0.000000      0.000000     -0.001258
      1.83847      0.00000      1.86123        -0.000000     -0.000000      0.000494
      1.83847      0.00000      5.57712        -0.000000     -0.000000      0.003753
      1.83847      0.00000      9.31472         0.000000     -0.000000     -0.003992
      0.00000      0.00000     11.14420        -0.000000     -0.000000     -0.023913
      0.00000      0.00000      3.74727        -0.000000     -0.000000      0.025502
      0.00000      0.00000      7.44605        -0.000000     -0.000000     -0.001659
 -----------------------------------------------------------------------------------
    total drift:                                0.000000      0.000000     -0.000915


--------------------------------------------------------------------------------------------------------



  FREE ENERGIE OF THE ION-ELECTRON SYSTEM (eV)
  ---------------------------------------------------
  free  energy   TOTEN  =       -93.38683282 eV

  energy  without entropy=      -93.38683282  energy(sigma->0) =      -93.38683282
 


--------------------------------------------------------------------------------------------------------


    POTLOK:  cpu time      0.0356: real time      0.0361


--------------------------------------------------------------------------------------------------------


     LOOP+:  cpu time    164.7458: real time    166.6970
 -----------------------------------------------------------------------------
|                                                                             |
|           W    W    AA    RRRRR   N    N  II  N    N   GGGG   !!!           |
|           W    W   A  A   R    R  NN   N  II  NN   N  G    G  !!!           |
|           W    W  A    A  R    R  N N  N  II  N N  N  G       !!!           |
|           W WW W  AAAAAA  RRRRR   N  N N  II  N  N N  G  GGG   !            |
|           WW  WW  A    A  R   R   N   NN  II  N   NN  G    G                |
|           W    W  A    A  R    R  N    N  II  N    N   GGGG   !!!           |
|                                                                             |
|     Tetrahedron method does not include variations of the Fermi             |
|     occupations, so forces and stress will be inaccurate. We suggest        |
|     using a different smearing scheme ISMEAR = 1 or 2 for metals in         |
|     relaxations.                                                            |
|                                                                             |
 -----------------------------------------------------------------------------

    4ORBIT:  cpu time      0.0000: real time      0.0000



 total charge

# of ion       s       p       d       tot
------------------------------------------
    1        0.357   6.342   6.068  12.767
    2        0.356   6.343   6.042  12.742
    3        0.357   6.343   6.043  12.743
    4        0.362   6.350   6.031  12.743
    5        0.362   6.350   6.030  12.742
    6        0.357   6.345   6.040  12.742
    7        0.357   6.342   6.068  12.767
    8        0.356   6.343   6.042  12.742
    9        0.357   6.343   6.043  12.743
   10        0.789   0.726   8.044   9.558
   11        0.789   0.726   8.043   9.558
   12        0.773   0.742   8.041   9.556
--------------------------------------------------
tot          5.572  59.294  78.536 143.401



 magnetization (x)

# of ion       s       p       d       tot
------------------------------------------
    1       -0.005   0.010  -2.504  -2.499
    2        0.010   0.003   2.442   2.455
    3        0.010   0.003   2.441   2.454
    4       -0.015  -0.026  -2.494  -2.535
    5       -0.015  -0.026  -2.495  -2.536
    6        0.004  -0.016   2.683   2.671
    7       -0.005   0.010  -2.504  -2.499
    8        0.010   0.003   2.442   2.455
    9        0.010   0.003   2.441   2.454
   10        0.009   0.020  -0.119  -0.091
   11        0.009   0.020  -0.120  -0.091
   12       -0.037  -0.088   0.351   0.226
--------------------------------------------------
tot         -0.018  -0.084   2.565   2.464
 
 BZINTS: Fermi energy:   10.285806;  156.000000 electrons
         Band energy:-0.157069E+04;  BLOECHL correction:   -0.029821

 total amount of memory used by VASP MPI-rank0   173825. kBytes
=======================================================================

   base      :      30000. kBytes
   nonl-proj :     100657. kBytes
   fftplans  :        888. kBytes
   grid      :       6813. kBytes
   one-center:        373. kBytes
   wavefun   :      35094. kBytes
 
  
  
 General timing and accounting informations for this job:
 ========================================================
  
                  Total CPU time used (sec):      181.928
                            User time (sec):      173.458
                          System time (sec):        8.470
                         Elapsed time (sec):      189.019
  
                   Maximum memory used (kb):      789488.
                   Average memory used (kb):          N/A
  
                          Minor page faults:       179161
                          Major page faults:          234
                 Voluntary context switches:         7246
