       N       E                     dE             d eps       ncg     rms          rms(c)
DAV:   1     0.177274822245E+04    0.17727E+04   -0.84954E+04 75264   0.177E+03
DAV:   2     0.629667060414E+01   -0.17665E+04   -0.16753E+04 75264   0.479E+02
DAV:   3    -0.103075533173E+03   -0.10937E+03   -0.10779E+03 88544   0.128E+02
DAV:   4    -0.104714263726E+03   -0.16387E+01   -0.16384E+01 80448   0.156E+01
DAV:   5    -0.104747348596E+03   -0.33085E-01   -0.33084E-01 92512   0.215E+00    0.372E+01
DAV:   6    -0.115978161429E+03   -0.11231E+02   -0.19568E+02 89856   0.635E+01    0.650E+01
DAV:   7    -0.106539033312E+03    0.94391E+01   -0.16255E+02 89856   0.542E+01    0.598E+01
DAV:   8    -0.992474394858E+02    0.72916E+01   -0.22435E+02 90656   0.407E+01    0.376E+01
DAV:   9    -0.100759091681E+03   -0.15117E+01   -0.77674E+01 85376   0.339E+01    0.429E+01
DAV:  10    -0.942146424572E+02    0.65444E+01   -0.55273E+01 85376   0.231E+01    0.224E+01
DAV:  11    -0.934924389134E+02    0.72220E+00   -0.16363E+01 88608   0.164E+01    0.197E+01
DAV:  12    -0.928826654731E+02    0.60977E+00   -0.67678E+00 87712   0.114E+01    0.114E+01
DAV:  13    -0.929062387127E+02   -0.23573E-01   -0.96662E-01 89152   0.556E+00    0.939E+00
DAV:  14    -0.929283201788E+02   -0.22081E-01   -0.10518E+00 88608   0.535E+00    0.798E+00
DAV:  15    -0.930070467197E+02   -0.78727E-01   -0.90032E-01 90016   0.547E+00    0.467E+00
DAV:  16    -0.930305687213E+02   -0.23522E-01   -0.62262E-01 90752   0.425E+00    0.461E+00
DAV:  17    -0.930390799741E+02   -0.85113E-02   -0.35383E-01 91072   0.320E+00    0.338E+00
DAV:  18    -0.931056031376E+02   -0.66523E-01   -0.40616E-01 91616   0.288E+00    0.391E+00
DAV:  19    -0.931044950669E+02    0.11081E-02   -0.38055E-01 91648   0.291E+00    0.217E+00
DAV:  20    -0.931223815260E+02   -0.17886E-01   -0.14704E-01 88832   0.232E+00    0.232E+00
DAV:  21    -0.931161120295E+02    0.62695E-02   -0.93068E-02 87808   0.198E+00    0.189E+00
DAV:  22    -0.931152807398E+02    0.83129E-03   -0.13966E-02 89248   0.769E-01    0.156E+00
DAV:  23    -0.931162847444E+02   -0.10040E-02   -0.16103E-02 89984   0.929E-01    0.144E+00
DAV:  24    -0.931128026239E+02    0.34821E-02   -0.20782E-02 89504   0.101E+00    0.712E-01
DAV:  25    -0.931127014839E+02    0.10114E-03   -0.47482E-03 90144   0.454E-01    0.336E-01
DAV:  26    -0.931130229213E+02   -0.32144E-03   -0.26796E-03 89792   0.205E-01    0.137E-01
DAV:  27    -0.931132046110E+02   -0.18169E-03   -0.53232E-04 89728   0.132E-01    0.962E-02
DAV:  28    -0.931131674548E+02    0.37156E-04   -0.15186E-04 89120   0.560E-02    0.585E-02
DAV:  29    -0.931131611375E+02    0.63172E-05   -0.28726E-05 87744   0.342E-02    0.383E-02
DAV:  30    -0.931131654162E+02   -0.42787E-05   -0.15260E-05 89824   0.163E-02    0.176E-02
DAV:  31    -0.931131688413E+02   -0.34251E-05   -0.45090E-06 73536   0.110E-02    0.926E-03
DAV:  32    -0.931131674526E+02    0.13888E-05   -0.10816E-06 46144   0.745E-03    0.323E-03
DAV:  33    -0.931131669876E+02    0.46490E-06   -0.21683E-07 43072   0.222E-03
   1 F= -.93113167E+02 E0= -.93113167E+02  d E =0.000000E+00  mag=    19.8203
