  16  16   1   0
  0.1862500E+02  0.7389263E-09  0.7389263E-09  0.5533933E-09  0.5000000E-15
  1.000000000000000E-004
  CAR 
 unknown system                          
     11.73443924    -53.45917815  301      4.22869146      1.00000000
    -53.459  0.0000E+00  0.0000E+00  0.0000E+00  0.0000E+00
    -53.242  0.0000E+00  0.0000E+00  0.0000E+00  0.0000E+00
    -53.025  0.0000E+00  0.0000E+00  0.0000E+00  0.0000E+00
    -52.807  0.0000E+00  0.0000E+00  0.0000E+00  0.0000E+00
    -52.590  0.0000E+00  0.0000E+00  0.0000E+00  0.0000E+00
    -52.373  0.0000E+00  0.0000E+00  0.0000E+00  0.0000E+00
    -52.155  0.0000E+00  0.0000E+00  0.0000E+00  0.0000E+00
    -51.938  0.0000E+00  0.0000E+00  0.0000E+00  0.0000E+00
    -51.721  0.0000E+00  0.0000E+00  0.0000E+00  0.0000E+00
    -51.503  0.0000E+00  0.0000E+00  0.0000E+00  0.0000E+00
    -51.286  0.0000E+00  0.0000E+00  0.0000E+00  0.0000E+00
    -51.069  0.0000E+00  0.0000E+00  0.0000E+00  0.0000E+00
    -50.851  0.0000E+00  0.0000E+00  0.0000E+00  0.0000E+00
    -50.634  0.3097E-05  0.3097E-05  0.6729E-06  0.6729E-06
    -50.417  0.1874E+00  0.1874E+00  0.4072E-01  0.4072E-01
    -50.199  0.2834E+00  0.2834E+00  0.1023E+00  0.1023E+00
    -49.982  0.8578E-01  0.8578E-01  0.1210E+00  0.1210E+00
    -49.765  0.1170E-02  0.1170E-02  0.1212E+00  0.1212E+00
    -49.548  0.0000E+00  0.0000E+00  0.1212E+00  0.1212E+00
    -49.330  0.0000E+00  0.0000E+00  0.1212E+00  0.1212E+00
    -49.113  0.0000E+00  0.0000E+00  0.1212E+00  0.1212E+00
    -48.896  0.0000E+00  0.0000E+00  0.1212E+00  0.1212E+00
    -48.678  0.0000E+00  0.0000E+00  0.1212E+00  0.1212E+00
    -48.461  0.0000E+00  0.0000E+00  0.1212E+00  0.1212E+00
    -48.244  0.0000E+00  0.0000E+00  0.1212E+00  0.1212E+00
    -48.026  0.5257E-15  0.5257E-15  0.1212E+00  0.1212E+00
    -47.809  0.9018E-02  0.9018E-02  0.1232E+00  0.1232E+00
    -47.592  0.2526E+00  0.2526E+00  0.1781E+00  0.1781E+00
    -47.374  0.2336E+00  0.2336E+00  0.2288E+00  0.2288E+00
    -47.157  0.6262E-01  0.6262E-01  0.2424E+00  0.2424E+00
    -46.940  0.0000E+00  0.0000E+00  0.2424E+00  0.2424E+00
    -46.723  0.0000E+00  0.0000E+00  0.2424E+00  0.2424E+00
    -46.505  0.0000E+00  0.0000E+00  0.2424E+00  0.2424E+00
    -46.288  0.0000E+00  0.0000E+00  0.2424E+00  0.2424E+00
    -46.071  0.0000E+00  0.0000E+00  0.2424E+00  0.2424E+00
    -45.853  0.0000E+00  0.0000E+00  0.2424E+00  0.2424E+00
    -45.636  0.0000E+00  0.0000E+00  0.2424E+00  0.2424E+00
    -45.419  0.0000E+00  0.0000E+00  0.2424E+00  0.2424E+00
    -45.201  0.0000E+00  0.0000E+00  0.2424E+00  0.2424E+00
    -44.984  0.0000E+00  0.0000E+00  0.2424E+00  0.2424E+00
    -44.767  0.0000E+00  0.0000E+00  0.2424E+00  0.2424E+00
    -44.549  0.0000E+00  0.0000E+00  0.2424E+00  0.2424E+00
    -44.332  0.0000E+00  0.0000E+00  0.2424E+00  0.2424E+00
    -44.115  0.0000E+00  0.0000E+00  0.2424E+00  0.2424E+00
    -43.897  0.0000E+00  0.0000E+00  0.2424E+00  0.2424E+00
    -43.680  0.0000E+00  0.0000E+00  0.2424E+00  0.2424E+00
    -43.463  0.0000E+00  0.0000E+00  0.2424E+00  0.2424E+00
    -43.246  0.0000E+00  0.0000E+00  0.2424E+00  0.2424E+00
    -43.028  0.0000E+00  0.0000E+00  0.2424E+00  0.2424E+00
    -42.811  0.0000E+00  0.0000E+00  0.2424E+00  0.2424E+00
    -42.594  0.0000E+00  0.0000E+00  0.2424E+00  0.2424E+00
    -42.376  0.0000E+00  0.0000E+00  0.2424E+00  0.2424E+00
    -42.159  0.0000E+00  0.0000E+00  0.2424E+00  0.2424E+00
    -41.942  0.0000E+00  0.0000E+00  0.2424E+00  0.2424E+00
    -41.724  0.0000E+00  0.0000E+00  0.2424E+00  0.2424E+00
    -41.507  0.0000E+00  0.0000E+00  0.2424E+00  0.2424E+00
    -41.290  0.0000E+00  0.0000E+00  0.2424E+00  0.2424E+00
    -41.072  0.0000E+00  0.0000E+00  0.2424E+00  0.2424E+00
    -40.855  0.0000E+00  0.0000E+00  0.2424E+00  0.2424E+00
    -40.638  0.0000E+00  0.0000E+00  0.2424E+00  0.2424E+00
    -40.420  0.0000E+00  0.0000E+00  0.2424E+00  0.2424E+00
    -40.203  0.0000E+00  0.0000E+00  0.2424E+00  0.2424E+00
    -39.986  0.0000E+00  0.0000E+00  0.2424E+00  0.2424E+00
    -39.769  0.0000E+00  0.0000E+00  0.2424E+00  0.2424E+00
    -39.551  0.0000E+00  0.0000E+00  0.2424E+00  0.2424E+00
    -39.334  0.0000E+00  0.0000E+00  0.2424E+00  0.2424E+00
    -39.117  0.0000E+00  0.0000E+00  0.2424E+00  0.2424E+00
    -38.899  0.0000E+00  0.0000E+00  0.2424E+00  0.2424E+00
    -38.682  0.0000E+00  0.0000E+00  0.2424E+00  0.2424E+00
    -38.465  0.0000E+00  0.0000E+00  0.2424E+00  0.2424E+00
    -38.247  0.0000E+00  0.0000E+00  0.2424E+00  0.2424E+00
    -38.030  0.0000E+00  0.0000E+00  0.2424E+00  0.2424E+00
    -37.813  0.0000E+00  0.0000E+00  0.2424E+00  0.2424E+00
    -37.595  0.0000E+00  0.0000E+00  0.2424E+00  0.2424E+00
    -37.378  0.0000E+00  0.0000E+00  0.2424E+00  0.2424E+00
    -37.161  0.0000E+00  0.0000E+00  0.2424E+00  0.2424E+00
    -36.943  0.0000E+00  0.0000E+00  0.2424E+00  0.2424E+00
    -36.726  0.0000E+00  0.0000E+00  0.2424E+00  0.2424E+00
    -36.509  0.0000E+00  0.0000E+00  0.2424E+00  0.2424E+00
    -36.292  0.0000E+00  0.0000E+00  0.2424E+00  0.2424E+00
    -36.074  0.0000E+00  0.0000E+00  0.2424E+00  0.2424E+00
    -35.857  0.0000E+00  0.0000E+00  0.2424E+00  0.2424E+00
    -35.640  0.0000E+00  0.0000E+00  0.2424E+00  0.2424E+00
    -35.422  0.0000E+00  0.0000E+00  0.2424E+00  0.2424E+00
    -35.205  0.0000E+00  0.0000E+00  0.2424E+00  0.2424E+00
    -34.988  0.0000E+00  0.0000E+00  0.2424E+00  0.2424E+00
    -34.770  0.0000E+00  0.0000E+00  0.2424E+00  0.2424E+00
    -34.553  0.0000E+00  0.0000E+00  0.2424E+00  0.2424E+00
    -34.336  0.0000E+00  0.0000E+00  0.2424E+00  0.2424E+00
    -34.118  0.0000E+00  0.0000E+00  0.2424E+00  0.2424E+00
    -33.901  0.0000E+00  0.0000E+00  0.2424E+00  0.2424E+00
    -33.684  0.0000E+00  0.0000E+00  0.2424E+00  0.2424E+00
    -33.466  0.0000E+00  0.0000E+00  0.2424E+00  0.2424E+00
    -33.249  0.0000E+00  0.0000E+00  0.2424E+00  0.2424E+00
    -33.032  0.0000E+00  0.0000E+00  0.2424E+00  0.2424E+00
    -32.815  0.0000E+00  0.0000E+00  0.2424E+00  0.2424E+00
    -32.597  0.0000E+00  0.0000E+00  0.2424E+00  0.2424E+00
    -32.380  0.0000E+00  0.0000E+00  0.2424E+00  0.2424E+00
    -32.163  0.0000E+00  0.0000E+00  0.2424E+00  0.2424E+00
    -31.945  0.0000E+00  0.0000E+00  0.2424E+00  0.2424E+00
    -31.728  0.0000E+00  0.0000E+00  0.2424E+00  0.2424E+00
    -31.511  0.0000E+00  0.0000E+00  0.2424E+00  0.2424E+00
    -31.293  0.0000E+00  0.0000E+00  0.2424E+00  0.2424E+00
    -31.076  0.0000E+00  0.0000E+00  0.2424E+00  0.2424E+00
    -30.859  0.0000E+00  0.0000E+00  0.2424E+00  0.2424E+00
    -30.641  0.0000E+00  0.0000E+00  0.2424E+00  0.2424E+00
    -30.424  0.0000E+00  0.0000E+00  0.2424E+00  0.2424E+00
    -30.207  0.0000E+00  0.0000E+00  0.2424E+00  0.2424E+00
    -29.989  0.0000E+00  0.0000E+00  0.2424E+00  0.2424E+00
    -29.772  0.0000E+00  0.0000E+00  0.2424E+00  0.2424E+00
    -29.555  0.0000E+00  0.0000E+00  0.2424E+00  0.2424E+00
    -29.338  0.0000E+00  0.0000E+00  0.2424E+00  0.2424E+00
    -29.120  0.0000E+00  0.0000E+00  0.2424E+00  0.2424E+00
    -28.903  0.0000E+00  0.0000E+00  0.2424E+00  0.2424E+00
    -28.686  0.0000E+00  0.0000E+00  0.2424E+00  0.2424E+00
    -28.468  0.0000E+00  0.0000E+00  0.2424E+00  0.2424E+00
    -28.251  0.0000E+00  0.0000E+00  0.2424E+00  0.2424E+00
    -28.034  0.0000E+00  0.0000E+00  0.2424E+00  0.2424E+00
    -27.816  0.0000E+00  0.0000E+00  0.2424E+00  0.2424E+00
    -27.599  0.0000E+00  0.0000E+00  0.2424E+00  0.2424E+00
    -27.382  0.0000E+00  0.0000E+00  0.2424E+00  0.2424E+00
    -27.164  0.0000E+00  0.0000E+00  0.2424E+00  0.2424E+00
    -26.947  0.0000E+00  0.0000E+00  0.2424E+00  0.2424E+00
    -26.730  0.0000E+00  0.0000E+00  0.2424E+00  0.2424E+00
    -26.512  0.0000E+00  0.0000E+00  0.2424E+00  0.2424E+00
    -26.295  0.0000E+00  0.0000E+00  0.2424E+00  0.2424E+00
    -26.078  0.0000E+00  0.0000E+00  0.2424E+00  0.2424E+00
    -25.861  0.0000E+00  0.0000E+00  0.2424E+00  0.2424E+00
    -25.643  0.0000E+00  0.0000E+00  0.2424E+00  0.2424E+00
    -25.426  0.0000E+00  0.0000E+00  0.2424E+00  0.2424E+00
    -25.209  0.0000E+00  0.0000E+00  0.2424E+00  0.2424E+00
    -24.991  0.0000E+00  0.0000E+00  0.2424E+00  0.2424E+00
    -24.774  0.0000E+00  0.0000E+00  0.2424E+00  0.2424E+00
    -24.557  0.0000E+00  0.0000E+00  0.2424E+00  0.2424E+00
    -24.339  0.0000E+00  0.0000E+00  0.2424E+00  0.2424E+00
    -24.122  0.0000E+00  0.0000E+00  0.2424E+00  0.2424E+00
    -23.905  0.0000E+00  0.0000E+00  0.2424E+00  0.2424E+00
    -23.687  0.0000E+00  0.0000E+00  0.2424E+00  0.2424E+00
    -23.470  0.0000E+00  0.0000E+00  0.2424E+00  0.2424E+00
    -23.253  0.0000E+00  0.0000E+00  0.2424E+00  0.2424E+00
    -23.035  0.0000E+00  0.0000E+00  0.2424E+00  0.2424E+00
    -22.818  0.0000E+00  0.0000E+00  0.2424E+00  0.2424E+00
    -22.601  0.0000E+00  0.0000E+00  0.2424E+00  0.2424E+00
    -22.384  0.0000E+00  0.0000E+00  0.2424E+00  0.2424E+00
    -22.166  0.0000E+00  0.0000E+00  0.2424E+00  0.2424E+00
    -21.949  0.0000E+00  0.0000E+00  0.2424E+00  0.2424E+00
    -21.732  0.0000E+00  0.0000E+00  0.2424E+00  0.2424E+00
    -21.514  0.0000E+00  0.0000E+00  0.2424E+00  0.2424E+00
    -21.297  0.0000E+00  0.0000E+00  0.2424E+00  0.2424E+00
    -21.080  0.0000E+00  0.0000E+00  0.2424E+00  0.2424E+00
    -20.862  0.0000E+00  0.0000E+00  0.2424E+00  0.2424E+00
    -20.645  0.0000E+00  0.0000E+00  0.2424E+00  0.2424E+00
    -20.428  0.0000E+00  0.0000E+00  0.2424E+00  0.2424E+00
    -20.210  0.0000E+00  0.0000E+00  0.2424E+00  0.2424E+00
    -19.993  0.0000E+00  0.0000E+00  0.2424E+00  0.2424E+00
    -19.776  0.0000E+00  0.0000E+00  0.2424E+00  0.2424E+00
    -19.558  0.0000E+00  0.0000E+00  0.2424E+00  0.2424E+00
    -19.341  0.0000E+00  0.0000E+00  0.2424E+00  0.2424E+00
    -19.124  0.0000E+00  0.0000E+00  0.2424E+00  0.2424E+00
    -18.907  0.0000E+00  0.0000E+00  0.2424E+00  0.2424E+00
    -18.689  0.0000E+00  0.0000E+00  0.2424E+00  0.2424E+00
    -18.472  0.0000E+00  0.0000E+00  0.2424E+00  0.2424E+00
    -18.255  0.0000E+00  0.0000E+00  0.2424E+00  0.2424E+00
    -18.037  0.0000E+00  0.0000E+00  0.2424E+00  0.2424E+00
    -17.820  0.0000E+00  0.0000E+00  0.2424E+00  0.2424E+00
    -17.603  0.0000E+00  0.0000E+00  0.2424E+00  0.2424E+00
    -17.385  0.0000E+00  0.0000E+00  0.2424E+00  0.2424E+00
    -17.168  0.0000E+00  0.0000E+00  0.2424E+00  0.2424E+00
    -16.951  0.0000E+00  0.0000E+00  0.2424E+00  0.2424E+00
    -16.733  0.0000E+00  0.0000E+00  0.2424E+00  0.2424E+00
    -16.516  0.0000E+00  0.0000E+00  0.2424E+00  0.2424E+00
    -16.299  0.0000E+00  0.0000E+00  0.2424E+00  0.2424E+00
    -16.082  0.0000E+00  0.0000E+00  0.2424E+00  0.2424E+00
    -15.864  0.0000E+00  0.0000E+00  0.2424E+00  0.2424E+00
    -15.647  0.0000E+00  0.0000E+00  0.2424E+00  0.2424E+00
    -15.430  0.0000E+00  0.0000E+00  0.2424E+00  0.2424E+00
    -15.212  0.0000E+00  0.0000E+00  0.2424E+00  0.2424E+00
    -14.995  0.0000E+00  0.0000E+00  0.2424E+00  0.2424E+00
    -14.778  0.0000E+00  0.0000E+00  0.2424E+00  0.2424E+00
    -14.560  0.0000E+00  0.0000E+00  0.2424E+00  0.2424E+00
    -14.343  0.0000E+00  0.0000E+00  0.2424E+00  0.2424E+00
    -14.126  0.0000E+00  0.0000E+00  0.2424E+00  0.2424E+00
    -13.908  0.0000E+00  0.0000E+00  0.2424E+00  0.2424E+00
    -13.691  0.0000E+00  0.0000E+00  0.2424E+00  0.2424E+00
    -13.474  0.0000E+00  0.0000E+00  0.2424E+00  0.2424E+00
    -13.256  0.0000E+00  0.0000E+00  0.2424E+00  0.2424E+00
    -13.039  0.0000E+00  0.0000E+00  0.2424E+00  0.2424E+00
    -12.822  0.0000E+00  0.0000E+00  0.2424E+00  0.2424E+00
    -12.605  0.0000E+00  0.0000E+00  0.2424E+00  0.2424E+00
    -12.387  0.0000E+00  0.0000E+00  0.2424E+00  0.2424E+00
    -12.170  0.0000E+00  0.0000E+00  0.2424E+00  0.2424E+00
    -11.953  0.0000E+00  0.0000E+00  0.2424E+00  0.2424E+00
    -11.735  0.0000E+00  0.0000E+00  0.2424E+00  0.2424E+00
    -11.518  0.0000E+00  0.0000E+00  0.2424E+00  0.2424E+00
    -11.301  0.0000E+00  0.0000E+00  0.2424E+00  0.2424E+00
    -11.083  0.0000E+00  0.0000E+00  0.2424E+00  0.2424E+00
    -10.866  0.0000E+00  0.0000E+00  0.2424E+00  0.2424E+00
    -10.649  0.5266E-19  0.5266E-19  0.2424E+00  0.2424E+00
    -10.431  0.4570E-05  0.4570E-05  0.2424E+00  0.2424E+00
    -10.214  0.4059E-02  0.4059E-02  0.2433E+00  0.2433E+00
     -9.997  0.1304E-01  0.1304E-01  0.2461E+00  0.2461E+00
     -9.779  0.2111E-01  0.2111E-01  0.2507E+00  0.2507E+00
     -9.562  0.2436E-01  0.2436E-01  0.2560E+00  0.2560E+00
     -9.345  0.2824E-01  0.2824E-01  0.2622E+00  0.2622E+00
     -9.128  0.3669E-01  0.3669E-01  0.2701E+00  0.2701E+00
     -8.910  0.6481E-01  0.6481E-01  0.2842E+00  0.2842E+00
     -8.693  0.6935E-01  0.6935E-01  0.2993E+00  0.2993E+00
     -8.476  0.6791E-01  0.6791E-01  0.3140E+00  0.3140E+00
     -8.258  0.4056E-01  0.4056E-01  0.3229E+00  0.3229E+00
     -8.041  0.1699E-02  0.1699E-02  0.3232E+00  0.3232E+00
     -7.824  0.3917E-09  0.3917E-09  0.3232E+00  0.3232E+00
     -7.606  0.0000E+00  0.0000E+00  0.3232E+00  0.3232E+00
     -7.389  0.0000E+00  0.0000E+00  0.3232E+00  0.3232E+00
     -7.172  0.0000E+00  0.0000E+00  0.3232E+00  0.3232E+00
     -6.954  0.0000E+00  0.0000E+00  0.3232E+00  0.3232E+00
     -6.737  0.0000E+00  0.0000E+00  0.3232E+00  0.3232E+00
     -6.520  0.0000E+00  0.0000E+00  0.3232E+00  0.3232E+00
     -6.302  0.0000E+00  0.0000E+00  0.3232E+00  0.3232E+00
     -6.085  0.0000E+00  0.0000E+00  0.3232E+00  0.3232E+00
     -5.868  0.0000E+00  0.0000E+00  0.3232E+00  0.3232E+00
     -5.651  0.0000E+00  0.0000E+00  0.3232E+00  0.3232E+00
     -5.433  0.0000E+00  0.0000E+00  0.3232E+00  0.3232E+00
     -5.216  0.0000E+00  0.0000E+00  0.3232E+00  0.3232E+00
     -4.999  0.0000E+00  0.0000E+00  0.3232E+00  0.3232E+00
     -4.781  0.0000E+00  0.0000E+00  0.3232E+00  0.3232E+00
     -4.564  0.0000E+00  0.0000E+00  0.3232E+00  0.3232E+00
     -4.347  0.0000E+00  0.0000E+00  0.3232E+00  0.3232E+00
     -4.129  0.0000E+00  0.0000E+00  0.3232E+00  0.3232E+00
     -3.912  0.0000E+00  0.0000E+00  0.3232E+00  0.3232E+00
     -3.695  0.0000E+00  0.0000E+00  0.3232E+00  0.3232E+00
     -3.477  0.0000E+00  0.0000E+00  0.3232E+00  0.3232E+00
     -3.260  0.0000E+00  0.0000E+00  0.3232E+00  0.3232E+00
     -3.043  0.0000E+00  0.0000E+00  0.3232E+00  0.3232E+00
     -2.825  0.0000E+00  0.0000E+00  0.3232E+00  0.3232E+00
     -2.608  0.0000E+00  0.0000E+00  0.3232E+00  0.3232E+00
     -2.391  0.0000E+00  0.0000E+00  0.3232E+00  0.3232E+00
     -2.174  0.3108E-06  0.3108E-06  0.3232E+00  0.3232E+00
     -1.956  0.1005E-02  0.1005E-02  0.3235E+00  0.3235E+00
     -1.739  0.1094E-01  0.1094E-01  0.3258E+00  0.3258E+00
     -1.522  0.3840E-01  0.3840E-01  0.3342E+00  0.3342E+00
     -1.304  0.6598E-01  0.6598E-01  0.3485E+00  0.3485E+00
     -1.087  0.6870E-01  0.6870E-01  0.3634E+00  0.3634E+00
     -0.870  0.5390E-01  0.5390E-01  0.3752E+00  0.3752E+00
     -0.652  0.5808E-01  0.5808E-01  0.3878E+00  0.3878E+00
     -0.435  0.4117E-01  0.4117E-01  0.3967E+00  0.3967E+00
     -0.218  0.4665E-01  0.4665E-01  0.4069E+00  0.4069E+00
     -0.000  0.6214E-01  0.6214E-01  0.4204E+00  0.4204E+00
      0.217  0.6414E-01  0.6414E-01  0.4343E+00  0.4343E+00
      0.434  0.9389E-01  0.9389E-01  0.4547E+00  0.4547E+00
      0.652  0.1093E+00  0.1093E+00  0.4785E+00  0.4785E+00
      0.869  0.1099E+00  0.1099E+00  0.5023E+00  0.5023E+00
      1.086  0.1060E+00  0.1060E+00  0.5254E+00  0.5254E+00
      1.303  0.7805E-01  0.7805E-01  0.5423E+00  0.5423E+00
      1.521  0.7172E-01  0.7172E-01  0.5579E+00  0.5579E+00
      1.738  0.9978E-01  0.9978E-01  0.5796E+00  0.5796E+00
      1.955  0.1100E+00  0.1100E+00  0.6035E+00  0.6035E+00
      2.173  0.1308E+00  0.1308E+00  0.6319E+00  0.6319E+00
      2.390  0.1677E+00  0.1677E+00  0.6684E+00  0.6684E+00
      2.607  0.1473E+00  0.1473E+00  0.7004E+00  0.7004E+00
      2.825  0.8912E-01  0.8912E-01  0.7197E+00  0.7197E+00
      3.042  0.6520E-01  0.6520E-01  0.7339E+00  0.7339E+00
      3.259  0.6724E-01  0.6724E-01  0.7485E+00  0.7485E+00
      3.477  0.6238E-01  0.6238E-01  0.7621E+00  0.7621E+00
      3.694  0.4238E-01  0.4238E-01  0.7713E+00  0.7713E+00
      3.911  0.5485E-01  0.5485E-01  0.7832E+00  0.7832E+00
      4.129  0.7556E-01  0.7556E-01  0.7996E+00  0.7996E+00
      4.346  0.7397E-01  0.7397E-01  0.8157E+00  0.8157E+00
      4.563  0.9076E-01  0.9076E-01  0.8354E+00  0.8354E+00
      4.780  0.1392E+00  0.1392E+00  0.8657E+00  0.8657E+00
      4.998  0.9437E-01  0.9437E-01  0.8862E+00  0.8862E+00
      5.215  0.9240E-01  0.9240E-01  0.9063E+00  0.9063E+00
      5.432  0.8530E-01  0.8530E-01  0.9248E+00  0.9248E+00
      5.650  0.1014E+00  0.1014E+00  0.9468E+00  0.9468E+00
      5.867  0.5458E-01  0.5458E-01  0.9587E+00  0.9587E+00
      6.084  0.1192E-01  0.1192E-01  0.9613E+00  0.9613E+00
      6.302  0.1320E-01  0.1320E-01  0.9642E+00  0.9642E+00
      6.519  0.1631E-01  0.1631E-01  0.9677E+00  0.9677E+00
      6.736  0.1125E-01  0.1125E-01  0.9701E+00  0.9701E+00
      6.954  0.6908E-02  0.6908E-02  0.9716E+00  0.9716E+00
      7.171  0.7183E-02  0.7183E-02  0.9732E+00  0.9732E+00
      7.388  0.1355E-01  0.1355E-01  0.9761E+00  0.9761E+00
      7.606  0.1405E-01  0.1405E-01  0.9792E+00  0.9792E+00
      7.823  0.2471E-01  0.2471E-01  0.9846E+00  0.9846E+00
      8.040  0.3899E-01  0.3880E-01  0.9930E+00  0.9930E+00
      8.257  0.4104E-01  0.4124E-01  0.1002E+01  0.1002E+01
      8.475  0.2541E-01  0.2538E-01  0.1007E+01  0.1007E+01
      8.692  0.1067E-01  0.1071E-01  0.1010E+01  0.1010E+01
      8.909  0.1366E-02  0.1350E-02  0.1010E+01  0.1010E+01
      9.127  0.2698E-07  0.3868E-07  0.1010E+01  0.1010E+01
      9.344  0.0000E+00  0.0000E+00  0.1010E+01  0.1010E+01
      9.561  0.0000E+00  0.0000E+00  0.1010E+01  0.1010E+01
      9.779  0.0000E+00  0.0000E+00  0.1010E+01  0.1010E+01
      9.996  0.0000E+00  0.0000E+00  0.1010E+01  0.1010E+01
     10.213  0.0000E+00  0.0000E+00  0.1010E+01  0.1010E+01
     10.431  0.0000E+00  0.0000E+00  0.1010E+01  0.1010E+01
     10.648  0.0000E+00  0.0000E+00  0.1010E+01  0.1010E+01
     10.865  0.0000E+00  0.0000E+00  0.1010E+01  0.1010E+01
     11.083  0.0000E+00  0.0000E+00  0.1010E+01  0.1010E+01
     11.300  0.0000E+00  0.0000E+00  0.1010E+01  0.1010E+01
     11.517  0.0000E+00  0.0000E+00  0.1010E+01  0.1010E+01
     11.734  0.0000E+00  0.0000E+00  0.1010E+01  0.1010E+01
     11.73443924    -53.45917815  301      4.22869146      1.00000000
    -53.459  0.0000E+00  0.0000E+00  0.0000E+00  0.0000E+00  0.0000E+00  0.0000E+00  0.0000E+00  0.0000E+00  0.0000E+00  0.0000E+00  0.0000E+00  0.0000E+00  0.0000E+00  0.0000E+00  0.0000E+00  0.0000E+00  0.0000E+00  0.0000E+00
    -53.242  0.0000E+00  0.0000E+00  0.0000E+00  0.0000E+00  0.0000E+00  0.0000E+00  0.0000E+00  0.0000E+00  0.0000E+00  0.0000E+00  0.0000E+00  0.0000E+00  0.0000E+00  0.0000E+00  0.0000E+00  0.0000E+00  0.0000E+00  0.0000E+00
    -53.025  0.0000E+00  0.0000E+00  0.0000E+00  0.0000E+00  0.0000E+00  0.0000E+00  0.0000E+00  0.0000E+00  0.0000E+00  0.0000E+00  0.0000E+00  0.0000E+00  0.0000E+00  0.0000E+00  0.0000E+00  0.0000E+00  0.0000E+00  0.0000E+00
    -52.807  0.0000E+00  0.0000E+00  0.0000E+00  0.0000E+00  0.0000E+00  0.0000E+00  0.0000E+00  0.0000E+00  0.0000E+00  0.0000E+00  0.0000E+00  0.0000E+00  0.0000E+00  0.0000E+00  0.0000E+00  0.0000E+00  0.0000E+00  0.0000E+00
    -52.590  0.0000E+00  0.0000E+00  0.0000E+00  0.0000E+00  0.0000E+00  0.0000E+00  0.0000E+00  0.0000E+00  0.0000E+00  0.0000E+00  0.0000E+00  0.0000E+00  0.0000E+00  0.0000E+00  0.0000E+00  0.0000E+00  0.0000E+00  0.0000E+00
    -52.373  0.0000E+00  0.0000E+00  0.0000E+00  0.0000E+00  0.0000E+00  0.0000E+00  0.0000E+00  0.0000E+00  0.0000E+00  0.0000E+00  0.0000E+00  0.0000E+00  0.0000E+00  0.0000E+00  0.0000E+00  0.0000E+00  0.0000E+00  0.0000E+00
    -52.155  0.0000E+00  0.0000E+00  0.0000E+00  0.0000E+00  0.0000E+00  0.0000E+00  0.0000E+00  0.0000E+00  0.0000E+00  0.0000E+00  0.0000E+00  0.0000E+00  0.0000E+00  0.0000E+00  0.0000E+00  0.0000E+00  0.0000E+00  0.0000E+00
    -51.938  0.0000E+00  0.0000E+00  0.0000E+00  0.0000E+00  0.0000E+00  0.0000E+00  0.0000E+00  0.0000E+00  0.0000E+00  0.0000E+00  0.0000E+00  0.0000E+00  0.0000E+00  0.0000E+00  0.0000E+00  0.0000E+00  0.0000E+00  0.0000E+00
    -51.721  0.0000E+00  0.0000E+00  0.0000E+00  0.0000E+00  0.0000E+00  0.0000E+00  0.0000E+00  0.0000E+00  0.0000E+00  0.0000E+00  0.0000E+00  0.0000E+00  0.0000E+00  0.0000E+00  0.0000E+00  0.0000E+00  0.0000E+00  0.0000E+00
    -51.503  0.0000E+00  0.0000E+00  0.0000E+00  0.0000E+00  0.0000E+00  0.0000E+00  0.0000E+00  0.0000E+00  0.0000E+00  0.0000E+00  0.0000E+00  0.0000E+00  0.0000E+00  0.0000E+00  0.0000E+00  0.0000E+00  0.0000E+00  0.0000E+00
    -51.286  0.0000E+00  0.0000E+00  0.0000E+00  0.0000E+00  0.0000E+00  0.0000E+00  0.0000E+00  0.0000E+00  0.0000E+00  0.0000E+00  0.0000E+00  0.0000E+00  0.0000E+00  0.0000E+00  0.0000E+00  0.0000E+00  0.0000E+00  0.0000E+00
    -51.069  0.0000E+00  0.0000E+00  0.0000E+00  0.0000E+00  0.0000E+00  0.0000E+00  0.0000E+00  0.0000E+00  0.0000E+00  0.0000E+00  0.0000E+00  0.0000E+00  0.0000E+00  0.0000E+00  0.0000E+00  0.0000E+00  0.0000E+00  0.0000E+00
    -50.851  0.0000E+00  0.0000E+00  0.0000E+00  0.0000E+00  0.0000E+00  0.0000E+00  0.0000E+00  0.0000E+00  0.0000E+00  0.0000E+00  0.0000E+00  0.0000E+00  0.0000E+00  0.0000E+00  0.0000E+00  0.0000E+00  0.0000E+00  0.0000E+00
    -50.634  0.6629E-15  0.2040E-10  0.1178E-04  0.1114E-08  0.6452E-04  0.1301E-09  0.1233E-11  0.4684E-12  0.2122E-10  0.4059E-13  0.2518E-15  0.6929E-11  0.7077E-15  0.5829E-11  0.1042E-09  0.3078E-14  0.9910E-15  0.2397E-10
    -50.417  0.1196E-05  0.1568E-05  0.8773E+00  0.8491E-04  0.3579E+01  0.7517E-05  0.1609E+00  0.2216E-06  0.1817E-05  0.1615E-07  0.1846E-10  0.3872E-06  0.5518E-06  0.4697E-06  0.7523E-05  0.2307E-09  0.1655E-05  0.1756E-05
    -50.199  0.9188E-04  0.5214E-05  0.3705E+01  0.3174E-03  0.1004E+01  0.9773E-06  0.2277E+01  0.2371E-05  0.7853E-05  0.1689E-06  0.3294E-09  0.1843E-07  0.4235E-04  0.2012E-05  0.2067E-05  0.1152E-09  0.1271E-03  0.6403E-05
    -49.982  0.7370E-04  0.5120E-08  0.1274E-02  0.2155E-06  0.2404E-03  0.1395E-08  0.2117E+01  0.1063E-05  0.2211E-08  0.8414E-07  0.2671E-09  0.1489E-10  0.3395E-04  0.1881E-08  0.4528E-09  0.6856E-10  0.1019E-03  0.2308E-08
    -49.765  0.1623E-06  0.7285E-11  0.7696E-12  0.2633E-09  0.1158E-13  0.2691E-11  0.2892E-01  0.1168E-07  0.3148E-13  0.9784E-09  0.5823E-12  0.1571E-12  0.7474E-07  0.2730E-11  0.6786E-14  0.1054E-11  0.2242E-06  0.3162E-12
    -49.548  0.0000E+00  0.0000E+00  0.0000E+00  0.0000E+00  0.0000E+00  0.0000E+00  0.0000E+00  0.0000E+00  0.0000E+00  0.0000E+00  0.0000E+00  0.0000E+00  0.0000E+00  0.0000E+00  0.0000E+00  0.0000E+00  0.0000E+00  0.0000E+00
    -49.330  0.0000E+00  0.0000E+00  0.0000E+00  0.0000E+00  0.0000E+00  0.0000E+00  0.0000E+00  0.0000E+00  0.0000E+00  0.0000E+00  0.0000E+00  0.0000E+00  0.0000E+00  0.0000E+00  0.0000E+00  0.0000E+00  0.0000E+00  0.0000E+00
    -49.113  0.0000E+00  0.0000E+00  0.0000E+00  0.0000E+00  0.0000E+00  0.0000E+00  0.0000E+00  0.0000E+00  0.0000E+00  0.0000E+00  0.0000E+00  0.0000E+00  0.0000E+00  0.0000E+00  0.0000E+00  0.0000E+00  0.0000E+00  0.0000E+00
    -48.896  0.0000E+00  0.0000E+00  0.0000E+00  0.0000E+00  0.0000E+00  0.0000E+00  0.0000E+00  0.0000E+00  0.0000E+00  0.0000E+00  0.0000E+00  0.0000E+00  0.0000E+00  0.0000E+00  0.0000E+00  0.0000E+00  0.0000E+00  0.0000E+00
    -48.678  0.0000E+00  0.0000E+00  0.0000E+00  0.0000E+00  0.0000E+00  0.0000E+00  0.0000E+00  0.0000E+00  0.0000E+00  0.0000E+00  0.0000E+00  0.0000E+00  0.0000E+00  0.0000E+00  0.0000E+00  0.0000E+00  0.0000E+00  0.0000E+00
    -48.461  0.0000E+00  0.0000E+00  0.0000E+00  0.0000E+00  0.0000E+00  0.0000E+00  0.0000E+00  0.0000E+00  0.0000E+00  0.0000E+00  0.0000E+00  0.0000E+00  0.0000E+00  0.0000E+00  0.0000E+00  0.0000E+00  0.0000E+00  0.0000E+00
    -48.244  0.0000E+00  0.0000E+00  0.0000E+00  0.0000E+00  0.0000E+00  0.0000E+00  0.0000E+00  0.0000E+00  0.0000E+00  0.0000E+00  0.0000E+00  0.0000E+00  0.0000E+00  0.0000E+00  0.0000E+00  0.0000E+00  0.0000E+00  0.0000E+00
    -48.026  0.1266E-19  0.8948E-24  0.6891E-18  0.5537E-14  0.1411E-19  0.7419E-14  0.4450E-21  0.1376E-22  0.8601E-23  0.1269E-19  0.1523E-20  0.8014E-25  0.4019E-20  0.4229E-24  0.2387E-24  0.1669E-19  0.1480E-19  0.9764E-24
    -47.809  0.2182E-06  0.3079E-07  0.1209E-04  0.9497E-01  0.2311E-06  0.1212E+00  0.1695E-07  0.6030E-02  0.8496E-09  0.2339E-06  0.2459E-07  0.1807E-11  0.6958E-07  0.1423E-07  0.4621E-11  0.3001E-06  0.2505E-06  0.4284E-07
    -47.592  0.4459E-05  0.6445E-04  0.2486E-03  0.1937E+01  0.4634E-05  0.2429E+01  0.2605E-05  0.1856E+01  0.1972E-06  0.4845E-05  0.4904E-06  0.1101E-08  0.1424E-05  0.2978E-04  0.1671E-09  0.6161E-05  0.5082E-05  0.8964E-04
    -47.374  0.4036E-05  0.1244E-03  0.1853E-03  0.2132E+01  0.1174E-05  0.1703E+01  0.1586E-05  0.1927E+01  0.1306E-06  0.5446E-05  0.7192E-07  0.2227E-08  0.1620E-05  0.5743E-04  0.1302E-09  0.4392E-05  0.4965E-05  0.1729E-03
    -47.157  0.7873E-06  0.1205E-04  0.3652E-04  0.4201E+00  0.2296E-06  0.3309E+00  0.4265E-06  0.7953E+00  0.3951E-07  0.1052E-05  0.1390E-07  0.2269E-09  0.3160E-06  0.5563E-05  0.4018E-10  0.8424E-06  0.9745E-06  0.1674E-04
    -46.940  0.0000E+00  0.0000E+00  0.0000E+00  0.0000E+00  0.0000E+00  0.0000E+00  0.0000E+00  0.0000E+00  0.0000E+00  0.0000E+00  0.0000E+00  0.0000E+00  0.0000E+00  0.0000E+00  0.0000E+00  0.0000E+00  0.0000E+00  0.0000E+00
    -46.723  0.0000E+00  0.0000E+00  0.0000E+00  0.0000E+00  0.0000E+00  0.0000E+00  0.0000E+00  0.0000E+00  0.0000E+00  0.0000E+00  0.0000E+00  0.0000E+00  0.0000E+00  0.0000E+00  0.0000E+00  0.0000E+00  0.0000E+00  0.0000E+00
    -46.505  0.0000E+00  0.0000E+00  0.0000E+00  0.0000E+00  0.0000E+00  0.0000E+00  0.0000E+00  0.0000E+00  0.0000E+00  0.0000E+00  0.0000E+00  0.0000E+00  0.0000E+00  0.0000E+00  0.0000E+00  0.0000E+00  0.0000E+00  0.0000E+00
    -46.288  0.0000E+00  0.0000E+00  0.0000E+00  0.0000E+00  0.0000E+00  0.0000E+00  0.0000E+00  0.0000E+00  0.0000E+00  0.0000E+00  0.0000E+00  0.0000E+00  0.0000E+00  0.0000E+00  0.0000E+00  0.0000E+00  0.0000E+00  0.0000E+00
    -46.071  0.0000E+00  0.0000E+00  0.0000E+00  0.0000E+00  0.0000E+00  0.0000E+00  0.0000E+00  0.0000E+00  0.0000E+00  0.0000E+00  0.0000E+00  0.0000E+00  0.0000E+00  0.0000E+00  0.0000E+00  0.0000E+00  0.0000E+00  0.0000E+00
    -45.853  0.0000E+00  0.0000E+00  0.0000E+00  0.0000E+00  0.0000E+00  0.0000E+00  0.0000E+00  0.0000E+00  0.0000E+00  0.0000E+00  0.0000E+00  0.0000E+00  0.0000E+00  0.0000E+00  0.0000E+00  0.0000E+00  0.0000E+00  0.0000E+00
    -45.636  0.0000E+00  0.0000E+00  0.0000E+00  0.0000E+00  0.0000E+00  0.0000E+00  0.0000E+00  0.0000E+00  0.0000E+00  0.0000E+00  0.0000E+00  0.0000E+00  0.0000E+00  0.0000E+00  0.0000E+00  0.0000E+00  0.0000E+00  0.0000E+00
    -45.419  0.0000E+00  0.0000E+00  0.0000E+00  0.0000E+00  0.0000E+00  0.0000E+00  0.0000E+00  0.0000E+00  0.0000E+00  0.0000E+00  0.0000E+00  0.0000E+00  0.0000E+00  0.0000E+00  0.0000E+00  0.0000E+00  0.0000E+00  0.0000E+00
    -45.201  0.0000E+00  0.0000E+00  0.0000E+00  0.0000E+00  0.0000E+00  0.0000E+00  0.0000E+00  0.0000E+00  0.0000E+00  0.0000E+00  0.0000E+00  0.0000E+00  0.0000E+00  0.0000E+00  0.0000E+00  0.0000E+00  0.0000E+00  0.0000E+00
    -44.984  0.0000E+00  0.0000E+00  0.0000E+00  0.0000E+00  0.0000E+00  0.0000E+00  0.0000E+00  0.0000E+00  0.0000E+00  0.0000E+00  0.0000E+00  0.0000E+00  0.0000E+00  0.0000E+00  0.0000E+00  0.0000E+00  0.0000E+00  0.0000E+00
    -44.767  0.0000E+00  0.0000E+00  0.0000E+00  0.0000E+00  0.0000E+00  0.0000E+00  0.0000E+00  0.0000E+00  0.0000E+00  0.0000E+00  0.0000E+00  0.0000E+00  0.0000E+00  0.0000E+00  0.0000E+00  0.0000E+00  0.0000E+00  0.0000E+00
    -44.549  0.0000E+00  0.0000E+00  0.0000E+00  0.0000E+00  0.0000E+00  0.0000E+00  0.0000E+00  0.0000E+00  0.0000E+00  0.0000E+00  0.0000E+00  0.0000E+00  0.0000E+00  0.0000E+00  0.0000E+00  0.0000E+00  0.0000E+00  0.0000E+00
    -44.332  0.0000E+00  0.0000E+00  0.0000E+00  0.0000E+00  0.0000E+00  0.0000E+00  0.0000E+00  0.0000E+00  0.0000E+00  0.0000E+00  0.0000E+00  0.0000E+00  0.0000E+00  0.0000E+00  0.0000E+00  0.0000E+00  0.0000E+00  0.0000E+00
    -44.115  0.0000E+00  0.0000E+00  0.0000E+00  0.0000E+00  0.0000E+00  0.0000E+00  0.0000E+00  0.0000E+00  0.0000E+00  0.0000E+00  0.0000E+00  0.0000E+00  0.0000E+00  0.0000E+00  0.0000E+00  0.0000E+00  0.0000E+00  0.0000E+00
    -43.897  0.0000E+00  0.0000E+00  0.0000E+00  0.0000E+00  0.0000E+00  0.0000E+00  0.0000E+00  0.0000E+00  0.0000E+00  0.0000E+00  0.0000E+00  0.0000E+00  0.0000E+00  0.0000E+00  0.0000E+00  0.0000E+00  0.0000E+00  0.0000E+00
    -43.680  0.0000E+00  0.0000E+00  0.0000E+00  0.0000E+00  0.0000E+00  0.0000E+00  0.0000E+00  0.0000E+00  0.0000E+00  0.0000E+00  0.0000E+00  0.0000E+00  0.0000E+00  0.0000E+00  0.0000E+00  0.0000E+00  0.0000E+00  0.0000E+00
    -43.463  0.0000E+00  0.0000E+00  0.0000E+00  0.0000E+00  0.0000E+00  0.0000E+00  0.0000E+00  0.0000E+00  0.0000E+00  0.0000E+00  0.0000E+00  0.0000E+00  0.0000E+00  0.0000E+00  0.0000E+00  0.0000E+00  0.0000E+00  0.0000E+00
    -43.246  0.0000E+00  0.0000E+00  0.0000E+00  0.0000E+00  0.0000E+00  0.0000E+00  0.0000E+00  0.0000E+00  0.0000E+00  0.0000E+00  0.0000E+00  0.0000E+00  0.0000E+00  0.0000E+00  0.0000E+00  0.0000E+00  0.0000E+00  0.0000E+00
    -43.028  0.0000E+00  0.0000E+00  0.0000E+00  0.0000E+00  0.0000E+00  0.0000E+00  0.0000E+00  0.0000E+00  0.0000E+00  0.0000E+00  0.0000E+00  0.0000E+00  0.0000E+00  0.0000E+00  0.0000E+00  0.0000E+00  0.0000E+00  0.0000E+00
    -42.811  0.0000E+00  0.0000E+00  0.0000E+00  0.0000E+00  0.0000E+00  0.0000E+00  0.0000E+00  0.0000E+00  0.0000E+00  0.0000E+00  0.0000E+00  0.0000E+00  0.0000E+00  0.0000E+00  0.0000E+00  0.0000E+00  0.0000E+00  0.0000E+00
    -42.594  0.0000E+00  0.0000E+00  0.0000E+00  0.0000E+00  0.0000E+00  0.0000E+00  0.0000E+00  0.0000E+00  0.0000E+00  0.0000E+00  0.0000E+00  0.0000E+00  0.0000E+00  0.0000E+00  0.0000E+00  0.0000E+00  0.0000E+00  0.0000E+00