Automatically generated mesh
      80
Reciprocal lattice
    0.00000000000000    0.00000000000000    0.00000000000000             1
    0.14285714285715   -0.00000000000000    0.00000000000000             4
    0.28571428571428    0.00000000000000    0.00000000000000             4
    0.42857142857143   -0.00000000000000    0.00000000000000             4
    0.14285714285715    0.14285714285715    0.00000000000000             2
    0.28571428571428    0.14285714285715    0.00000000000000             4
    0.42857142857143    0.14285714285715    0.00000000000000             4
   -0.42857142857143    0.14285714285715    0.00000000000000             4
   -0.28571428571428    0.14285714285715    0.00000000000000             4
   -0.14285714285715    0.14285714285715    0.00000000000000             2
    0.28571428571428    0.28571428571428    0.00000000000000             2
    0.42857142857143    0.28571428571428    0.00000000000000             4
   -0.42857142857143    0.28571428571428    0.00000000000000             4
   -0.28571428571428    0.28571428571428    0.00000000000000             2
    0.42857142857143    0.42857142857143    0.00000000000000             2
   -0.42857142857143    0.42857142857143    0.00000000000000             2
    0.00000000000000    0.00000000000000    0.11111111111111             2
    0.14285714285715   -0.00000000000000    0.11111111111111             8
    0.28571428571428    0.00000000000000    0.11111111111111             8
    0.42857142857143   -0.00000000000000    0.11111111111111             8
    0.14285714285715    0.14285714285715    0.11111111111111             4
    0.28571428571428    0.14285714285715    0.11111111111111             8
    0.42857142857143    0.14285714285715    0.11111111111111             8
   -0.42857142857143    0.14285714285715    0.11111111111111             8
   -0.28571428571428    0.14285714285715    0.11111111111111             8
   -0.14285714285715    0.14285714285715    0.11111111111111             4
    0.28571428571428    0.28571428571428    0.11111111111111             4
    0.42857142857143    0.28571428571428    0.11111111111111             8
   -0.42857142857143    0.28571428571428    0.11111111111111             8
   -0.28571428571428    0.28571428571428    0.11111111111111             4
    0.42857142857143    0.42857142857143    0.11111111111111             4
   -0.42857142857143    0.42857142857143    0.11111111111111             4
    0.00000000000000    0.00000000000000    0.22222222222222             2
    0.14285714285715   -0.00000000000000    0.22222222222222             8
    0.28571428571428    0.00000000000000    0.22222222222222             8
    0.42857142857143   -0.00000000000000    0.22222222222222             8
    0.14285714285715    0.14285714285715    0.22222222222222             4
    0.28571428571428    0.14285714285715    0.22222222222222             8
    0.42857142857143    0.14285714285715    0.22222222222222             8
   -0.42857142857143    0.14285714285715    0.22222222222222             8
   -0.28571428571428    0.14285714285715    0.22222222222222             8
   -0.14285714285715    0.14285714285715    0.22222222222222             4
    0.28571428571428    0.28571428571428    0.22222222222222             4
    0.42857142857143    0.28571428571428    0.22222222222222             8
   -0.42857142857143    0.28571428571428    0.22222222222222             8
   -0.28571428571428    0.28571428571428    0.22222222222222             4
    0.42857142857143    0.42857142857143    0.22222222222222             4
   -0.42857142857143    0.42857142857143    0.22222222222222             4
    0.00000000000000    0.00000000000000    0.33333333333334             2
    0.14285714285715   -0.00000000000000    0.33333333333334             8
    0.28571428571428    0.00000000000000    0.33333333333334             8
    0.42857142857143   -0.00000000000000    0.33333333333334             8
    0.14285714285715    0.14285714285715    0.33333333333334             4
    0.28571428571428    0.14285714285715    0.33333333333334             8
    0.42857142857143    0.14285714285715    0.33333333333334             8
   -0.42857142857143    0.14285714285715    0.33333333333334             8
   -0.28571428571428    0.14285714285715    0.33333333333334             8
   -0.14285714285715    0.14285714285715    0.33333333333334             4
    0.28571428571428    0.28571428571428    0.33333333333334             4
    0.42857142857143    0.28571428571428    0.33333333333334             8
   -0.42857142857143    0.28571428571428    0.33333333333334             8
   -0.28571428571428    0.28571428571428    0.33333333333334             4
    0.42857142857143    0.42857142857143    0.33333333333334             4
   -0.42857142857143    0.42857142857143    0.33333333333334             4
    0.00000000000000    0.00000000000000    0.44444444444444             2
    0.14285714285715   -0.00000000000000    0.44444444444444             8
    0.28571428571428    0.00000000000000    0.44444444444444             8
    0.42857142857143   -0.00000000000000    0.44444444444444             8
    0.14285714285715    0.14285714285715    0.44444444444444             4
    0.28571428571428    0.14285714285715    0.44444444444444             8
    0.42857142857143    0.14285714285715    0.44444444444444             8
   -0.42857142857143    0.14285714285715    0.44444444444444             8
   -0.28571428571428    0.14285714285715    0.44444444444444             8
   -0.14285714285715    0.14285714285715    0.44444444444444             4
    0.28571428571428    0.28571428571428    0.44444444444444             4
    0.42857142857143    0.28571428571428    0.44444444444444             8
   -0.42857142857143    0.28571428571428    0.44444444444444             8
   -0.28571428571428    0.28571428571428    0.44444444444444             4
    0.42857142857143    0.42857142857143    0.44444444444444             4
   -0.42857142857143    0.42857142857143    0.44444444444444             4
Tetrahedra
       664    0.00037792894936
         4        18        25        26        34
         4        18        19        25        34
         4        19        25        34        35
         4        25        26        34        42
         4        25        34        41        42
         4        25        34        35        41
         4        19        24        25        35
         4        19        20        24        35
         4        20        24        35        36
         4        24        25        35        41
         4        24        35        40        41
         4        24        35        36        40
         4        20        23        24        36
         4        20        20        23        36
         4        20        23        36        36
         4        23        24        36        40
         4        23        36        39        40
         4        23        36        36        39
         4        20        22        23        36
         4        19        20        22        36
         4        19        22        35        36
         4        22        23        36        39
         4        22        36        38        39
         4        22        35        36        38
         4        19        21        22        35
         4        18        19        21        35
         4        18        21        34        35
         4        21        22        35        38
         4        21        35        37        38
         4        21        34        35        37
         4        18        18        21        34
         4        17        18        18        34
         4        17        18        33        34
         4        18        21        34        37
         4        18        34        34        37
         4        18        33        34        34
         4        17        18        26        33
         4        18        26        33        34
         4        26        33        34        42
         4        41        42        46        58
         4        41        46        57        58
         4        46        57        58        62
         4        41        45        46        57
         4        40        41        45        57
         4        40        45        56        57
         4        45        46        57        62
         4        45        57        61        62
         4        45        56        57        61
         4        40        44        45        56
         4        39        40        44        56
         4        39        44        55        56
         4        44        45        56        61
         4        44        56        60        61
         4        44        55        56        60
         4        39        43        44        55
         4        38        39        43        55
         4        38        43        54        55
         4        43        44        55        60
         4        43        55        59        60
         4        43        54        55        59
         4        38        38        43        54
         4        37        38        38        54
         4        37        38        53        54
         4        38        43        54        59
         4        38        54        54        59
         4        38        53        54        54
         4        35        37        38        53
         4        34        35        37        53
         4        34        35        50        53
         4        35        38        53        54
         4        35        51        53        54
         4        35        50        51        53
         4        34        35        41        50
         4        34        41        42        50
         4        41        42        50        58
         4        35        41        50        51
         4        41        50        51        57
         4        41        50        57        58
         4        56        57        61        73
         4        57        61        62        73
         4        61        62        73        78
         4        56        61        72        73
         4        61        72        73        77
         4        61        73        77        78
         4        61        62        64        78
         4        61        64        77        78
         4        64        77        78        80
         4        61        63        64        77
         4        60        61        63        77
         4        60        63        76        77
         4        63        64        77        80
         4        63        77        79        80
         4        63        76        77        79
         4        60        60        63        76
         4        59        60        60        76
         4        59        60        75        76
         4        60        63        76        79
         4        60        76        76        79
         4        60        75        76        76
         4        55        59        60        75
         4        54        55        59        75
         4        54        55        70        75
         4        55        60        75        76
         4        55        71        75        76
         4        55        70        71        75
         4        52        54        55        70
         4        51        52        54        70
         4        51        52        67        70
         4        52        55        70        71
         4        52        68        70        71
         4        52        67        68        70
         4        51        52        56        67
         4        51        56        57        67
         4        56        57        67        73
         4        52        56        67        68
         4        56        67        68        72
         4        56        67        72        73
         4        71        72        72        76
         4        72        72        76        77
         4        72        76        77        77
         4        71        71        72        76
         4        71        72        76        76
         4        72        76        76        77
         4        76        77        77        79
         4        77        77        79        80
         4        77        79        80        80
         4        76        76        77        79
         4        76        77        79        79
         4        77        79        79        80
         4        79        80        80        80
         2        79        79        80        80
         4        68        71        71        72
         4        68        68        71        71
         8        68        68        68        71
         4        68        71        72        72
         4        68        68        71        72
         4         2        18        25        26
         4         2        18        19        25
         4         2         3        19        25
         4         2        10        25        26
         4         2         9        10        25
         4         2         3         9        25
         4         3        19        24        25
         4         3        19        20        24
         4         3         4        20        24
         4         3         9        24        25
         4         3         8         9        24
         4         3         4         8        24
         4         4        20        23        24
         4         4        20        20        23
         4         4         4        20        23
         4         4         8        23        24
         4         4         7         8        23
         4         4         4         7        23
         4         4        20        22        23
         4         4        19        20        22
         4         3         4        19        22
         4         4         7        22        23
         4         4         6         7        22
         4         3         4         6        22
         4         3        19        21        22
         4         3        18        19        21
         4         2         3        18        21
         4         3         6        21        22
         4         3         5         6        21
         4         2         3         5        21
         4         2        18        18        21
         4         2        17        18        18
         4         1         2        17        18
         4         2         5        18        21
         4         2         2         5        18
         4         1         2         2        18
         4         1        17        18        26
         4         1         2        18        26
         4         1         2        10        26
         4         9        10        14        26
         4         9        14        25        26
         4        14        25        26        30
         4         9        13        14        25
         4         8         9        13        25
         4         8        13        24        25
         4        13        14        25        30
         4        13        25        29        30
         4        13        24        25        29
         4         8        12        13        24
         4         7         8        12        24
         4         7        12        23        24
         4        12        13        24        29
         4        12        24        28        29
         4        12        23        24        28
         4         7        11        12        23
         4         6         7        11        23
         4         6        11        22        23
         4        11        12        23        28
         4        11        23        27        28
         4        11        22        23        27
         4         6         6        11        22
         4         5         6         6        22
         4         5         6        21        22
         4         6        11        22        27
         4         6        22        22        27
         4         6        21        22        22
         4         2         3         9        18
         4         2         9        10        18
         4         9        10        18        26
         4         3         9        18        19
         4         9        18        19        25
         4         9        18        25        26
         4        24        25        29        41
         4        25        29        30        41
         4        29        30        41        46
         4        24        29        40        41
         4        29        40        41        45
         4        29        41        45        46
         4        29        30        32        46
         4        29        32        45        46
         4        32        45        46        48
         4        29        31        32        45
         4        28        29        31        45
         4        28        31        44        45
         4        31        32        45        48
         4        31        45        47        48
         4        31        44        45        47
         4        28        28        31        44
         4        27        28        28        44
         4        27        28        43        44
         4        28        31        44        47
         4        28        44        44        47
         4        28        43        44        44
         4        23        27        28        43
         4        22        23        27        43
         4        22        23        38        43
         4        23        28        43        44
         4        23        39        43        44
         4        23        38        39        43
         4        20        22        23        38
         4        19        20        22        38
         4        19        20        35        38
         4        20        23        38        39
         4        20        36        38        39
         4        20        35        36        38
         4        44        45        47        61
         4        45        47        48        61
         4        47        48        61        64
         4        44        47        60        61
         4        47        60        61        63
         4        47        61        63        64
         4        47        48        48        64
         4        47        48        63        64
         4        48        63        64        64
         4        45        47        48        63
         4        44        45        47        63
         4        44        45        60        63
         4        45        48        63        64
         4        45        61        63        64
         4        45        60        61        63
         4        40        44        45        60
         4        39        40        44        60
         4        39        40        55        60
         4        40        45        60        61
         4        40        56        60        61
         4        40        55        56        60
         4        36        39        40        55
         4        36        36        39        55
         4        36        36        52        55
         4        36        40        55        56
         4        36        52        55        56
         4        36        52        52        55
         4        36        36        39        52
         4        36        39        40        52
         4        39        40        52        56
         4        36        39        52        52
         4        39        52        52        55
         4        39        52        55        56
         4        54        55        59        71
         4        55        59        60        71
         4        59        60        71        76
         4        54        59        70        71
         4        59        70        71        75
         4        59        71        75        76
         4        60        61        63        79
         4        61        63        64        79
         4        61        64        79        80
         4        60        61        76        79
         4        61        76        77        79
         4        61        77        79        80
         4        61        62        64        80
         4        61        62        77        80
         4        62        77        78        80
         4        57        61        62        77
         4        56        57        61        77
         4        56        57        72        77
         4        57        62        77        78
         4        57        73        77        78
         4        57        72        73        77
         4        51        56        57        72
         4        51        52        56        72
         4        51        52        68        72
         4        51        57        72        73
         4        51        67        72        73
         4        51        67        68        72
         4        51        52        54        68
         4        52        54        55        68
         4        54        55        68        71
         4        51        54        67        68
         4        54        67        68        70
         4        54        68        70        71
         4        69        70        70        70
         4        70        70        70        75
         2        70        70        75        75
         2        69        69        70        70
         4        70        71        75        75
         4        71        75        75        76
         4        71        75        76        76
         4        70        70        71        75
         4        70        71        71        75
         4        71        71        75        76
         4        72        73        77        77
         4        73        77        77        78
         4        73        77        78        78
         4        72        72        73        77
         4        72        73        73        77
         4        73        73        77        78
         4        73        74        78        78
         4        73        73        74        78
         4        73        74        74        78
         4        66        73        73        74
         4        66        67        73        73
         4        66        67        67        73
         4        66        73        74        74
         4        66        66        73        74
         4        66        66        67        73
         4        66        67        67        69
         4        67        67        69        70
         4        67        69        70        70
         4        66        66        67        69
         4        66        67        69        69
         4        67        69        69        70
         4        53        66        67        69
         4        53        67        69        70
         4        53        54        67        70
         4        50        53        66        67
         4        50        51        53        67
         4        51        53        54        67
         4        55        68        68        71
         4        55        68        71        72
         4        55        56        68        72
         4        52        55        68        68
         4        52        52        55        68
         4        52        55        56        68
         4        57        66        67        73
         4        57        66        73        74
         4        57        58        66        74
         4        51        57        66        67
         4        50        51        57        66
         4        50        57        58        66
         4        58        65        66        74
         4        50        58        65        66
         4        49        50        58        65
         4        50        65        66        66
         4        50        66        66        69
         4        50        53        66        69
         4        49        50        65        66
         4        49        50        50        66
         4        50        50        53        66
         4        34        50        57        58
         4        34        50        51        57
         4        34        35        51        57
         4        34        42        57        58
         4        34        41        42        57
         4        34        35        41        57
         4        35        51        56        57
         4        35        51        52        56
         4        35        36        52        56
         4        35        41        56        57
         4        35        40        41        56
         4        35        36        40        56
         4        36        52        54        55
         4        36        51        52        54
         4        35        36        51        54
         4        36        39        54        55
         4        36        38        39        54
         4        35        36        38        54
         4        34        50        50        53
         4        34        49        50        50
         4        33        34        49        50
         4        34        37        50        53
         4        34        34        37        50
         4        33        34        34        50
         4        33        49        50        58
         4        33        34        50        58
         4        33        34        42        58
         4        26        41        42        46
         4        25        26        41        46
         4        25        26        30        46
         4        25        41        45        46
         4        25        40        41        45
         4        24        25        40        45
         4        25        30        45        46
         4        25        29        30        45
         4        24        25        29        45
         4        24        40        44        45
         4        24        39        40        44
         4        23        24        39        44
         4        24        29        44        45
         4        24        28        29        44
         4        23        24        28        44
         4        22        38        38        43
         4        22        37        38        38
         4        21        22        37        38
         4        22        27        38        43
         4        22        22        27        38
         4        21        22        22        38
         4        18        34        35        41
         4        18        34        41        42
         4        18        26        41        42
         4        18        19        35        41
         4        18        19        25        41
         4        18        25        26        41
         4         9        24        25        29
         4         9        25        29        30
         4         9        14        29        30
         4         8         9        24        29
         4         8         9        13        29
         4         9        13        14        29
         4        14        29        30        32
         4        13        14        29        32
         4        13        14        16        32
         4        13        29        31        32
         4        13        28        29        31
         4        12        13        28        31
         4        13        16        31        32
         4        13        15        16        31
         4        12        13        15        31
         4        12        28        28        31
         4        12        27        28        28
         4        11        12        27        28
         4        12        15        28        31
         4        12        12        15        28
         4        11        12        12        28
         4         6        20        22        23
         4         6        19        20        22
         4         3         6        19        20
         4         6         7        20        23
         4         4         6         7        20
         4         3         4         6        20
         4        12        13        15        29
         4        13        15        16        29
         4        15        16        29        32
         4        12        15        28        29
         4        15        28        29        31
         4        15        29        31        32
         4        15        16        16        32
         4        15        16        31        32
         4        16        31        32        32
         4         8        12        13        28
         4         7         8        12        28
         4         7         8        23        28
         4         8        13        28        29
         4         8        24        28        29
         4         8        23        24        28
         4         4         4         7        20
         4         4         7         8        20
         4         7         8        20        24
         4         4         7        20        20
         4         7        20        20        23
         4         7        20        23        24
         4        22        23        27        39