       N       E                     dE             d eps       ncg     rms          rms(c)
DAV:   1     0.203100519398E+04    0.20310E+04   -0.88977E+04 34600   0.198E+03
DAV:   2     0.120550148764E+03   -0.19105E+04   -0.18554E+04 32000   0.580E+02
DAV:   3    -0.845316473148E+02   -0.20508E+03   -0.18234E+03 45420   0.189E+02
DAV:   4    -0.987281736987E+02   -0.14197E+02   -0.13855E+02 47140   0.512E+01
DAV:   5    -0.990437535859E+02   -0.31558E+00   -0.31481E+00 44960   0.813E+00    0.272E+01
RMM:   6    -0.112989600366E+03   -0.13946E+02   -0.16552E+02 32044   0.837E+01    0.506E+01
RMM:   7    -0.907242468755E+02    0.22265E+02   -0.42039E+01 32003   0.499E+01    0.101E+01
RMM:   8    -0.912631600710E+02   -0.53891E+00   -0.29053E+00 41134   0.500E+00    0.459E+00
RMM:   9    -0.913191572526E+02   -0.55997E-01   -0.79952E-01 45580   0.269E+00    0.238E+00
RMM:  10    -0.913277590310E+02   -0.86018E-02   -0.24096E-01 45875   0.148E+00    0.102E+00
RMM:  11    -0.913342844149E+02   -0.65254E-02   -0.47536E-02 43611   0.821E-01    0.354E-01
RMM:  12    -0.913384996580E+02   -0.42152E-02   -0.11149E-02 43164   0.329E-01    0.183E-01
RMM:  13    -0.913384881704E+02    0.11488E-04   -0.23297E-03 31022   0.169E-01    0.103E-01
RMM:  14    -0.913384992190E+02   -0.11049E-04   -0.72535E-04 22168   0.113E-01
   1 F= -.98409698E+02 E0= -.98399354E+02  d E =-.984097E+02  mag=    -0.0000
       N       E                     dE             d eps       ncg     rms          rms(c)
DAV:   1    -0.913401320255E+02   -0.16439E-02   -0.42011E-02 36360   0.845E-01    0.306E-01
RMM:   2    -0.913390744320E+02    0.10576E-02   -0.26913E-03 33294   0.327E-01    0.224E-01
RMM:   3    -0.913387810276E+02    0.29340E-03   -0.21261E-03 28201   0.305E-01    0.155E-01
RMM:   4    -0.913385644553E+02    0.21657E-03   -0.62337E-04 23746   0.158E-01    0.470E-02
RMM:   5    -0.913385773836E+02   -0.12928E-04   -0.15665E-04 18082   0.587E-02
   2 F= -.98409997E+02 E0= -.98399728E+02  d E =-.299310E-03  mag=    -0.0000
       N       E                     dE             d eps       ncg     rms          rms(c)
DAV:   1    -0.913385852711E+02   -0.20816E-04   -0.14869E-03 38160   0.161E-01    0.559E-02
RMM:   2    -0.913385568306E+02    0.28441E-04   -0.11824E-04 16453   0.671E-02
   3 F= -.98410017E+02 E0= -.98399774E+02  d E =-.319658E-03  mag=     0.0000
