 vasp.6.4.1 05Apr23 (build Jun 01 2023 13:46:15) complex                        
  
 executed on             LinuxIFC date 2023.12.16  23:59:48
 running   20 mpi-ranks, on    5 nodes
 distrk:  each k-point on   20 cores,    1 groups
 distr:  one band on NCORE=   1 cores,   20 groups


--------------------------------------------------------------------------------------------------------


 INCAR:
   ALGO = Fast
   EDIFF = 0.0002
   ENCUT = 550
   IBRION = -1
   ISIF = 4
   ISMEAR = -5
   ISPIN = 2
   IVDW = 13
   LASPH = True
   LMAXMIX = 4
   LORBIT = 11
   LREAL = Auto
   LWAVE = False
   MAGMOM = 1*2.508 2*-2.508 2*2.508 2*-2.508 1*2.508 8*0.0
   NELM = 100
   NSW = 0
   PREC = Accurate
   SIGMA = 0.05

 POTCAR:   PAW_PBE Fe_pv 06Sep2000                
 POTCAR:   PAW_PBE Se 06Sep2000                   
 -----------------------------------------------------------------------------
|                                                                             |
|           W    W    AA    RRRRR   N    N  II  N    N   GGGG   !!!           |
|           W    W   A  A   R    R  NN   N  II  NN   N  G    G  !!!           |
|           W    W  A    A  R    R  N N  N  II  N N  N  G       !!!           |
|           W WW W  AAAAAA  RRRRR   N  N N  II  N  N N  G  GGG   !            |
|           WW  WW  A    A  R   R   N   NN  II  N   NN  G    G                |
|           W    W  A    A  R    R  N    N  II  N    N   GGGG   !!!           |
|                                                                             |
|     For optimal performance we recommend to set                             |
|       NCORE = 2 up to number-of-cores-per-socket                            |
|     NCORE specifies how many cores store one orbital (NPAR=cpu/NCORE).      |
|     This setting can greatly improve the performance of VASP for DFT.       |
|     The default, NCORE=1 might be grossly inefficient on modern             |
|     multi-core architectures or massively parallel machines. Do your        |
|     own testing! More info at https://www.vasp.at/wiki/index.php/NCORE      |
|     Unfortunately you need to use the default for GW and RPA                |
|     calculations (for HF NCORE is supported but not extensively tested      |
|     yet).                                                                   |
|                                                                             |
 -----------------------------------------------------------------------------

 POTCAR:   PAW_PBE Fe_pv 06Sep2000                
   VRHFIN =Fe:  3pd7s1                                                                              
   LEXCH  = PE                                                                                      
   EATOM  =  2456.8974 eV,  180.5769 Ry                                                             
                                                                                                    
   TITEL  = PAW_PBE Fe_pv 06Sep2000                                                                 
   LULTRA =        F    use ultrasoft PP ?                                                          
   IUNSCR =        1    unscreen: 0-lin 1-nonlin 2-no                                               
   RPACOR =    1.750    partial core radius                                                         
   POMASS =   55.847; ZVAL   =   14.000    mass and valenz                                          
   RCORE  =    2.200    outmost cutoff radius                                                       
   RWIGS  =    2.200; RWIGS  =    1.164    wigner-seitz radius (au A)                               
   ENMAX  =  293.238; ENMIN  =  219.929 eV                                                          
   RCLOC  =    1.701    cutoff for local pot                                                        
   LCOR   =        T    correct aug charges                                                         
   LPAW   =        T    paw PP                                                                      
   EAUG   =  578.342                                                                                
   DEXC   =    -.002                                                                                
   RMAX   =    2.693    core radius for proj-oper                                                   
   RAUG   =    1.300    factor for augmentation sphere                                              
   RDEP   =    2.296    radius for radial grids                                                     
   QCUT   =   -4.642; QGAM   =    9.285    optimization parameters                                  
                                                                                                    
   Description                                                                                      
     l     E      TYP  RCUT    TYP  RCUT                                                            
     1   .000     23  2.000                                                                         
     1  -.400     23  2.000                                                                         
     2   .000     23  2.200                                                                         
     2   .000     23  2.200                                                                         
     0   .000     23  2.000                                                                         
     0  2.000     23  2.000                                                                         
     3   .000      7   .000                                                                         
  local pseudopotential read in
  partial core-charges read in
  atomic valenz-charges read in
  non local Contribution for L=           1  read in
    real space projection operators read in
  non local Contribution for L=           1  read in
    real space projection operators read in
  non local Contribution for L=           2  read in
    real space projection operators read in
  non local Contribution for L=           2  read in
    real space projection operators read in
  non local Contribution for L=           0  read in
    real space projection operators read in
  non local Contribution for L=           0  read in
    real space projection operators read in
    PAW grid and wavefunctions read in
 
   number of l-projection  operators is LMAX  =           6
   number of lm-projection operators is LMMAX =          18
 
 POTCAR:   PAW_PBE Se 06Sep2000                   
   VRHFIN =Se: s2p4                                                                                 
   LEXCH  = PE                                                                                      
   EATOM  =   256.9644 eV,   18.8864 Ry                                                             
                                                                                                    
   TITEL  = PAW_PBE Se 06Sep2000                                                                    
   LULTRA =        F    use ultrasoft PP ?                                                          
   IUNSCR =        1    unscreen: 0-lin 1-nonlin 2-no                                               
   RPACOR =    1.900    partial core radius                                                         
   POMASS =   78.960; ZVAL   =    6.000    mass and valenz                                          
   RCORE  =    2.100    outmost cutoff radius                                                       
   RWIGS  =    2.200; RWIGS  =    1.164    wigner-seitz radius (au A)                               
   ENMAX  =  211.534; ENMIN  =  158.651 eV                                                          
   ICORE  =        3    local potential                                                             
   LCOR   =        T    correct aug charges                                                         
   LPAW   =        T    paw PP                                                                      
   EAUG   =  446.842                                                                                
   DEXC   =    -.031                                                                                
   RMAX   =    3.170    core radius for proj-oper                                                   
   RAUG   =    1.300    factor for augmentation sphere                                              
   RDEP   =    2.177    radius for radial grids                                                     
   QCUT   =   -3.943; QGAM   =    7.886    optimization parameters                                  
                                                                                                    
   Description                                                                                      
     l     E      TYP  RCUT    TYP  RCUT                                                            
     0   .000     23  2.100                                                                         
     0   .000     23  2.100                                                                         
     1   .000     23  2.100                                                                         
     1   .000     23  2.100                                                                         
     2   .000     23  2.100                                                                         
     3  -.100      7  2.100                                                                         
  local pseudopotential read in
  partial core-charges read in
  atomic valenz-charges read in
  non local Contribution for L=           0  read in
    real space projection operators read in
  non local Contribution for L=           0  read in
    real space projection operators read in
  non local Contribution for L=           1  read in
    real space projection operators read in
  non local Contribution for L=           1  read in
    real space projection operators read in
  non local Contribution for L=           2  read in
    real space projection operators read in
    PAW grid and wavefunctions read in
 
   number of l-projection  operators is LMAX  =           5
   number of lm-projection operators is LMMAX =          13
 
 Optimization of the real space projectors (new method)

 maximal supplied QI-value         = 17.01
 optimisation between [QCUT,QGAM] = [ 11.91, 23.98] = [ 39.69,161.04] Ry 
 Optimized for a Real-space Cutoff    1.45 Angstroem

   l    n(q)    QCUT    max X(q) W(low)/X(q) W(high)/X(q)  e(spline) 
   1     10    11.905     4.550    0.27E-05    0.11E-05    0.28E-07
   1     10    11.905     5.234    0.10E-04    0.61E-04    0.17E-06
   2      9    11.905     3.960    0.19E-04    0.73E-05    0.50E-07
   2      9    11.905    29.565    0.24E-03    0.51E-04    0.27E-06
   0     10    11.905    23.582    0.17E-04    0.10E-05    0.14E-07
   0     10    11.905    39.747    0.23E-04    0.68E-05    0.74E-07
 Optimization of the real space projectors (new method)

 maximal supplied QI-value         = 17.95
 optimisation between [QCUT,QGAM] = [ 11.85, 23.88] = [ 39.31,159.64] Ry 
 Optimized for a Real-space Cutoff    1.18 Angstroem

   l    n(q)    QCUT    max X(q) W(low)/X(q) W(high)/X(q)  e(spline) 
   0      8    11.849     6.499    0.17E-04    0.94E-05    0.89E-08
   0      8    11.849    52.623    0.21E-03    0.78E-04    0.81E-07
   1      8    11.849     4.229    0.79E-04    0.83E-04    0.23E-07
   1      8    11.849    29.991    0.12E-03    0.43E-03    0.14E-06
   2      7    11.849     3.719    0.22E-03    0.64E-04    0.38E-07
 PAW_PBE Fe_pv 06Sep2000                :
 energy of atom  1       EATOM=-2456.8974
 kinetic energy error for atom=    0.0060 (will be added to EATOM!!)
 PAW_PBE Se 06Sep2000                   :
 energy of atom  2       EATOM= -256.9644
 kinetic energy error for atom=    0.0007 (will be added to EATOM!!)
 
 
 POSCAR: Fe8 Se8
  positions in direct lattice
  velocities in cartesian coordinates
 exchange correlation table for  LEXCH =        8
   RHO(1)=    0.500       N(1)  =     2000
   RHO(2)=  100.500       N(2)  =     4000
 


--------------------------------------------------------------------------------------------------------


 ion  position               nearest neighbor table
   1  0.000  0.000  0.000-  11 2.29  14 2.29   5 2.40   8 2.40
   2  0.000  0.500  0.000-  12 2.29  13 2.29   6 2.40   7 2.40
   3  0.500  0.000  0.000-   9 2.29  16 2.29   6 2.40   7 2.40
   4  0.500  0.500  0.000-  10 2.29  15 2.29   5 2.40   8 2.40
   5  0.250  0.250  0.000-   9 2.29  13 2.29   1 2.40   4 2.40
   6  0.250  0.750  0.000-  10 2.29  14 2.29   2 2.40   3 2.40
   7  0.750  0.250  0.000-  11 2.29  15 2.29   2 2.40   3 2.40
   8  0.750  0.750  0.000-  12 2.29  16 2.29   1 2.40   4 2.40
   9  0.375  0.125  0.672-   3 2.29   5 2.29
  10  0.375  0.625  0.672-   4 2.29   6 2.29
  11  0.875  0.125  0.672-   1 2.29   7 2.29
  12  0.875  0.625  0.672-   2 2.29   8 2.29
  13  0.125  0.375  0.328-   2 2.29   5 2.29
  14  0.125  0.875  0.328-   1 2.29   6 2.29
  15  0.625  0.375  0.328-   4 2.29   7 2.29
  16  0.625  0.875  0.328-   3 2.29   8 2.29
 
  LATTYP: Found a base centered orthorhombic cell.
 ALAT       =     9.5925590250
 B/A-ratio  =     1.1710895221
 C/A-ratio  =     0.5765709059
  
  Lattice vectors:
  
 A1 = (   4.7962795125,  -5.6168726823,   0.0000000000)
 A2 = (   4.7962795125,   5.6168726823,   0.0000000000)
 A3 = (   0.0000000000,   0.0000000000,   5.5307904473)


Analysis of symmetry for initial positions (statically):
=====================================================================
 Subroutine PRICEL returns following result:
 
  LATTYP: Found a base centered orthorhombic cell.
 ALAT       =     4.7962795125
 B/A-ratio  =     1.1710895221
 C/A-ratio  =     1.1531418119
  
  Lattice vectors:
  
 A1 = (   2.3981397563,  -2.8084363411,   0.0000000000)
 A2 = (   2.3981397563,   2.8084363411,   0.0000000000)
 A3 = (   0.0000000000,   0.0000000000,   5.5307904473)
 
   4 primitive cells build up your supercell.
 

 Routine SETGRP: Setting up the symmetry group for a 
 base centered orthorhombic supercell.


 Subroutine GETGRP returns: Found  8 space group operations
 (whereof  4 operations were pure point group operations)
 out of a pool of  8 trial point group operations.


The static configuration has the point symmetry C_2h.
 The point group associated with its full space group is D_2h.


Analysis of symmetry for dynamics (positions and initial velocities):
=====================================================================
 Subroutine PRICEL returns following result:
 
  LATTYP: Found a base centered orthorhombic cell.
 ALAT       =     4.7962795125
 B/A-ratio  =     1.1710895221
 C/A-ratio  =     1.1531418119
  
  Lattice vectors:
  
 A1 = (   2.3981397563,  -2.8084363411,   0.0000000000)
 A2 = (   2.3981397563,   2.8084363411,   0.0000000000)
 A3 = (   0.0000000000,   0.0000000000,   5.5307904473)
 
   4 primitive cells build up your supercell.
 

 Routine SETGRP: Setting up the symmetry group for a 
 base centered orthorhombic supercell.


 Subroutine GETGRP returns: Found  8 space group operations
 (whereof  4 operations were pure point group operations)
 out of a pool of  8 trial point group operations.


The dynamic configuration has the point symmetry C_2h.
 The point group associated with its full space group is D_2h.


Analysis of structural, dynamic, and magnetic symmetry:
=====================================================================
 Subroutine PRICEL returns following result:
 
  LATTYP: Found a base centered orthorhombic cell.
 ALAT       =     4.7962795125
 B/A-ratio  =     1.1710895221
 C/A-ratio  =     1.1531418119
  
  Lattice vectors:
  
 A1 = (   2.3981397563,  -2.8084363411,   0.0000000000)
 A2 = (   2.3981397563,   2.8084363411,   0.0000000000)
 A3 = (   0.0000000000,   0.0000000000,   5.5307904473)
 
   4 primitive cells build up your supercell.
 

 Routine SETGRP: Setting up the symmetry group for a 
 base centered orthorhombic supercell.


 Subroutine GETGRP returns: Found  8 space group operations
 (whereof  4 operations were pure point group operations)
 out of a pool of  8 trial point group operations.


The overall configuration has the point symmetry C_2h.
 The point group associated with its full space group is D_2h.


 Subroutine INISYM returns: Found  8 space group operations
 (whereof  4 operations are pure point group operations),
 and found     4 'primitive' translations


----------------------------------------------------------------------------------------

                                     Primitive cell                                     

  volume of cell :      74.5000

  direct lattice vectors                    reciprocal lattice vectors
     2.398139756 -2.808436341  0.000000000     0.208494938 -0.178035013  0.000000000
     2.398139756  2.808436341  0.000000000     0.208494938  0.178035013  0.000000000
     0.000000000  0.000000000  5.530790447     0.000000000  0.000000000  0.180805982

  length of vectors
     3.693018951  3.693018951  5.530790447     0.274165288  0.274165288  0.180805982

  position of ions in fractional coordinates (direct lattice)
     0.000000000  0.000000000  0.000000000
     0.500000000  0.500000000  0.000000000
     0.750000000  0.250000000  0.672409581
     0.250000000  0.750000000  0.327590419

  ion indices of the primitive-cell ions
   primitive index   ion index
                 1           1
                 2           5
                 3          11
                 4          14

----------------------------------------------------------------------------------------

 
 
 KPOINTS: KPOINTS                                 

Automatic generation of k-mesh.
 Grid dimensions read from file:
 generate k-points for:    7    7    9

 Generating k-lattice:

  Cartesian coordinates                     Fractional coordinates (reciprocal lattice)
     0.014892496 -0.012716787  0.000000000     0.142857143  0.000000000  0.000000000
     0.014892496  0.012716787  0.000000000     0.000000000  0.142857143  0.000000000
     0.000000000  0.000000000  0.020089554     0.000000000  0.000000000  0.111111111

  Length of vectors
     0.019583235  0.019583235  0.020089554

  Shift w.r.t. Gamma in fractional coordinates (k-lattice)
     0.000000000  0.000000000  0.000000000

 TETIRR: Found    664 inequivalent tetrahedra from     2646
 
 Subroutine IBZKPT returns following result:
 ===========================================
 
 Found     80 irreducible k-points:
 
 Following reciprocal coordinates:
            Coordinates               Weight
  0.000000  0.000000  0.000000      1.000000
  0.142857 -0.000000  0.000000      4.000000
  0.285714  0.000000  0.000000      4.000000
  0.428571 -0.000000  0.000000      4.000000
  0.142857  0.142857  0.000000      2.000000
  0.285714  0.142857  0.000000      4.000000
  0.428571  0.142857  0.000000      4.000000
 -0.428571  0.142857  0.000000      4.000000
 -0.285714  0.142857  0.000000      4.000000
 -0.142857  0.142857  0.000000      2.000000
  0.285714  0.285714  0.000000      2.000000
  0.428571  0.285714  0.000000      4.000000
 -0.428571  0.285714  0.000000      4.000000
 -0.285714  0.285714  0.000000      2.000000
  0.428571  0.428571  0.000000      2.000000
 -0.428571  0.428571  0.000000      2.000000
  0.000000  0.000000  0.111111      2.000000
  0.142857 -0.000000  0.111111      8.000000
  0.285714  0.000000  0.111111      8.000000
  0.428571 -0.000000  0.111111      8.000000
  0.142857  0.142857  0.111111      4.000000
  0.285714  0.142857  0.111111      8.000000
  0.428571  0.142857  0.111111      8.000000
 -0.428571  0.142857  0.111111      8.000000
 -0.285714  0.142857  0.111111      8.000000
 -0.142857  0.142857  0.111111      4.000000
  0.285714  0.285714  0.111111      4.000000
  0.428571  0.285714  0.111111      8.000000
 -0.428571  0.285714  0.111111      8.000000
 -0.285714  0.285714  0.111111      4.000000
  0.428571  0.428571  0.111111      4.000000
 -0.428571  0.428571  0.111111      4.000000
  0.000000  0.000000  0.222222      2.000000
  0.142857 -0.000000  0.222222      8.000000
  0.285714  0.000000  0.222222      8.000000
  0.428571 -0.000000  0.222222      8.000000
  0.142857  0.142857  0.222222      4.000000
  0.285714  0.142857  0.222222      8.000000
  0.428571  0.142857  0.222222      8.000000
 -0.428571  0.142857  0.222222      8.000000
 -0.285714  0.142857  0.222222      8.000000
 -0.142857  0.142857  0.222222      4.000000
  0.285714  0.285714  0.222222      4.000000
  0.428571  0.285714  0.222222      8.000000
 -0.428571  0.285714  0.222222      8.000000
 -0.285714  0.285714  0.222222      4.000000
  0.428571  0.428571  0.222222      4.000000
 -0.428571  0.428571  0.222222      4.000000
  0.000000  0.000000  0.333333      2.000000
  0.142857 -0.000000  0.333333      8.000000
  0.285714  0.000000  0.333333      8.000000
  0.428571 -0.000000  0.333333      8.000000
  0.142857  0.142857  0.333333      4.000000
  0.285714  0.142857  0.333333      8.000000
  0.428571  0.142857  0.333333      8.000000
 -0.428571  0.142857  0.333333      8.000000
 -0.285714  0.142857  0.333333      8.000000
 -0.142857  0.142857  0.333333      4.000000
  0.285714  0.285714  0.333333      4.000000
  0.428571  0.285714  0.333333      8.000000
 -0.428571  0.285714  0.333333      8.000000
 -0.285714  0.285714  0.333333      4.000000
  0.428571  0.428571  0.333333      4.000000
 -0.428571  0.428571  0.333333      4.000000
  0.000000  0.000000  0.444444      2.000000
  0.142857 -0.000000  0.444444      8.000000
  0.285714  0.000000  0.444444      8.000000
  0.428571 -0.000000  0.444444      8.000000
  0.142857  0.142857  0.444444      4.000000
  0.285714  0.142857  0.444444      8.000000
  0.428571  0.142857  0.444444      8.000000
 -0.428571  0.142857  0.444444      8.000000
 -0.285714  0.142857  0.444444      8.000000
 -0.142857  0.142857  0.444444      4.000000
  0.285714  0.285714  0.444444      4.000000
  0.428571  0.285714  0.444444      8.000000
 -0.428571  0.285714  0.444444      8.000000
 -0.285714  0.285714  0.444444      4.000000
  0.428571  0.428571  0.444444      4.000000
 -0.428571  0.428571  0.444444      4.000000
 
 Following cartesian coordinates:
            Coordinates               Weight
  0.000000  0.000000  0.000000      1.000000
  0.014892 -0.012717  0.000000      4.000000
  0.029785 -0.025434  0.000000      4.000000
  0.044677 -0.038150  0.000000      4.000000
  0.029785 -0.000000  0.000000      2.000000
  0.044677 -0.012717  0.000000      4.000000
  0.059570 -0.025434  0.000000      4.000000
 -0.029785  0.050867  0.000000      4.000000
 -0.014892  0.038150  0.000000      4.000000
 -0.000000  0.025434  0.000000      2.000000
  0.059570  0.000000  0.000000      2.000000
  0.074462 -0.012717  0.000000      4.000000
 -0.014892  0.063584  0.000000      4.000000
 -0.000000  0.050867  0.000000      2.000000
  0.089355  0.000000  0.000000      2.000000
  0.000000  0.076301  0.000000      2.000000
  0.000000  0.000000  0.020090      2.000000
  0.014892 -0.012717  0.020090      8.000000
  0.029785 -0.025434  0.020090      8.000000
  0.044677 -0.038150  0.020090      8.000000
  0.029785 -0.000000  0.020090      4.000000
  0.044677 -0.012717  0.020090      8.000000
  0.059570 -0.025434  0.020090      8.000000
 -0.029785  0.050867  0.020090      8.000000
 -0.014892  0.038150  0.020090      8.000000
 -0.000000  0.025434  0.020090      4.000000
  0.059570  0.000000  0.020090      4.000000
  0.074462 -0.012717  0.020090      8.000000
 -0.014892  0.063584  0.020090      8.000000
 -0.000000  0.050867  0.020090      4.000000
  0.089355  0.000000  0.020090      4.000000
  0.000000  0.076301  0.020090      4.000000
  0.000000  0.000000  0.040179      2.000000
  0.014892 -0.012717  0.040179      8.000000
  0.029785 -0.025434  0.040179      8.000000
  0.044677 -0.038150  0.040179      8.000000
  0.029785 -0.000000  0.040179      4.000000
  0.044677 -0.012717  0.040179      8.000000
  0.059570 -0.025434  0.040179      8.000000
 -0.029785  0.050867  0.040179      8.000000
 -0.014892  0.038150  0.040179      8.000000
 -0.000000  0.025434  0.040179      4.000000
  0.059570  0.000000  0.040179      4.000000
  0.074462 -0.012717  0.040179      8.000000
 -0.014892  0.063584  0.040179      8.000000
 -0.000000  0.050867  0.040179      4.000000
  0.089355  0.000000  0.040179      4.000000
  0.000000  0.076301  0.040179      4.000000
  0.000000  0.000000  0.060269      2.000000
  0.014892 -0.012717  0.060269      8.000000
  0.029785 -0.025434  0.060269      8.000000
  0.044677 -0.038150  0.060269      8.000000
  0.029785 -0.000000  0.060269      4.000000
  0.044677 -0.012717  0.060269      8.000000
  0.059570 -0.025434  0.060269      8.000000
 -0.029785  0.050867  0.060269      8.000000
 -0.014892  0.038150  0.060269      8.000000
 -0.000000  0.025434  0.060269      4.000000
  0.059570  0.000000  0.060269      4.000000
  0.074462 -0.012717  0.060269      8.000000
 -0.014892  0.063584  0.060269      8.000000
 -0.000000  0.050867  0.060269      4.000000
  0.089355  0.000000  0.060269      4.000000
  0.000000  0.076301  0.060269      4.000000
  0.000000  0.000000  0.080358      2.000000
  0.014892 -0.012717  0.080358      8.000000
  0.029785 -0.025434  0.080358      8.000000
  0.044677 -0.038150  0.080358      8.000000
  0.029785 -0.000000  0.080358      4.000000
  0.044677 -0.012717  0.080358      8.000000
  0.059570 -0.025434  0.080358      8.000000
 -0.029785  0.050867  0.080358      8.000000
 -0.014892  0.038150  0.080358      8.000000
 -0.000000  0.025434  0.080358      4.000000
  0.059570  0.000000  0.080358      4.000000
  0.074462 -0.012717  0.080358      8.000000
 -0.014892  0.063584  0.080358      8.000000
 -0.000000  0.050867  0.080358      4.000000
  0.089355  0.000000  0.080358      4.000000
  0.000000  0.076301  0.080358      4.000000
 


--------------------------------------------------------------------------------------------------------




 Dimension of arrays:
   k-points           NKPTS =     80   k-points in BZ     NKDIM =     80   number of bands    NBANDS=    100
   number of dos      NEDOS =    301   number of ions     NIONS =     16
   non local maximal  LDIM  =      6   non local SUM 2l+1 LMDIM =     18
   total plane-waves  NPLWV = 131712
   max r-space proj   IRMAX =   5670   max aug-charges    IRDMAX=  19472
   dimension x,y,z NGX =    56 NGY =   56 NGZ =   42
   dimension x,y,z NGXF=   112 NGYF=  112 NGZF=   84
   support grid    NGXF=   112 NGYF=  112 NGZF=   84
   ions per type =               8   8
   NGX,Y,Z   is equivalent  to a cutoff of  12.60, 12.60, 12.62 a.u.
   NGXF,Y,Z  is equivalent  to a cutoff of  25.21, 25.21, 25.25 a.u.

 SYSTEM =  unknown system                          
 POSCAR =  Fe8 Se8                                 

 Startparameter for this run:
   NWRITE =      2    write-flag & timer
   PREC   = accura    normal or accurate (medium, high low for compatibility)
   ISTART =      0    job   : 0-new  1-cont  2-samecut
   ICHARG =      2    charge: 1-file 2-atom 10-const
   ISPIN  =      2    spin polarized calculation?
   LNONCOLLINEAR =      F non collinear calculations
   LSORBIT =      F    spin-orbit coupling
   INIWAV =      1    electr: 0-lowe 1-rand  2-diag
   LASPH  =      T    aspherical Exc in radial PAW
 Electronic Relaxation 1
   ENCUT  =  550.0 eV  40.42 Ry    6.36 a.u.  14.12 14.12 10.58*2*pi/ulx,y,z
   ENINI  =  550.0     initial cutoff
   ENAUG  =  578.3 eV  augmentation charge cutoff
   NELM   =    100;   NELMIN=  2; NELMDL=  0     # of ELM steps 
   EDIFF  = 0.2E-03   stopping-criterion for ELM
   LREAL  =      T    real-space projection
   NLSPLINE    = F    spline interpolate recip. space projectors
   LCOMPAT=      F    compatible to vasp.4.4
   GGA_COMPAT  = T    GGA compatible to vasp.4.4-vasp.4.6
   LMAXPAW     = -100 max onsite density
   LMAXMIX     =    4 max onsite mixed and CHGCAR
   VOSKOWN=      0    Vosko Wilk Nusair interpolation
   ROPT   =   -0.00025  -0.00025
 Ionic relaxation
   EDIFFG = 0.2E-02   stopping-criterion for IOM
   NSW    =      0    number of steps for IOM
   NBLOCK =      1;   KBLOCK =      1    inner block; outer block 
   IBRION =     -1    ionic relax: 0-MD 1-quasi-New 2-CG
   NFREE  =      0    steps in history (QN), initial steepest desc. (CG)
   ISIF   =      4    stress and relaxation
   IWAVPR =     10    prediction:  0-non 1-charg 2-wave 3-comb
   ISYM   =      2    0-nonsym 1-usesym 2-fastsym
   LCORR  =      T    Harris-Foulkes like correction to forces

   POTIM  = 0.5000    time-step for ionic-motion
   TEIN   =    0.0    initial temperature
   TEBEG  =    0.0;   TEEND  =   0.0 temperature during run
   SMASS  =  -3.00    Nose mass-parameter (am)
   estimated Nose-frequenzy (Omega)   =  0.10E-29 period in steps = 0.13E+47 mass=  -0.125E-26a.u.
   SCALEE = 1.0000    scale energy and forces
   NPACO  =    256;   APACO  = 10.0  distance and # of slots for P.C.
   PSTRESS=    0.0 pullay stress

  Mass of Ions in am
   POMASS =  55.85 78.96
  Ionic Valenz
   ZVAL   =  14.00  6.00
  Atomic Wigner-Seitz radii
   RWIGS  =  -1.00 -1.00
  virtual crystal weights 
   VCA    =   1.00  1.00
   NELECT =     160.0000    total number of electrons
   NUPDOWN=      -1.0000    fix difference up-down

 DOS related values:
   EMIN   =  10.00;   EMAX   =-10.00  energy-range for DOS
   EFERMI =   0.00;   METHOD = LEGACY      
   ISMEAR =    -5;   SIGMA  =   0.05  broadening in eV -4-tet -1-fermi 0-gaus

 Electronic relaxation 2 (details)
   IALGO  =     68    algorithm
   LDIAG  =      T    sub-space diagonalisation (order eigenvalues)
   LSUBROT=      F    optimize rotation matrix (better conditioning)
   TURBO    =      0    0=normal 1=particle mesh
   IRESTART =      0    0=no restart 2=restart with 2 vectors
   NREBOOT  =      0    no. of reboots
   NMIN     =      0    reboot dimension
   EREF     =   0.00    reference energy to select bands
   IMIX   =      4    mixing-type and parameters
     AMIX     =   0.40;   BMIX     =  1.00
     AMIX_MAG =   1.60;   BMIX_MAG =  1.00
     AMIN     =   0.10
     WC   =   100.;   INIMIX=   1;  MIXPRE=   1;  MAXMIX= -45

 Intra band minimization:
   WEIMIN = 0.0000     energy-eigenvalue tresh-hold
   EBREAK =  0.50E-06  absolut break condition
   DEPER  =   0.30     relativ break condition  

   TIME   =   0.40     timestep for ELM

  volume/ion in A,a.u.               =      18.63       125.69
  Fermi-wavevector in a.u.,A,eV,Ry     =   1.330585  2.514442 24.088535  1.770457
  Thomas-Fermi vector in A             =   2.459661
 
 Write flags
   LWAVE        =      F    write WAVECAR
   LDOWNSAMPLE  =      F    k-point downsampling of WAVECAR
   LCHARG       =      T    write CHGCAR
   LVTOT        =      F    write LOCPOT, total local potential
   LVHAR        =      F    write LOCPOT, Hartree potential only
   LELF         =      F    write electronic localiz. function (ELF)
   LORBIT       =     11    0 simple, 1 ext, 2 COOP (PROOUT), +10 PAW based schemes


 Dipole corrections
   LMONO  =      F    monopole corrections only (constant potential shift)
   LDIPOL =      F    correct potential (dipole corrections)
   IDIPOL =      0    1-x, 2-y, 3-z, 4-all directions 
   EPSILON=  1.0000000 bulk dielectric constant

 Exchange correlation treatment:
   GGA     =    --    GGA type
   LEXCH   =     8    internal setting for exchange type
   LIBXC   =     F    Libxc                    
   VOSKOWN =     0    Vosko Wilk Nusair interpolation
   LHFCALC =     F    Hartree Fock is set to
   LHFONE  =     F    Hartree Fock one center treatment
   AEXX    =    0.0000 exact exchange contribution

 Linear response parameters
   LEPSILON=     F    determine dielectric tensor
   LRPA    =     F    only Hartree local field effects (RPA)
   LNABLA  =     F    use nabla operator in PAW spheres
   LVEL    =     F    velocity operator in full k-point grid
   CSHIFT  =0.1000    complex shift for real part using Kramers Kronig
   OMEGAMAX=  -1.0    maximum frequency
   DEG_THRESHOLD= 0.2000000E-02 threshold for treating states as degnerate
   RTIME   =   -0.100 relaxation time in fs
  (WPLASMAI=    0.000 imaginary part of plasma frequency in eV, 0.658/RTIME)
   DFIELD  = 0.0000000 0.0000000 0.0000000 field for delta impulse in time
 
  Optional k-point grid parameters
   LKPOINTS_OPT  =     F    use optional k-point grid
   KPOINTS_OPT_MODE=     1    mode for optional k-point grid
 
 Orbital magnetization related:
   ORBITALMAG=     F  switch on orbital magnetization
   LCHIMAG   =     F  perturbation theory with respect to B field
   DQ        =  0.001000  dq finite difference perturbation B field
   LLRAUG    =     F  two centre corrections for induced B field
   LBONE     =     F  B-component reconstruction in AE one-centre
   LVGVCALC  =     T  calculate vGv susceptibility
   LVGVAPPL  =     F  apply vGv susceptibility instead of pGv for G=0

 Random number generation:
   RANDOM_GENERATOR = DEFAULT
   PCG_SEED         = not used


--------------------------------------------------------------------------------------------------------


 Static calculation
 charge density and potential will be updated during run
 spin polarized calculation
 RMM-DIIS sequential band-by-band and
  variant of blocked Davidson during initial phase
 perform sub-space diagonalisation
    before iterative eigenvector-optimisation
 modified Broyden-mixing scheme, WC =      100.0
 initial mixing is a Kerker type mixing with AMIX =  0.4000 and BMIX =      1.0000
 Hartree-type preconditioning will be used
 using additional bands           20
 real space projection scheme for non local part
 use partial core corrections
 calculate Harris-corrections to forces 
   (improved forces if not selfconsistent)
 use gradient corrections 
 use of overlap-Matrix (Vanderbilt PP)
 Fermi weights with tetrahedron method with Bloechl corrections


--------------------------------------------------------------------------------------------------------


  energy-cutoff  :      550.00
  volume of cell :      298.00
      direct lattice vectors                 reciprocal lattice vectors
     4.796279513 -5.616872682  0.000000000     0.104247469 -0.089017506  0.000000000
     4.796279513  5.616872682  0.000000000     0.104247469  0.089017506  0.000000000
     0.000000000  0.000000000  5.530790447     0.000000000  0.000000000  0.180805982

  length of vectors
     7.386037902  7.386037902  5.530790447     0.137082644  0.137082644  0.180805982


 
 k-points in units of 2pi/SCALE and weight: KPOINTS                                 
   0.00000000  0.00000000  0.00000000       0.002
   0.01489250 -0.01271679  0.00000000       0.009
   0.02978499 -0.02543357  0.00000000       0.009
   0.04467749 -0.03815036  0.00000000       0.009
   0.02978499  0.00000000  0.00000000       0.005
   0.04467749 -0.01271679  0.00000000       0.009
   0.05956998 -0.02543357  0.00000000       0.009
  -0.02978499  0.05086715  0.00000000       0.009
  -0.01489250  0.03815036  0.00000000       0.009
   0.00000000  0.02543357  0.00000000       0.005
   0.05956998 -0.00000000  0.00000000       0.005
   0.07446248 -0.01271679  0.00000000       0.009
  -0.01489250  0.06358393  0.00000000       0.009
   0.00000000  0.05086715  0.00000000       0.005
   0.08935497  0.00000000  0.00000000       0.005
  -0.00000000  0.07630072  0.00000000       0.005
   0.00000000  0.00000000  0.02008955       0.005
   0.01489250 -0.01271679  0.02008955       0.018
   0.02978499 -0.02543357  0.02008955       0.018
   0.04467749 -0.03815036  0.02008955       0.018
   0.02978499  0.00000000  0.02008955       0.009
   0.04467749 -0.01271679  0.02008955       0.018
   0.05956998 -0.02543357  0.02008955       0.018
  -0.02978499  0.05086715  0.02008955       0.018
  -0.01489250  0.03815036  0.02008955       0.018
   0.00000000  0.02543357  0.02008955       0.009
   0.05956998 -0.00000000  0.02008955       0.009
   0.07446248 -0.01271679  0.02008955       0.018
  -0.01489250  0.06358393  0.02008955       0.018
   0.00000000  0.05086715  0.02008955       0.009
   0.08935497  0.00000000  0.02008955       0.009
  -0.00000000  0.07630072  0.02008955       0.009
   0.00000000  0.00000000  0.04017911       0.005
   0.01489250 -0.01271679  0.04017911       0.018
   0.02978499 -0.02543357  0.04017911       0.018
   0.04467749 -0.03815036  0.04017911       0.018
   0.02978499  0.00000000  0.04017911       0.009
   0.04467749 -0.01271679  0.04017911       0.018
   0.05956998 -0.02543357  0.04017911       0.018
  -0.02978499  0.05086715  0.04017911       0.018
  -0.01489250  0.03815036  0.04017911       0.018
   0.00000000  0.02543357  0.04017911       0.009
   0.05956998 -0.00000000  0.04017911       0.009
   0.07446248 -0.01271679  0.04017911       0.018
  -0.01489250  0.06358393  0.04017911       0.018
   0.00000000  0.05086715  0.04017911       0.009
   0.08935497  0.00000000  0.04017911       0.009
  -0.00000000  0.07630072  0.04017911       0.009
   0.00000000  0.00000000  0.06026866       0.005
   0.01489250 -0.01271679  0.06026866       0.018
   0.02978499 -0.02543357  0.06026866       0.018
   0.04467749 -0.03815036  0.06026866       0.018
   0.02978499  0.00000000  0.06026866       0.009
   0.04467749 -0.01271679  0.06026866       0.018
   0.05956998 -0.02543357  0.06026866       0.018
  -0.02978499  0.05086715  0.06026866       0.018
  -0.01489250  0.03815036  0.06026866       0.018
   0.00000000  0.02543357  0.06026866       0.009
   0.05956998 -0.00000000  0.06026866       0.009
   0.07446248 -0.01271679  0.06026866       0.018
  -0.01489250  0.06358393  0.06026866       0.018
   0.00000000  0.05086715  0.06026866       0.009
   0.08935497  0.00000000  0.06026866       0.009
  -0.00000000  0.07630072  0.06026866       0.009
   0.00000000  0.00000000  0.08035821       0.005
   0.01489250 -0.01271679  0.08035821       0.018
   0.02978499 -0.02543357  0.08035821       0.018
   0.04467749 -0.03815036  0.08035821       0.018
   0.02978499  0.00000000  0.08035821       0.009
   0.04467749 -0.01271679  0.08035821       0.018
   0.05956998 -0.02543357  0.08035821       0.018
  -0.02978499  0.05086715  0.08035821       0.018
  -0.01489250  0.03815036  0.08035821       0.018
   0.00000000  0.02543357  0.08035821       0.009
   0.05956998 -0.00000000  0.08035821       0.009
   0.07446248 -0.01271679  0.08035821       0.018
  -0.01489250  0.06358393  0.08035821       0.018
   0.00000000  0.05086715  0.08035821       0.009
   0.08935497  0.00000000  0.08035821       0.009
  -0.00000000  0.07630072  0.08035821       0.009
 
 k-points in reciprocal lattice and weights: KPOINTS                                 
   0.00000000  0.00000000  0.00000000       0.002
   0.14285714 -0.00000000  0.00000000       0.009
   0.28571429  0.00000000  0.00000000       0.009
   0.42857143 -0.00000000  0.00000000       0.009
   0.14285714  0.14285714  0.00000000       0.005
   0.28571429  0.14285714  0.00000000       0.009
   0.42857143  0.14285714  0.00000000       0.009
  -0.42857143  0.14285714  0.00000000       0.009
  -0.28571429  0.14285714  0.00000000       0.009
  -0.14285714  0.14285714  0.00000000       0.005
   0.28571429  0.28571429  0.00000000       0.005
   0.42857143  0.28571429  0.00000000       0.009
  -0.42857143  0.28571429  0.00000000       0.009
  -0.28571429  0.28571429  0.00000000       0.005
   0.42857143  0.42857143  0.00000000       0.005
  -0.42857143  0.42857143  0.00000000       0.005
   0.00000000  0.00000000  0.11111111       0.005
   0.14285714 -0.00000000  0.11111111       0.018
   0.28571429  0.00000000  0.11111111       0.018
   0.42857143 -0.00000000  0.11111111       0.018
   0.14285714  0.14285714  0.11111111       0.009
   0.28571429  0.14285714  0.11111111       0.018
   0.42857143  0.14285714  0.11111111       0.018
  -0.42857143  0.14285714  0.11111111       0.018
  -0.28571429  0.14285714  0.11111111       0.018
  -0.14285714  0.14285714  0.11111111       0.009
   0.28571429  0.28571429  0.11111111       0.009
   0.42857143  0.28571429  0.11111111       0.018
  -0.42857143  0.28571429  0.11111111       0.018
  -0.28571429  0.28571429  0.11111111       0.009
   0.42857143  0.42857143  0.11111111       0.009
  -0.42857143  0.42857143  0.11111111       0.009
   0.00000000  0.00000000  0.22222222       0.005
   0.14285714 -0.00000000  0.22222222       0.018
   0.28571429  0.00000000  0.22222222       0.018
   0.42857143 -0.00000000  0.22222222       0.018
   0.14285714  0.14285714  0.22222222       0.009
   0.28571429  0.14285714  0.22222222       0.018
   0.42857143  0.14285714  0.22222222       0.018
  -0.42857143  0.14285714  0.22222222       0.018
  -0.28571429  0.14285714  0.22222222       0.018
  -0.14285714  0.14285714  0.22222222       0.009
   0.28571429  0.28571429  0.22222222       0.009
   0.42857143  0.28571429  0.22222222       0.018
  -0.42857143  0.28571429  0.22222222       0.018
  -0.28571429  0.28571429  0.22222222       0.009
   0.42857143  0.42857143  0.22222222       0.009
  -0.42857143  0.42857143  0.22222222       0.009
   0.00000000  0.00000000  0.33333333       0.005
   0.14285714 -0.00000000  0.33333333       0.018
   0.28571429  0.00000000  0.33333333       0.018
   0.42857143 -0.00000000  0.33333333       0.018
   0.14285714  0.14285714  0.33333333       0.009
   0.28571429  0.14285714  0.33333333       0.018
   0.42857143  0.14285714  0.33333333       0.018
  -0.42857143  0.14285714  0.33333333       0.018
  -0.28571429  0.14285714  0.33333333       0.018
  -0.14285714  0.14285714  0.33333333       0.009
   0.28571429  0.28571429  0.33333333       0.009
   0.42857143  0.28571429  0.33333333       0.018
  -0.42857143  0.28571429  0.33333333       0.018
  -0.28571429  0.28571429  0.33333333       0.009
   0.42857143  0.42857143  0.33333333       0.009
  -0.42857143  0.42857143  0.33333333       0.009
   0.00000000  0.00000000  0.44444444       0.005
   0.14285714 -0.00000000  0.44444444       0.018
   0.28571429  0.00000000  0.44444444       0.018
   0.42857143 -0.00000000  0.44444444       0.018
   0.14285714  0.14285714  0.44444444       0.009
   0.28571429  0.14285714  0.44444444       0.018
   0.42857143  0.14285714  0.44444444       0.018
  -0.42857143  0.14285714  0.44444444       0.018
  -0.28571429  0.14285714  0.44444444       0.018
  -0.14285714  0.14285714  0.44444444       0.009
   0.28571429  0.28571429  0.44444444       0.009
   0.42857143  0.28571429  0.44444444       0.018
  -0.42857143  0.28571429  0.44444444       0.018
  -0.28571429  0.28571429  0.44444444       0.009
   0.42857143  0.42857143  0.44444444       0.009
  -0.42857143  0.42857143  0.44444444       0.009
 
 position of ions in fractional coordinates (direct lattice) 
   0.00000000  0.00000000  0.00000000
   0.00000000  0.50000000  0.00000000
   0.50000000  0.00000000  0.00000000
   0.50000000  0.50000000  0.00000000
   0.25000000  0.25000000  0.00000000
   0.25000000  0.75000000  0.00000000
   0.75000000  0.25000000  0.00000000
   0.75000000  0.75000000  0.00000000
   0.37500000  0.12500000  0.67240958
   0.37500000  0.62500000  0.67240958
   0.87500000  0.12500000  0.67240958
   0.87500000  0.62500000  0.67240958
   0.12500000  0.37500000  0.32759042
   0.12500000  0.87500000  0.32759042
   0.62500000  0.37500000  0.32759042
   0.62500000  0.87500000  0.32759042
 
 position of ions in cartesian coordinates  (Angst):
   0.00000000  0.00000000  0.00000000
   2.39813976  2.80843634  0.00000000
   2.39813976 -2.80843634  0.00000000
   4.79627951  0.00000000  0.00000000
   2.39813976  0.00000000  0.00000000
   4.79627951  2.80843634  0.00000000
   4.79627951 -2.80843634  0.00000000
   7.19441927  0.00000000  0.00000000
   2.39813976 -1.40421817  3.71895649
   4.79627951  1.40421817  3.71895649
   4.79627951 -4.21265451  3.71895649
   7.19441927 -1.40421817  3.71895649
   2.39813976  1.40421817  1.81183396
   4.79627951  4.21265451  1.81183396
   4.79627951 -1.40421817  1.81183396
   7.19441927  1.40421817  1.81183396
 


--------------------------------------------------------------------------------------------------------


 k-point   1 :   0.0000 0.0000 0.0000  plane waves:    8771
 k-point   2 :   0.1429-0.0000 0.0000  plane waves:    8751
 k-point   3 :   0.2857 0.0000 0.0000  plane waves:    8746
 k-point   4 :   0.4286-0.0000 0.0000  plane waves:    8745
 k-point   5 :   0.1429 0.1429 0.0000  plane waves:    8731
 k-point   6 :   0.2857 0.1429 0.0000  plane waves:    8742
 k-point   7 :   0.4286 0.1429 0.0000  plane waves:    8741
 k-point   8 :  -0.4286 0.1429 0.0000  plane waves:    8735
 k-point   9 :  -0.2857 0.1429 0.0000  plane waves:    8743
 k-point  10 :  -0.1429 0.1429 0.0000  plane waves:    8753
 k-point  11 :   0.2857 0.2857 0.0000  plane waves:    8744
 k-point  12 :   0.4286 0.2857 0.0000  plane waves:    8743
 k-point  13 :  -0.4286 0.2857 0.0000  plane waves:    8727
 k-point  14 :  -0.2857 0.2857 0.0000  plane waves:    8736
 k-point  15 :   0.4286 0.4286 0.0000  plane waves:    8716
 k-point  16 :  -0.4286 0.4286 0.0000  plane waves:    8698
 k-point  17 :   0.0000 0.0000 0.1111  plane waves:    8741
 k-point  18 :   0.1429-0.0000 0.1111  plane waves:    8738
 k-point  19 :   0.2857 0.0000 0.1111  plane waves:    8736
 k-point  20 :   0.4286-0.0000 0.1111  plane waves:    8741
 k-point  21 :   0.1429 0.1429 0.1111  plane waves:    8721
 k-point  22 :   0.2857 0.1429 0.1111  plane waves:    8737
 k-point  23 :   0.4286 0.1429 0.1111  plane waves:    8735
 k-point  24 :  -0.4286 0.1429 0.1111  plane waves:    8733
 k-point  25 :  -0.2857 0.1429 0.1111  plane waves:    8735
 k-point  26 :  -0.1429 0.1429 0.1111  plane waves:    8730
 k-point  27 :   0.2857 0.2857 0.1111  plane waves:    8748
 k-point  28 :   0.4286 0.2857 0.1111  plane waves:    8736
 k-point  29 :  -0.4286 0.2857 0.1111  plane waves:    8741
 k-point  30 :  -0.2857 0.2857 0.1111  plane waves:    8738
 k-point  31 :   0.4286 0.4286 0.1111  plane waves:    8721
 k-point  32 :  -0.4286 0.4286 0.1111  plane waves:    8746
 k-point  33 :   0.0000 0.0000 0.2222  plane waves:    8725
 k-point  34 :   0.1429-0.0000 0.2222  plane waves:    8727
 k-point  35 :   0.2857 0.0000 0.2222  plane waves:    8720
 k-point  36 :   0.4286-0.0000 0.2222  plane waves:    8723
 k-point  37 :   0.1429 0.1429 0.2222  plane waves:    8719
 k-point  38 :   0.2857 0.1429 0.2222  plane waves:    8731
 k-point  39 :   0.4286 0.1429 0.2222  plane waves:    8726
 k-point  40 :  -0.4286 0.1429 0.2222  plane waves:    8724
 k-point  41 :  -0.2857 0.1429 0.2222  plane waves:    8729
 k-point  42 :  -0.1429 0.1429 0.2222  plane waves:    8735
 k-point  43 :   0.2857 0.2857 0.2222  plane waves:    8742
 k-point  44 :   0.4286 0.2857 0.2222  plane waves:    8751
 k-point  45 :  -0.4286 0.2857 0.2222  plane waves:    8736
 k-point  46 :  -0.2857 0.2857 0.2222  plane waves:    8742
 k-point  47 :   0.4286 0.4286 0.2222  plane waves:    8743
 k-point  48 :  -0.4286 0.4286 0.2222  plane waves:    8743
 k-point  49 :   0.0000 0.0000 0.3333  plane waves:    8723
 k-point  50 :   0.1429-0.0000 0.3333  plane waves:    8722
 k-point  51 :   0.2857 0.0000 0.3333  plane waves:    8715
 k-point  52 :   0.4286-0.0000 0.3333  plane waves:    8710
 k-point  53 :   0.1429 0.1429 0.3333  plane waves:    8716
 k-point  54 :   0.2857 0.1429 0.3333  plane waves:    8710
 k-point  55 :   0.4286 0.1429 0.3333  plane waves:    8721
 k-point  56 :  -0.4286 0.1429 0.3333  plane waves:    8727
 k-point  57 :  -0.2857 0.1429 0.3333  plane waves:    8723
 k-point  58 :  -0.1429 0.1429 0.3333  plane waves:    8710
 k-point  59 :   0.2857 0.2857 0.3333  plane waves:    8728
 k-point  60 :   0.4286 0.2857 0.3333  plane waves:    8730
 k-point  61 :  -0.4286 0.2857 0.3333  plane waves:    8736
 k-point  62 :  -0.2857 0.2857 0.3333  plane waves:    8719
 k-point  63 :   0.4286 0.4286 0.3333  plane waves:    8762
 k-point  64 :  -0.4286 0.4286 0.3333  plane waves:    8755
 k-point  65 :   0.0000 0.0000 0.4444  plane waves:    8724
 k-point  66 :   0.1429-0.0000 0.4444  plane waves:    8705
 k-point  67 :   0.2857 0.0000 0.4444  plane waves:    8712
 k-point  68 :   0.4286-0.0000 0.4444  plane waves:    8709
 k-point  69 :   0.1429 0.1429 0.4444  plane waves:    8725
 k-point  70 :   0.2857 0.1429 0.4444  plane waves:    8718
 k-point  71 :   0.4286 0.1429 0.4444  plane waves:    8714
 k-point  72 :  -0.4286 0.1429 0.4444  plane waves:    8719
 k-point  73 :  -0.2857 0.1429 0.4444  plane waves:    8704
 k-point  74 :  -0.1429 0.1429 0.4444  plane waves:    8700
 k-point  75 :   0.2857 0.2857 0.4444  plane waves:    8731
 k-point  76 :   0.4286 0.2857 0.4444  plane waves:    8726
 k-point  77 :  -0.4286 0.2857 0.4444  plane waves:    8735
 k-point  78 :  -0.2857 0.2857 0.4444  plane waves:    8714
 k-point  79 :   0.4286 0.4286 0.4444  plane waves:    8724
 k-point  80 :  -0.4286 0.4286 0.4444  plane waves:    8736

 maximum and minimum number of plane-waves per node :      8771     8698

 maximum number of plane-waves:      8771
 maximum index in each direction: 
   IXMAX=   14   IYMAX=   14   IZMAX=   10
   IXMIN=  -14   IYMIN=  -14   IZMIN=  -11


 serial   3D FFT for wavefunctions
 parallel 3D FFT for charge:
    minimum data exchange during FFTs selected (reduces bandwidth)


 total amount of memory used by VASP MPI-rank0   175016. kBytes
=======================================================================

   base      :      30000. kBytes
   nonlr-proj:      11110. kBytes
   fftplans  :       2458. kBytes
   grid      :      15239. kBytes
   one-center:        497. kBytes
   wavefun   :     115712. kBytes
 
     INWAV:  cpu time      0.0000: real time      0.0001
 Broyden mixing: mesh for mixing (old mesh)
   NGX = 29   NGY = 29   NGZ = 21
  (NGX  =112   NGY  =112   NGZ  = 84)
  gives a total of  17661 points

 initial charge density was supplied:
 charge density of overlapping atoms calculated
 number of electron     160.0000000 magnetization       0.0000000
 keeping initial charge density in first step


--------------------------------------------------------------------------------------------------------


 Maximum index for non-local projection operator         5439
 Maximum index for augmentation-charges         1080 (set IRDMAX)


--------------------------------------------------------------------------------------------------------


 First call to EWALD:  gamma=   0.265
 Maximum number of real-space cells 3x 3x 3
 Maximum number of reciprocal cells 3x 3x 2

    FEWALD:  cpu time      0.0013: real time      0.0015


--------------------------------------- Ionic step        1  -------------------------------------------




--------------------------------------- Iteration      1(   1)  ---------------------------------------


    POTLOK:  cpu time      0.0485: real time      0.0631
    SETDIJ:  cpu time      0.2731: real time      0.2740
     EDDAV:  cpu time     24.4894: real time     24.5878
 BZINTS: Fermi energy:   21.133519;  160.000000 electrons
         Band energy:-0.532279E+02;  BLOECHL correction:   -0.086389
       DOS:  cpu time      0.1402: real time      0.1407
    --------------------------------------------
      LOOP:  cpu time     24.9513: real time     25.0656

 eigenvalue-minimisations  : 34480
 total energy-change (2. order) : 0.2032898E+04  (-0.8891330E+04)
 number of electron     160.0000000 magnetization       0.0000000
 augmentation part      160.0000000 magnetization       0.0000000

 Free energy of the ion-electron system (eV)
  ---------------------------------------------------
  alpha Z        PSCENC =       852.18652779
  Ewald energy   TEWEN  =    -11667.47828062
  -Hartree energ DENC   =     -8779.85965372
  -exchange      EXHF   =         0.00000000
  -V(xc)+E(xc)   XCENC  =       566.24680620
  PAW double counting   =     15528.42523925   -16124.23576590
  entropy T*S    EENTRO =         0.00000000
  eigenvalues    EBANDS =       -53.22787271
  atomic energy  EATOM  =     21710.84102437
  Solvation  Ediel_sol  =         0.00000000
  ---------------------------------------------------
  free energy    TOTEN  =      2032.89802466 eV

  energy without entropy =     2032.89802466  energy(sigma->0) =     2032.89802466


--------------------------------------------------------------------------------------------------------




--------------------------------------- Iteration      1(   2)  ---------------------------------------


     EDDAV:  cpu time     22.1826: real time     22.3161
 BZINTS: Fermi energy:    7.425493;  160.000000 electrons
         Band energy:-0.196518E+04;  BLOECHL correction:   -0.023927
       DOS:  cpu time      0.1319: real time      0.1323
    --------------------------------------------
      LOOP:  cpu time     22.3145: real time     22.4484

 eigenvalue-minimisations  : 32000
 total energy-change (2. order) :-0.1911954E+04  (-0.1856044E+04)
 number of electron     160.0000000 magnetization       0.0000000
 augmentation part      160.0000000 magnetization       0.0000000

 Free energy of the ion-electron system (eV)
  ---------------------------------------------------
  alpha Z        PSCENC =       852.18652779
  Ewald energy   TEWEN  =    -11667.47828062
  -Hartree energ DENC   =     -8779.85965372
  -exchange      EXHF   =         0.00000000
  -V(xc)+E(xc)   XCENC  =       566.24680620
  PAW double counting   =     15528.42523925   -16124.23576590
  entropy T*S    EENTRO =         0.00000000
  eigenvalues    EBANDS =     -1965.18187951
  atomic energy  EATOM  =     21710.84102437
  Solvation  Ediel_sol  =         0.00000000
  ---------------------------------------------------
  free energy    TOTEN  =       120.94401785 eV

  energy without entropy =      120.94401785  energy(sigma->0) =      120.94401785


--------------------------------------------------------------------------------------------------------




--------------------------------------- Iteration      1(   3)  ---------------------------------------


     EDDAV:  cpu time     30.1770: real time     30.3046
 BZINTS: Fermi energy:    5.526955;  160.000000 electrons
         Band energy:-0.217057E+04;  BLOECHL correction:   -0.020231
       DOS:  cpu time      0.1335: real time      0.1340
    --------------------------------------------
      LOOP:  cpu time     30.3105: real time     30.4386

 eigenvalue-minimisations  : 45280
 total energy-change (2. order) :-0.2053859E+03  (-0.1823023E+03)
 number of electron     160.0000000 magnetization       0.0000000
 augmentation part      160.0000000 magnetization       0.0000000

 Free energy of the ion-electron system (eV)
  ---------------------------------------------------
  alpha Z        PSCENC =       852.18652779
  Ewald energy   TEWEN  =    -11667.47828062
  -Hartree energ DENC   =     -8779.85965372
  -exchange      EXHF   =         0.00000000
  -V(xc)+E(xc)   XCENC  =       566.24680620
  PAW double counting   =     15528.42523925   -16124.23576590
  entropy T*S    EENTRO =         0.00000000
  eigenvalues    EBANDS =     -2170.56782589
  atomic energy  EATOM  =     21710.84102437
  Solvation  Ediel_sol  =         0.00000000
  ---------------------------------------------------
  free energy    TOTEN  =       -84.44192852 eV

  energy without entropy =      -84.44192852  energy(sigma->0) =      -84.44192852


--------------------------------------------------------------------------------------------------------




--------------------------------------- Iteration      1(   4)  ---------------------------------------


     EDDAV:  cpu time     30.8394: real time     30.9621
 BZINTS: Fermi energy:    5.404649;  160.000000 electrons
         Band energy:-0.218482E+04;  BLOECHL correction:   -0.020250
       DOS:  cpu time      0.1250: real time      0.1255
    --------------------------------------------
      LOOP:  cpu time     30.9644: real time     31.0877

 eigenvalue-minimisations  : 46920
 total energy-change (2. order) :-0.1425322E+02  (-0.1386636E+02)
 number of electron     160.0000000 magnetization       0.0000000
 augmentation part      160.0000000 magnetization       0.0000000

 Free energy of the ion-electron system (eV)
  ---------------------------------------------------
  alpha Z        PSCENC =       852.18652779
  Ewald energy   TEWEN  =    -11667.47828062
  -Hartree energ DENC   =     -8779.85965372
  -exchange      EXHF   =         0.00000000
  -V(xc)+E(xc)   XCENC  =       566.24680620
  PAW double counting   =     15528.42523925   -16124.23576590
  entropy T*S    EENTRO =         0.00000000
  eigenvalues    EBANDS =     -2184.82104751
  atomic energy  EATOM  =     21710.84102437
  Solvation  Ediel_sol  =         0.00000000
  ---------------------------------------------------
  free energy    TOTEN  =       -98.69515015 eV

  energy without entropy =      -98.69515015  energy(sigma->0) =      -98.69515015


--------------------------------------------------------------------------------------------------------




--------------------------------------- Iteration      1(   5)  ---------------------------------------


     EDDAV:  cpu time     28.4853: real time     28.6408
 BZINTS: Fermi energy:    5.400738;  160.000000 electrons
         Band energy:-0.218516E+04;  BLOECHL correction:   -0.020113
       DOS:  cpu time      0.1336: real time      0.1340
    CHARGE:  cpu time      0.5908: real time      0.5943
    MIXING:  cpu time      0.0014: real time      0.0014
    --------------------------------------------
      LOOP:  cpu time     29.2112: real time     29.3705

 eigenvalue-minimisations  : 44800
 total energy-change (2. order) :-0.3370552E+00  (-0.3362288E+00)
 number of electron     159.9999956 magnetization      -0.0000000
 augmentation part       53.1710094 magnetization      -0.0000000

 Broyden mixing:
  rms(total) = 0.27260E+01    rms(broyden)= 0.27256E+01
  rms(prec ) = 0.42857E+01
  weight for this iteration     100.00

 Free energy of the ion-electron system (eV)
  ---------------------------------------------------
  alpha Z        PSCENC =       852.18652779
  Ewald energy   TEWEN  =    -11667.47828062
  -Hartree energ DENC   =     -8779.85965372
  -exchange      EXHF   =         0.00000000
  -V(xc)+E(xc)   XCENC  =       566.24680620
  PAW double counting   =     15528.42523925   -16124.23576590
  entropy T*S    EENTRO =         0.00000000
  eigenvalues    EBANDS =     -2185.15810276
  atomic energy  EATOM  =     21710.84102437
  Solvation  Ediel_sol  =         0.00000000
  ---------------------------------------------------
  free energy    TOTEN  =       -99.03220539 eV

  energy without entropy =      -99.03220539  energy(sigma->0) =      -99.03220539


--------------------------------------------------------------------------------------------------------




--------------------------------------- Iteration      1(   6)  ---------------------------------------


    POTLOK:  cpu time      0.0425: real time      0.0428
    SETDIJ:  cpu time      0.2702: real time      0.2710
    EDDIAG:  cpu time      3.4466: real time      3.4618
  RMM-DIIS:  cpu time     13.1908: real time     13.2367
    ORTHCH:  cpu time      0.5574: real time      0.5593
 BZINTS: Fermi energy:    2.484498;  160.000000 electrons
         Band energy:-0.266991E+04;  BLOECHL correction:   -0.031686
       DOS:  cpu time      0.1299: real time      0.1303
    CHARGE:  cpu time      0.6028: real time      0.6062
    MIXING:  cpu time      0.0015: real time      0.0015
    --------------------------------------------
      LOOP:  cpu time     18.2417: real time     18.3095

 eigenvalue-minimisations  : 34805
 total energy-change (2. order) :-0.1387530E+02  (-0.1656498E+02)
 number of electron     159.9999941 magnetization      -0.0000000
 augmentation part       69.9001498 magnetization      -0.0000000

 Broyden mixing:
  rms(total) = 0.50515E+01    rms(broyden)= 0.50514E+01
  rms(prec ) = 0.82066E+01
  weight for this iteration     100.00

 eigenvalues of (default mixing * dielectric matrix)
  average eigenvalue GAMMA=   0.3069
  0.3069

 Free energy of the ion-electron system (eV)
  ---------------------------------------------------
  alpha Z        PSCENC =       852.18652779
  Ewald energy   TEWEN  =    -11667.47828062
  -Hartree energ DENC   =     -8328.44920081
  -exchange      EXHF   =         0.00000000
  -V(xc)+E(xc)   XCENC  =       554.07774586
  PAW double counting   =     15005.91536572   -15570.09026676
  entropy T*S    EENTRO =         0.00000000
  eigenvalues    EBANDS =     -2669.91041792
  atomic energy  EATOM  =     21710.84102437
  Solvation  Ediel_sol  =         0.00000000
  ---------------------------------------------------
  free energy    TOTEN  =      -112.90750239 eV

  energy without entropy =     -112.90750239  energy(sigma->0) =     -112.90750239


--------------------------------------------------------------------------------------------------------




--------------------------------------- Iteration      1(   7)  ---------------------------------------


    POTLOK:  cpu time      0.0479: real time      0.0482
    SETDIJ:  cpu time      0.2704: real time      0.2713
    EDDIAG:  cpu time      3.5647: real time      3.5797
  RMM-DIIS:  cpu time     12.4215: real time     12.4667
    ORTHCH:  cpu time      0.5665: real time      0.5684
 BZINTS: Fermi energy:    4.322736;  160.000000 electrons
         Band energy:-0.234305E+04;  BLOECHL correction:   -0.019477
       DOS:  cpu time      0.1351: real time      0.1355
    CHARGE:  cpu time      0.5976: real time      0.6003
    MIXING:  cpu time      0.0013: real time      0.0013
    --------------------------------------------
      LOOP:  cpu time     17.6050: real time     17.6714

 eigenvalue-minimisations  : 32080
 total energy-change (2. order) : 0.2225507E+02  (-0.4251810E+01)
 number of electron     159.9999955 magnetization      -0.0000000
 augmentation part       58.0474427 magnetization      -0.0000000

 Broyden mixing:
  rms(total) = 0.10083E+01    rms(broyden)= 0.10077E+01
  rms(prec ) = 0.11933E+01
  weight for this iteration     100.00

 eigenvalues of (default mixing * dielectric matrix)
  average eigenvalue GAMMA=   0.4405
  0.6112  0.2697

 Free energy of the ion-electron system (eV)
  ---------------------------------------------------
  alpha Z        PSCENC =       852.18652779
  Ewald energy   TEWEN  =    -11667.47828062
  -Hartree energ DENC   =     -8605.59592813
  -exchange      EXHF   =         0.00000000
  -V(xc)+E(xc)   XCENC  =       559.32186999
  PAW double counting   =     15493.79755627   -16090.67789095
  entropy T*S    EENTRO =         0.00000000
  eigenvalues    EBANDS =     -2343.04730960
  atomic energy  EATOM  =     21710.84102437
  Solvation  Ediel_sol  =         0.00000000
  ---------------------------------------------------
  free energy    TOTEN  =       -90.65243089 eV

  energy without entropy =      -90.65243089  energy(sigma->0) =      -90.65243089


--------------------------------------------------------------------------------------------------------




--------------------------------------- Iteration      1(   8)  ---------------------------------------


    POTLOK:  cpu time      0.0695: real time      0.1122
    SETDIJ:  cpu time      0.2708: real time      0.2717
    EDDIAG:  cpu time      3.5965: real time      3.6098
  RMM-DIIS:  cpu time     18.0267: real time     18.0911
    ORTHCH:  cpu time      0.5659: real time      0.5678
 BZINTS: Fermi energy:    4.314694;  160.000000 electrons
         Band energy:-0.234753E+04;  BLOECHL correction:   -0.020450
       DOS:  cpu time      0.1352: real time      0.1357
    CHARGE:  cpu time      0.5943: real time      0.5970
    MIXING:  cpu time      0.0014: real time      0.0014
    --------------------------------------------
      LOOP:  cpu time     23.2603: real time     23.3866

 eigenvalue-minimisations  : 46070
 total energy-change (2. order) :-0.5977551E+00  (-0.3462942E+00)
 number of electron     159.9999956 magnetization      -0.0000000
 augmentation part       58.4370892 magnetization      -0.0000000

 Broyden mixing:
  rms(total) = 0.46933E+00    rms(broyden)= 0.46912E+00
  rms(prec ) = 0.61962E+00
  weight for this iteration     100.00

 eigenvalues of (default mixing * dielectric matrix)
  average eigenvalue GAMMA=   0.6836
  0.3137  0.8685  0.8685

 Free energy of the ion-electron system (eV)
  ---------------------------------------------------
  alpha Z        PSCENC =       852.18652779
  Ewald energy   TEWEN  =    -11667.47828062
  -Hartree energ DENC   =     -8595.29346608
  -exchange      EXHF   =         0.00000000
  -V(xc)+E(xc)   XCENC  =       559.71495570
  PAW double counting   =     15555.34410046   -16159.03566610
  entropy T*S    EENTRO =         0.00000000
  eigenvalues    EBANDS =     -2347.52938151
  atomic energy  EATOM  =     21710.84102437
  Solvation  Ediel_sol  =         0.00000000
  ---------------------------------------------------
  free energy    TOTEN  =       -91.25018600 eV

  energy without entropy =      -91.25018600  energy(sigma->0) =      -91.25018600


--------------------------------------------------------------------------------------------------------




--------------------------------------- Iteration      1(   9)  ---------------------------------------


    POTLOK:  cpu time      0.0404: real time      0.0406
    SETDIJ:  cpu time      0.2698: real time      0.2706
    EDDIAG:  cpu time      3.6532: real time      3.6668
  RMM-DIIS:  cpu time     19.5500: real time     19.6189
    ORTHCH:  cpu time      0.5675: real time      0.5703
 BZINTS: Fermi energy:    4.250873;  160.000000 electrons
         Band energy:-0.235607E+04;  BLOECHL correction:   -0.016365
       DOS:  cpu time      0.1347: real time      0.1357
    CHARGE:  cpu time      0.5971: real time      0.5999
    MIXING:  cpu time      0.0013: real time      0.0013
    --------------------------------------------
      LOOP:  cpu time     24.8139: real time     24.9040

 eigenvalue-minimisations  : 51813
 total energy-change (2. order) :-0.5973716E-01  (-0.8565980E-01)
 number of electron     159.9999957 magnetization      -0.0000000
 augmentation part       58.7594251 magnetization      -0.0000000

 Broyden mixing:
  rms(total) = 0.24807E+00    rms(broyden)= 0.24784E+00
  rms(prec ) = 0.31044E+00
  weight for this iteration     100.00

 eigenvalues of (default mixing * dielectric matrix)
  average eigenvalue GAMMA=   0.9063
  0.3103  1.2878  1.2878  0.7391

 Free energy of the ion-electron system (eV)
  ---------------------------------------------------
  alpha Z        PSCENC =       852.18652779
  Ewald energy   TEWEN  =    -11667.47828062
  -Hartree energ DENC   =     -8580.65080355
  -exchange      EXHF   =         0.00000000
  -V(xc)+E(xc)   XCENC  =       559.91751697
  PAW double counting   =     15644.42575213   -16254.47788790
  entropy T*S    EENTRO =         0.00000000
  eigenvalues    EBANDS =     -2356.07377236
  atomic energy  EATOM  =     21710.84102437
  Solvation  Ediel_sol  =         0.00000000
  ---------------------------------------------------
  free energy    TOTEN  =       -91.30992316 eV

  energy without entropy =      -91.30992316  energy(sigma->0) =      -91.30992316


--------------------------------------------------------------------------------------------------------




--------------------------------------- Iteration      1(  10)  ---------------------------------------


    POTLOK:  cpu time      0.0593: real time      0.0596
    SETDIJ:  cpu time      0.2698: real time      0.2707
    EDDIAG:  cpu time      3.5833: real time      3.5973
  RMM-DIIS:  cpu time     20.5058: real time     20.5767
    ORTHCH:  cpu time      0.5646: real time      0.5666
 BZINTS: Fermi energy:    4.204872;  160.000000 electrons
         Band energy:-0.236015E+04;  BLOECHL correction:   -0.014999
       DOS:  cpu time      0.1286: real time      0.1290
    CHARGE:  cpu time      0.5976: real time      0.6002
    MIXING:  cpu time      0.0017: real time      0.0017
    --------------------------------------------
      LOOP:  cpu time     25.7106: real time     25.8018

 eigenvalue-minimisations  : 51685
 total energy-change (2. order) :-0.7277415E-02  (-0.2557853E-01)
 number of electron     159.9999957 magnetization      -0.0000000
 augmentation part       58.9897990 magnetization      -0.0000000

 Broyden mixing:
  rms(total) = 0.10721E+00    rms(broyden)= 0.10701E+00
  rms(prec ) = 0.12103E+00
  weight for this iteration     100.00

 eigenvalues of (default mixing * dielectric matrix)
  average eigenvalue GAMMA=   1.0707
  2.3518  0.3103  0.9974  0.9974  0.6963

 Free energy of the ion-electron system (eV)
  ---------------------------------------------------
  alpha Z        PSCENC =       852.18652779
  Ewald energy   TEWEN  =    -11667.47828062
  -Hartree energ DENC   =     -8571.90984820
  -exchange      EXHF   =         0.00000000
  -V(xc)+E(xc)   XCENC  =       560.00823385
  PAW double counting   =     15722.84658165   -16337.66192967
  entropy T*S    EENTRO =         0.00000000
  eigenvalues    EBANDS =     -2360.14950973
  atomic energy  EATOM  =     21710.84102437
  Solvation  Ediel_sol  =         0.00000000
  ---------------------------------------------------
  free energy    TOTEN  =       -91.31720058 eV

  energy without entropy =      -91.31720058  energy(sigma->0) =      -91.31720058


--------------------------------------------------------------------------------------------------------




--------------------------------------- Iteration      1(  11)  ---------------------------------------


    POTLOK:  cpu time      0.0531: real time      0.0918
    SETDIJ:  cpu time      0.2709: real time      0.2717
    EDDIAG:  cpu time      3.6136: real time      3.6284
  RMM-DIIS:  cpu time     19.4131: real time     19.4808
    ORTHCH:  cpu time      0.5683: real time      0.5702
 BZINTS: Fermi energy:    4.211514;  160.000000 electrons
         Band energy:-0.235998E+04;  BLOECHL correction:   -0.015262
       DOS:  cpu time      0.1345: real time      0.1350
    CHARGE:  cpu time      0.5922: real time      0.5950
    MIXING:  cpu time      0.0012: real time      0.0012
    --------------------------------------------
      LOOP:  cpu time     24.6469: real time     24.7742

 eigenvalue-minimisations  : 49841
 total energy-change (2. order) :-0.5857241E-02  (-0.4930984E-02)
 number of electron     159.9999957 magnetization      -0.0000000
 augmentation part       58.9917586 magnetization      -0.0000000

 Broyden mixing:
  rms(total) = 0.38792E-01    rms(broyden)= 0.38754E-01
  rms(prec ) = 0.43663E-01
  weight for this iteration     100.00

 eigenvalues of (default mixing * dielectric matrix)
  average eigenvalue GAMMA=   1.1011
  1.9235  1.9235  0.3103  0.8976  0.8976  0.6538

 Free energy of the ion-electron system (eV)
  ---------------------------------------------------
  alpha Z        PSCENC =       852.18652779
  Ewald energy   TEWEN  =    -11667.47828062
  -Hartree energ DENC   =     -8570.05290405
  -exchange      EXHF   =         0.00000000
  -V(xc)+E(xc)   XCENC  =       560.06276051
  PAW double counting   =     15766.66695939   -16383.57384800
  entropy T*S    EENTRO =         0.00000000
  eigenvalues    EBANDS =     -2359.97529721
  atomic energy  EATOM  =     21710.84102437
  Solvation  Ediel_sol  =         0.00000000
  ---------------------------------------------------
  free energy    TOTEN  =       -91.32305782 eV

  energy without entropy =      -91.32305782  energy(sigma->0) =      -91.32305782


--------------------------------------------------------------------------------------------------------




--------------------------------------- Iteration      1(  12)  ---------------------------------------


    POTLOK:  cpu time      0.0398: real time      0.0401
    SETDIJ:  cpu time      0.2713: real time      0.2719
    EDDIAG:  cpu time      3.6123: real time      3.6258
  RMM-DIIS:  cpu time     19.1926: real time     19.2622
    ORTHCH:  cpu time      0.5659: real time      0.5678
 BZINTS: Fermi energy:    4.222701;  160.000000 electrons
         Band energy:-0.235926E+04;  BLOECHL correction:   -0.015555
       DOS:  cpu time      0.1290: real time      0.1294
    CHARGE:  cpu time      0.6050: real time      0.6074
    MIXING:  cpu time      0.0016: real time      0.0016
    --------------------------------------------
      LOOP:  cpu time     24.4174: real time     24.5062

 eigenvalue-minimisations  : 49022
 total energy-change (2. order) :-0.5111716E-02  (-0.1094173E-02)
 number of electron     159.9999957 magnetization       0.0000000
 augmentation part       58.9751788 magnetization       0.0000000

 Broyden mixing:
  rms(total) = 0.20085E-01    rms(broyden)= 0.20060E-01
  rms(prec ) = 0.23828E-01
  weight for this iteration     100.00

 eigenvalues of (default mixing * dielectric matrix)
  average eigenvalue GAMMA=   1.0908
  2.4599  0.3103  1.3484  1.0458  1.0458  0.7821  0.6434

 Free energy of the ion-electron system (eV)
  ---------------------------------------------------
  alpha Z        PSCENC =       852.18652779
  Ewald energy   TEWEN  =    -11667.47828062
  -Hartree energ DENC   =     -8570.98045497
  -exchange      EXHF   =         0.00000000
  -V(xc)+E(xc)   XCENC  =       560.06874588
  PAW double counting   =     15767.61806875   -16384.32039423
  entropy T*S    EENTRO =         0.00000000
  eigenvalues    EBANDS =     -2359.26340650
  atomic energy  EATOM  =     21710.84102437
  Solvation  Ediel_sol  =         0.00000000
  ---------------------------------------------------
  free energy    TOTEN  =       -91.32816953 eV

  energy without entropy =      -91.32816953  energy(sigma->0) =      -91.32816953


--------------------------------------------------------------------------------------------------------




--------------------------------------- Iteration      1(  13)  ---------------------------------------


    POTLOK:  cpu time      0.0697: real time      0.0701
    SETDIJ:  cpu time      0.2696: real time      0.2703
    EDDIAG:  cpu time      3.6136: real time      3.6270
  RMM-DIIS:  cpu time     15.1821: real time     15.2360
    ORTHCH:  cpu time      0.5672: real time      0.5693
 BZINTS: Fermi energy:    4.225560;  160.000000 electrons
         Band energy:-0.235909E+04;  BLOECHL correction:   -0.015563
       DOS:  cpu time      0.1293: real time      0.1297
    CHARGE:  cpu time      0.5884: real time      0.5910
    MIXING:  cpu time      0.0016: real time      0.0016
    --------------------------------------------
      LOOP:  cpu time     20.4214: real time     20.4950

 eigenvalue-minimisations  : 37633
 total energy-change (2. order) :-0.7887444E-05  (-0.2465874E-03)
 number of electron     159.9999957 magnetization      -0.0000000
 augmentation part       58.9716619 magnetization      -0.0000000

 Broyden mixing:
  rms(total) = 0.11931E-01    rms(broyden)= 0.11921E-01
  rms(prec ) = 0.14373E-01
  weight for this iteration     100.00

 eigenvalues of (default mixing * dielectric matrix)
  average eigenvalue GAMMA=   1.1140
  2.5920  0.3103  1.3570  1.2169  1.2169  0.8072  0.7721  0.6398

 Free energy of the ion-electron system (eV)
  ---------------------------------------------------
  alpha Z        PSCENC =       852.18652779
  Ewald energy   TEWEN  =    -11667.47828062
  -Hartree energ DENC   =     -8571.28267208
  -exchange      EXHF   =         0.00000000
  -V(xc)+E(xc)   XCENC  =       560.09171299
  PAW double counting   =     15768.09433807   -16384.68937826
  entropy T*S    EENTRO =         0.00000000
  eigenvalues    EBANDS =     -2359.09144968
  atomic energy  EATOM  =     21710.84102437
  Solvation  Ediel_sol  =         0.00000000
  ---------------------------------------------------
  free energy    TOTEN  =       -91.32817742 eV

  energy without entropy =      -91.32817742  energy(sigma->0) =      -91.32817742


--------------------------------------------------------------------------------------------------------




--------------------------------------- Iteration      1(  14)  ---------------------------------------


    POTLOK:  cpu time      0.0424: real time      0.0852
    SETDIJ:  cpu time      0.2717: real time      0.2726
    EDDIAG:  cpu time      3.5899: real time      3.6034
  RMM-DIIS:  cpu time     11.6573: real time     11.6965
    ORTHCH:  cpu time      0.5590: real time      0.5611
 BZINTS: Fermi energy:    4.224975;  160.000000 electrons
         Band energy:-0.235904E+04;  BLOECHL correction:   -0.015524
       DOS:  cpu time      0.1340: real time      0.1345
    --------------------------------------------
      LOOP:  cpu time     16.2544: real time     16.3533

 eigenvalue-minimisations  : 27977
 total energy-change (2. order) : 0.9813518E-04  (-0.7519570E-04)
 number of electron     159.9999957 magnetization      -0.0000000
 augmentation part       58.9716619 magnetization      -0.0000000

 Free energy of the ion-electron system (eV)
  ---------------------------------------------------
  alpha Z        PSCENC =       852.18652779
  Ewald energy   TEWEN  =    -11667.47828062
  -Hartree energ DENC   =     -8571.42515548
  -exchange      EXHF   =         0.00000000
  -V(xc)+E(xc)   XCENC  =       560.10690622
  PAW double counting   =     15769.36003798   -16385.87891924
  entropy T*S    EENTRO =         0.00000000
  eigenvalues    EBANDS =     -2359.04022030
  atomic energy  EATOM  =     21710.84102437
  Solvation  Ediel_sol  =         0.00000000
  ---------------------------------------------------
  free energy    TOTEN  =       -91.32807929 eV

  energy without entropy =      -91.32807929  energy(sigma->0) =      -91.32807929


--------------------------------------------------------------------------------------------------------




 average (electrostatic) potential at core
  the test charge radii are     0.9500  1.0808
  (the norm of the test charge is              1.0000)
       1 -46.9131       2 -46.9131       3 -46.9131       4 -46.9131       5 -46.9131
       6 -46.9131       7 -46.9131       8 -46.9131       9 -54.6194      10 -54.6194
      11 -54.6194      12 -54.6194      13 -54.6194      14 -54.6194      15 -54.6194
      16 -54.6194
 
 
 
 E-fermi :   4.2250     XC(G=0): -10.6892     alpha+bet : -9.7642

 Fermi energy:         4.2249747461

 spin component 1

 k-point     1 :       0.0000    0.0000    0.0000
  band No.  band energies     occupation 
      1     -50.5018      1.00000
      2     -50.4895      1.00000
      3     -50.4895      1.00000
      4     -50.4800      1.00000
      5     -50.3900      1.00000
      6     -50.3303      1.00000
      7     -50.3203      1.00000
      8     -50.3203      1.00000
      9     -50.3084      1.00000
     10     -50.2161      1.00000
     11     -50.2161      1.00000
     12     -50.0392      1.00000
     13     -47.7571      1.00000
     14     -47.7540      1.00000
     15     -47.7540      1.00000
     16     -47.7526      1.00000
     17     -47.7292      1.00000
     18     -47.5371      1.00000
     19     -47.5371      1.00000
     20     -47.4090      1.00000
     21     -47.4084      1.00000
     22     -47.4084      1.00000
     23     -47.4047      1.00000
     24     -47.3414      1.00000
     25     -10.3672      1.00000
     26      -9.0518      1.00000
     27      -9.0518      1.00000
     28      -9.0370      1.00000
     29      -9.0370      1.00000
     30      -8.7802      1.00000
     31      -8.4934      1.00000
     32      -8.2916      1.00000
     33      -2.0745      1.00000
     34      -1.8004      1.00000
     35      -0.9013      1.00000
     36      -0.9013      1.00000
     37      -0.8284      1.00000
     38      -0.8284      1.00000
[...]
  0.000  -0.000  -0.000  -0.000   0.000   0.000  -0.038  -0.000
  0.000  -0.000  -0.000  -0.000   0.000   0.000  -0.000  -0.103
  0.000  -0.000   0.000  -0.000   0.000  -0.000  -0.135  -0.000
  0.000   0.000  -0.000  -0.000  -0.000   0.000  -0.000  -0.180
 -0.000   0.000  -0.000   0.000  -0.000   0.000  -0.000   0.009
 -0.000   0.000   0.000   0.000  -0.000  -0.000   0.008   0.000
 -0.000   0.000   0.000   0.000  -0.000  -0.000   0.000   0.025
  0.000   0.000   0.000  -0.000  -0.000  -0.000   0.000  -0.009
 -0.000  -0.000  -0.000   0.000   0.000   0.000  -0.000   0.002
 pseudopotential strength for first ion, spin component:           2
-52.709   0.102  -0.000  26.467  -0.074   0.000  -0.000  -0.000
  0.102 -52.736   0.000  -0.074  26.486  -0.000   0.000  -0.000
 -0.000   0.000 -52.686   0.000  -0.000  26.442  -0.000   0.000
 26.467  -0.074   0.000  -8.793   0.055  -0.000   0.000   0.000
 -0.074  26.486  -0.000   0.055  -8.807   0.000  -0.000   0.000
  0.000  -0.000  26.442  -0.000   0.000  -8.779   0.000  -0.000
 -0.000   0.000  -0.000   0.000  -0.000   0.000  -6.505   0.000
 -0.000  -0.000   0.000   0.000   0.000  -0.000   0.000  -6.873
  0.000  -0.000   0.000  -0.000   0.000  -0.000   0.000   0.109
  0.000  -0.000  -0.000  -0.000   0.000   0.000   0.115  -0.000
  0.000  -0.000  -0.000  -0.000   0.000   0.000  -0.000   0.025
  0.000  -0.000   0.000  -0.000   0.000  -0.000  -0.625  -0.000
  0.000   0.000  -0.000  -0.000  -0.000   0.000  -0.000  -0.540
 -0.000   0.000  -0.000   0.000  -0.000   0.000  -0.000  -0.024
 -0.000   0.000   0.000   0.000  -0.000  -0.000  -0.025   0.000
 -0.000   0.000   0.000   0.000  -0.000  -0.000   0.000  -0.007
  0.000   0.000   0.000  -0.000  -0.000  -0.000   0.000  -0.012
 -0.000  -0.000  -0.000   0.000   0.000   0.000  -0.000   0.003
 total augmentation occupancy for first ion, spin component:           1
  2.010  -0.018   0.000   0.057  -0.045   0.000   0.000   0.000   0.000   0.000  -0.000   0.000   0.000   0.000   0.000   0.000
 -0.018   2.014  -0.000  -0.045   0.066   0.000  -0.000  -0.000  -0.000   0.000  -0.000   0.000  -0.000   0.000   0.000   0.000
  0.000  -0.000   2.010   0.000   0.000   0.053   0.000  -0.000   0.000  -0.000   0.000  -0.000  -0.000  -0.000   0.000  -0.000
  0.057  -0.045  -0.000   0.196  -0.108   0.000  -0.000   0.000  -0.000   0.000   0.000  -0.000  -0.000   0.000   0.000   0.000
 -0.045   0.066   0.000  -0.108   0.218  -0.000   0.000  -0.000   0.000  -0.000   0.000   0.000  -0.000   0.000   0.000  -0.000
  0.000   0.000   0.053   0.000  -0.000   0.179  -0.000   0.000   0.000  -0.000   0.000  -0.000   0.000   0.000   0.000   0.000
  0.000   0.000  -0.000  -0.000   0.000   0.000   1.252   0.000  -0.000  -0.101  -0.000  -0.066   0.000   0.000  -0.057   0.000
  0.000   0.000  -0.000   0.000   0.000   0.000   0.000   1.464  -0.022  -0.000  -0.098  -0.000   0.092  -0.146   0.000   0.094
  0.000   0.000   0.000   0.000   0.000   0.000  -0.000  -0.022   1.298   0.000  -0.146  -0.000  -0.147   0.071  -0.000  -0.082
  0.000   0.000  -0.000   0.000  -0.000   0.000  -0.101   0.000   0.000   1.251   0.000  -0.058  -0.000   0.000  -0.040   0.000
  0.000   0.000   0.000   0.000   0.000   0.000   0.000  -0.098  -0.146   0.000   1.512   0.000   0.098  -0.080   0.000   0.159
  0.000   0.000   0.000  -0.000   0.000   0.000  -0.066  -0.000  -0.000  -0.058  -0.000   0.167  -0.000   0.000  -0.026   0.000
  0.000   0.000  -0.000  -0.000  -0.000   0.000  -0.000   0.092  -0.147  -0.000   0.098   0.000   0.248  -0.072  -0.000   0.090
  0.000   0.000  -0.000   0.000   0.000   0.000   0.000  -0.146   0.071  -0.000  -0.080   0.000  -0.072   0.171   0.000  -0.014
  0.000   0.000  -0.000   0.000   0.000   0.000  -0.057  -0.000   0.000  -0.040   0.000  -0.026  -0.000  -0.000   0.161   0.000
  0.000   0.000  -0.000   0.000   0.000   0.000  -0.000   0.094  -0.082   0.000   0.159   0.000   0.090  -0.014   0.000   0.140
  0.000   0.000   0.000   0.000   0.000   0.000   0.000  -0.007  -0.043   0.000   0.088  -0.000  -0.321   0.030   0.000  -0.007
  0.000   0.000   0.000   0.000   0.000   0.000   0.000   0.003   0.024   0.000  -0.016  -0.000   0.021  -0.006   0.000   0.003
 total augmentation occupancy for first ion, spin component:           2
 -0.006   0.000  -0.000  -0.002  -0.000  -0.000   0.000  -0.000  -0.000   0.000  -0.000   0.000   0.000   0.000  -0.000   0.000
  0.000  -0.008  -0.000  -0.000  -0.007   0.000   0.000   0.000  -0.000   0.000   0.000  -0.000   0.000   0.000  -0.000   0.000
 -0.000   0.000  -0.007  -0.000   0.000  -0.005  -0.000   0.000   0.000   0.000  -0.000   0.000   0.000  -0.000   0.000  -0.000
 -0.002  -0.000   0.000   0.015  -0.002   0.000   0.000  -0.000   0.000  -0.000   0.000  -0.000   0.000   0.000   0.000  -0.000
 -0.000  -0.007   0.000  -0.002   0.002  -0.000  -0.000   0.000   0.000  -0.000   0.000  -0.000   0.000   0.000   0.000   0.000
  0.000   0.000  -0.005   0.000  -0.000   0.011   0.000  -0.000   0.000  -0.000   0.000  -0.000   0.000   0.000  -0.000   0.000
  0.000   0.000   0.000   0.000  -0.000  -0.000   0.698   0.000  -0.000   0.119  -0.000  -0.271   0.000  -0.000   0.005   0.000
  0.000  -0.000   0.000  -0.000  -0.000  -0.000  -0.000   0.379   0.117  -0.000   0.051  -0.000  -0.195  -0.008   0.000  -0.032
 -0.000  -0.000   0.000  -0.000  -0.000   0.000  -0.000   0.117   0.539   0.000   0.187   0.000  -0.008  -0.213   0.000  -0.025
  0.000   0.000  -0.000  -0.000  -0.000   0.000   0.119   0.000   0.000   0.673  -0.000   0.007  -0.000  -0.000  -0.265  -0.000
 -0.000   0.000  -0.000   0.000  -0.000   0.000  -0.000   0.051   0.187  -0.000   0.241  -0.000  -0.018  -0.019  -0.000  -0.150
  0.000  -0.000   0.000  -0.000  -0.000  -0.000  -0.271  -0.000  -0.000   0.007   0.000   0.054   0.000  -0.000   0.006   0.000
 -0.000   0.000   0.000   0.000  -0.000   0.000   0.000  -0.195  -0.008  -0.000  -0.018  -0.000   0.008   0.025   0.000  -0.002
 -0.000   0.000  -0.000   0.000   0.000   0.000   0.000  -0.008  -0.213  -0.000  -0.019   0.000   0.025   0.009  -0.000   0.008
 -0.000  -0.000   0.000   0.000   0.000   0.000   0.005   0.000  -0.000  -0.265   0.000   0.006  -0.000  -0.000   0.038   0.000
  0.000  -0.000  -0.000   0.000   0.000   0.000  -0.000  -0.032  -0.025   0.000  -0.150  -0.000  -0.002   0.008   0.000  -0.015
 -0.000  -0.000   0.000   0.000   0.000   0.000   0.000   0.120   0.028   0.000  -0.046   0.000  -0.033   0.004  -0.000  -0.024
  0.000  -0.000   0.000   0.000   0.000   0.000  -0.000   0.016   0.019   0.000  -0.018  -0.000  -0.003  -0.003  -0.000   0.000


------------------------ aborting loop because EDIFF is reached ----------------------------------------





 total charge

# of ion       s       p       d       tot
------------------------------------------
    1        0.344   6.299   6.083  12.727
    2        0.344   6.299   6.083  12.727
    3        0.344   6.299   6.083  12.727
    4        0.344   6.299   6.083  12.727
    5        0.344   6.299   6.083  12.727
    6        0.344   6.299   6.083  12.727
    7        0.344   6.299   6.083  12.727
    8        0.344   6.299   6.083  12.727
    9        1.492   2.257   0.058   3.808
   10        1.492   2.257   0.058   3.808
   11        1.492   2.257   0.058   3.808
   12        1.492   2.257   0.058   3.808
   13        1.492   2.257   0.058   3.808
   14        1.492   2.257   0.058   3.808
   15        1.492   2.257   0.058   3.808
   16        1.492   2.257   0.058   3.808
--------------------------------------------------
tot         14.693  68.454  49.131 132.277



 magnetization (x)

# of ion       s       p       d       tot
------------------------------------------
    1        0.027   0.014   2.467   2.507
    2       -0.027  -0.014  -2.467  -2.507
    3       -0.027  -0.014  -2.467  -2.507
    4        0.027   0.014   2.467   2.507
    5        0.027   0.014   2.467   2.507
    6       -0.027  -0.014  -2.467  -2.507
    7       -0.027  -0.014  -2.467  -2.507
    8        0.027   0.014   2.467   2.507
    9        0.000   0.000   0.000   0.000
   10        0.000   0.000   0.000   0.000
   11        0.000   0.000   0.000   0.000
   12        0.000   0.000   0.000   0.000
   13        0.000   0.000   0.000   0.000
   14        0.000   0.000   0.000   0.000
   15        0.000   0.000   0.000   0.000
   16        0.000   0.000   0.000   0.000
--------------------------------------------------
tot         -0.000   0.000   0.000  -0.000
 
    CHARGE:  cpu time      0.5736: real time      0.5764
    FORLOC:  cpu time      0.0025: real time      0.0026
    FORNL :  cpu time      5.1396: real time      5.1573
    STRESS:  cpu time     15.3853: real time     15.4408
    FORCOR:  cpu time      0.0385: real time      0.0386
    FORHAR:  cpu time      0.0053: real time      0.0053
    MIXING:  cpu time      0.0012: real time      0.0013
    OFIELD:  cpu time      0.0000: real time      0.0000
    FORVDW:  cpu time      0.8054: real time      0.8076

  FORCE on cell =-STRESS in cart. coord.  units (eV):
  Direction    XX          YY          ZZ          XY          YZ          ZX
  --------------------------------------------------------------------------------------
  Alpha Z   852.18653   852.18653   852.18653
  Ewald   -1332.32334 -2100.80302 -8234.37745    -0.00000     0.00000    -0.00000
  Hartree  5197.50910  4496.14687 -1121.49158     0.00000     0.00000    -0.00000
  E(xc)    -897.23581  -899.48689  -898.55296     0.00000     0.00000    -0.00000
  Local   -5770.61919 -4310.00702  7471.65393     0.00000     0.00000    -0.00000
  n-local  -277.21510  -249.61517  -241.72039    -0.76284    -0.38341    -0.86641
  augment   530.00588   516.03667   512.21546     0.00000    -0.00000     0.00000
  Kinetic  1704.22523  1702.22189  1666.89740     3.80232    -0.17335     0.43517
  Fock        0.00000     0.00000     0.00000     0.00000     0.00000     0.00000
  vdW        -6.50303    -6.55381    -6.81811    -0.00000     0.00000    -0.00000
  -------------------------------------------------------------------------------------
  Total       0.03025     0.12603    -0.00717     0.00000     0.00000     0.00000
  in kB       0.16265     0.67757    -0.03854     0.00000     0.00000     0.00000
  external pressure =        0.27 kB  Pullay stress =        0.00 kB


 VOLUME and BASIS-vectors are now :
 -----------------------------------------------------------------------------
  energy-cutoff  :      550.00
  volume of cell :      298.00
      direct lattice vectors                 reciprocal lattice vectors
     4.796279513 -5.616872682  0.000000000     0.104247469 -0.089017506  0.000000000
     4.796279513  5.616872682  0.000000000     0.104247469  0.089017506  0.000000000
     0.000000000  0.000000000  5.530790447     0.000000000  0.000000000  0.180805982

  length of vectors
     7.386037902  7.386037902  5.530790447     0.137082644  0.137082644  0.180805982


 FORCES acting on ions
    electron-ion (+dipol)            ewald-force                    non-local-force                 convergence-correction
 -----------------------------------------------------------------------------------------------
   -.268E-12 0.562E-13 0.113E-12   0.995E-13 0.139E-12 0.249E-13   -.249E-21 0.556E-21 0.213E-21   -.372E-14 0.843E-13 0.159E-12
   0.938E-12 0.148E-11 0.121E-12   0.814E-13 0.139E-12 0.115E-13   0.432E-21 -.135E-21 -.974E-21   -.287E-12 0.424E-13 0.149E-12
   0.965E-12 0.668E-12 0.350E-10   0.942E-13 0.142E-12 0.284E-13   0.790E-21 -.978E-22 0.853E-21   -.902E-13 0.106E-12 -.269E-12
   0.699E-11 0.962E-11 0.155E-10   0.853E-13 0.131E-12 0.000E+00   0.794E-21 -.872E-22 0.287E-21   -.191E-12 -.156E-12 0.117E-12
   0.495E-11 0.411E-11 0.707E-11   -.260E-13 -.853E-13 -.737E-13   -.920E-21 -.687E-22 0.517E-22   0.369E-12 0.489E-12 -.364E-13
   -.277E-12 -.332E-11 0.764E-11   0.000E+00 -.924E-13 -.604E-13   0.250E-21 0.276E-21 0.964E-21   -.557E-12 -.313E-12 -.239E-12
   -.209E-10 -.254E-10 -.457E-10   0.000E+00 -.782E-13 -.249E-13   -.429E-21 0.258E-21 -.952E-21   0.501E-12 0.620E-12 0.395E-12
   0.130E-11 0.461E-11 -.440E-10   -.685E-14 -.853E-13 -.284E-13   -.285E-21 -.790E-22 -.912E-22   -.668E-12 -.419E-12 0.473E-12
   0.645E-07 0.118E-11 0.311E+03   0.683E-14 -.249E-13 -.312E+03   -.907E-18 -.296E-17 0.106E+01   0.145E-12 0.880E-13 -.134E-01
   0.645E-07 -.816E-12 0.311E+03   0.000E+00 -.206E-13 -.312E+03   0.430E-17 -.353E-17 0.106E+01   -.103E-12 -.102E-12 -.134E-01
   0.645E-07 0.490E-11 0.311E+03   -.142E-13 -.256E-13 -.312E+03   -.263E-17 0.302E-18 0.106E+01   0.150E-12 0.142E-12 -.134E-01
   0.645E-07 -.200E-12 0.311E+03   0.214E-13 -.178E-13 -.312E+03   0.429E-17 0.346E-17 0.106E+01   -.146E-12 -.121E-12 -.134E-01
   -.645E-07 0.425E-12 -.311E+03   -.925E-13 -.243E-13 0.312E+03   0.255E-17 -.121E-17 -.106E+01   0.906E-13 0.578E-13 0.134E-01
   -.645E-07 0.176E-12 -.311E+03   -.847E-13 -.280E-13 0.312E+03   0.772E-18 -.106E-16 -.106E+01   -.910E-13 -.824E-13 0.134E-01
   -.645E-07 -.125E-12 -.311E+03   -.859E-13 -.425E-13 0.312E+03   -.896E-18 0.562E-17 -.106E+01   0.116E-12 0.864E-13 0.134E-01
   -.645E-07 0.227E-12 -.311E+03   -.780E-13 -.324E-13 0.312E+03   0.409E-18 -.731E-17 -.106E+01   -.110E-12 -.111E-12 0.134E-01
 -----------------------------------------------------------------------------------------------
   -.122E-10 -.239E-11 -.142E-10   0.444E-15 -.647E-14 0.000E+00   0.788E-17 -.163E-16 -.444E-15   -.874E-12 0.411E-12 0.661E-12
 
 
 POSITION                                       TOTAL-FORCE (eV/Angst)
 -----------------------------------------------------------------------------------
      0.00000      0.00000      0.00000         0.000000      0.000000     -0.000000
      2.39814      2.80844      0.00000         0.000000      0.000000     -0.000000
      2.39814     -2.80844      0.00000         0.000000      0.000000     -0.000000
      4.79628      0.00000      0.00000         0.000000      0.000000     -0.000000
      2.39814      0.00000      0.00000         0.000000      0.000000     -0.000000
      4.79628      2.80844      0.00000         0.000000      0.000000     -0.000000
      4.79628     -2.80844      0.00000         0.000000      0.000000     -0.000000
      7.19442      0.00000      0.00000         0.000000      0.000000     -0.000000
      2.39814     -1.40422      3.71896        -0.000000      0.000000     -0.007651
      4.79628      1.40422      3.71896         0.000000     -0.000000     -0.007651
      4.79628     -4.21265      3.71896        -0.000000     -0.000000     -0.007651
      7.19442     -1.40422      3.71896         0.000000      0.000000     -0.007651
      2.39814      1.40422      1.81183         0.000000     -0.000000      0.007651
      4.79628      4.21265      1.81183         0.000000      0.000000      0.007651
      4.79628     -1.40422      1.81183        -0.000000     -0.000000      0.007651
      7.19442      1.40422      1.81183        -0.000000     -0.000000      0.007651
 -----------------------------------------------------------------------------------
    total drift:                               -0.000000     -0.000000     -0.000000


--------------------------------------------------------------------------------------------------------



  FREE ENERGIE OF THE ION-ELECTRON SYSTEM (eV)
  ---------------------------------------------------
  free  energy   TOTEN  =       -98.39953970 eV

  energy  without entropy=      -98.39953970  energy(sigma->0) =      -98.39953970
 


--------------------------------------------------------------------------------------------------------


    POTLOK:  cpu time      0.3174: real time      0.3365


--------------------------------------------------------------------------------------------------------


     LOOP+:  cpu time    356.8150: real time    358.5190
 -----------------------------------------------------------------------------
|                                                                             |
|           W    W    AA    RRRRR   N    N  II  N    N   GGGG   !!!           |
|           W    W   A  A   R    R  NN   N  II  NN   N  G    G  !!!           |
|           W    W  A    A  R    R  N N  N  II  N N  N  G       !!!           |
|           W WW W  AAAAAA  RRRRR   N  N N  II  N  N N  G  GGG   !            |
|           WW  WW  A    A  R   R   N   NN  II  N   NN  G    G                |
|           W    W  A    A  R    R  N    N  II  N    N   GGGG   !!!           |
|                                                                             |
|     Tetrahedron method does not include variations of the Fermi             |
|     occupations, so forces and stress will be inaccurate. We suggest        |
|     using a different smearing scheme ISMEAR = 1 or 2 for metals in         |
|     relaxations.                                                            |
|                                                                             |
 -----------------------------------------------------------------------------

    4ORBIT:  cpu time      0.0000: real time      0.0000



 total charge

# of ion       s       p       d       tot
------------------------------------------
    1        0.344   6.299   6.083  12.727
    2        0.344   6.299   6.083  12.727
    3        0.344   6.299   6.083  12.727
    4        0.344   6.299   6.083  12.727
    5        0.344   6.299   6.083  12.727
    6        0.344   6.299   6.083  12.727
    7        0.344   6.299   6.083  12.727
    8        0.344   6.299   6.083  12.727
    9        1.492   2.257   0.058   3.808
   10        1.492   2.257   0.058   3.808
   11        1.492   2.257   0.058   3.808
   12        1.492   2.257   0.058   3.808
   13        1.492   2.257   0.058   3.808
   14        1.492   2.257   0.058   3.808
   15        1.492   2.257   0.058   3.808
   16        1.492   2.257   0.058   3.808
--------------------------------------------------
tot         14.693  68.454  49.131 132.277



 magnetization (x)

# of ion       s       p       d       tot
------------------------------------------
    1        0.027   0.014   2.467   2.507
    2       -0.027  -0.014  -2.467  -2.507
    3       -0.027  -0.014  -2.467  -2.507
    4        0.027   0.014   2.467   2.507
    5        0.027   0.014   2.467   2.507
    6       -0.027  -0.014  -2.467  -2.507
    7       -0.027  -0.014  -2.467  -2.507
    8        0.027   0.014   2.467   2.507
    9        0.000   0.000   0.000   0.000
   10        0.000   0.000   0.000   0.000
   11        0.000   0.000   0.000   0.000
   12        0.000   0.000   0.000   0.000
   13        0.000   0.000   0.000   0.000
   14        0.000   0.000   0.000   0.000
   15        0.000   0.000   0.000   0.000
   16        0.000   0.000   0.000   0.000
--------------------------------------------------
tot         -0.000   0.000   0.000  -0.000
 
 BZINTS: Fermi energy:    4.224975;  160.000000 electrons
         Band energy:-0.235904E+04;  BLOECHL correction:   -0.015524

 total amount of memory used by VASP MPI-rank0   175016. kBytes
=======================================================================

   base      :      30000. kBytes
   nonlr-proj:      11110. kBytes
   fftplans  :       2458. kBytes
   grid      :      15239. kBytes
   one-center:        497. kBytes
   wavefun   :     115712. kBytes
 
  
  
 General timing and accounting informations for this job:
 ========================================================
  
                  Total CPU time used (sec):      381.252
                            User time (sec):      379.645
                          System time (sec):        1.607
                         Elapsed time (sec):      384.042
  
                   Maximum memory used (kb):      453908.
                   Average memory used (kb):          N/A
  
                          Minor page faults:       164639
                          Major page faults:            0
                 Voluntary context switches:        35811
