 vasp.6.4.1 05Apr23 (build Jun 01 2023 13:46:15) complex                        
  
 executed on             LinuxIFC date 2023.12.16  23:50:47
 running   20 mpi-ranks, on    5 nodes
 distrk:  each k-point on   20 cores,    1 groups
 distr:  one band on NCORE=   1 cores,   20 groups


--------------------------------------------------------------------------------------------------------


 INCAR:
   ALGO = Fast
   EDIFF = 0.0002
   ENCUT = 550
   IBRION = 2
   ISIF = 4
   ISMEAR = 0
   ISPIN = 2
   IVDW = 13
   LASPH = True
   LMAXMIX = 4
   LORBIT = 11
   LREAL = Auto
   LWAVE = False
   MAGMOM = 1*2.509 2*-2.509 2*2.509 2*-2.509 1*2.509 8*0.0
   NELM = 100
   NSW = 99
   PREC = Accurate
   SIGMA = 0.05

 POTCAR:   PAW_PBE Fe_pv 06Sep2000                
 POTCAR:   PAW_PBE Se 06Sep2000                   
 -----------------------------------------------------------------------------
|                                                                             |
|           W    W    AA    RRRRR   N    N  II  N    N   GGGG   !!!           |
|           W    W   A  A   R    R  NN   N  II  NN   N  G    G  !!!           |
|           W    W  A    A  R    R  N N  N  II  N N  N  G       !!!           |
|           W WW W  AAAAAA  RRRRR   N  N N  II  N  N N  G  GGG   !            |
|           WW  WW  A    A  R   R   N   NN  II  N   NN  G    G                |
|           W    W  A    A  R    R  N    N  II  N    N   GGGG   !!!           |
|                                                                             |
|     For optimal performance we recommend to set                             |
|       NCORE = 2 up to number-of-cores-per-socket                            |
|     NCORE specifies how many cores store one orbital (NPAR=cpu/NCORE).      |
|     This setting can greatly improve the performance of VASP for DFT.       |
|     The default, NCORE=1 might be grossly inefficient on modern             |
|     multi-core architectures or massively parallel machines. Do your        |
|     own testing! More info at https://www.vasp.at/wiki/index.php/NCORE      |
|     Unfortunately you need to use the default for GW and RPA                |
|     calculations (for HF NCORE is supported but not extensively tested      |
|     yet).                                                                   |
|                                                                             |
 -----------------------------------------------------------------------------

 POTCAR:   PAW_PBE Fe_pv 06Sep2000                
   VRHFIN =Fe:  3pd7s1                                                                              
   LEXCH  = PE                                                                                      
   EATOM  =  2456.8974 eV,  180.5769 Ry                                                             
                                                                                                    
   TITEL  = PAW_PBE Fe_pv 06Sep2000                                                                 
   LULTRA =        F    use ultrasoft PP ?                                                          
   IUNSCR =        1    unscreen: 0-lin 1-nonlin 2-no                                               
   RPACOR =    1.750    partial core radius                                                         
   POMASS =   55.847; ZVAL   =   14.000    mass and valenz                                          
   RCORE  =    2.200    outmost cutoff radius                                                       
   RWIGS  =    2.200; RWIGS  =    1.164    wigner-seitz radius (au A)                               
   ENMAX  =  293.238; ENMIN  =  219.929 eV                                                          
   RCLOC  =    1.701    cutoff for local pot                                                        
   LCOR   =        T    correct aug charges                                                         
   LPAW   =        T    paw PP                                                                      
   EAUG   =  578.342                                                                                
   DEXC   =    -.002                                                                                
   RMAX   =    2.693    core radius for proj-oper                                                   
   RAUG   =    1.300    factor for augmentation sphere                                              
   RDEP   =    2.296    radius for radial grids                                                     
   QCUT   =   -4.642; QGAM   =    9.285    optimization parameters                                  
                                                                                                    
   Description                                                                                      
     l     E      TYP  RCUT    TYP  RCUT                                                            
     1   .000     23  2.000                                                                         
     1  -.400     23  2.000                                                                         
     2   .000     23  2.200                                                                         
     2   .000     23  2.200                                                                         
     0   .000     23  2.000                                                                         
     0  2.000     23  2.000                                                                         
     3   .000      7   .000                                                                         
  local pseudopotential read in
  partial core-charges read in
  atomic valenz-charges read in
  non local Contribution for L=           1  read in
    real space projection operators read in
  non local Contribution for L=           1  read in
    real space projection operators read in
  non local Contribution for L=           2  read in
    real space projection operators read in
  non local Contribution for L=           2  read in
    real space projection operators read in
  non local Contribution for L=           0  read in
    real space projection operators read in
  non local Contribution for L=           0  read in
    real space projection operators read in
    PAW grid and wavefunctions read in
 
   number of l-projection  operators is LMAX  =           6
   number of lm-projection operators is LMMAX =          18
 
 POTCAR:   PAW_PBE Se 06Sep2000                   
   VRHFIN =Se: s2p4                                                                                 
   LEXCH  = PE                                                                                      
   EATOM  =   256.9644 eV,   18.8864 Ry                                                             
                                                                                                    
   TITEL  = PAW_PBE Se 06Sep2000                                                                    
   LULTRA =        F    use ultrasoft PP ?                                                          
   IUNSCR =        1    unscreen: 0-lin 1-nonlin 2-no                                               
   RPACOR =    1.900    partial core radius                                                         
   POMASS =   78.960; ZVAL   =    6.000    mass and valenz                                          
   RCORE  =    2.100    outmost cutoff radius                                                       
   RWIGS  =    2.200; RWIGS  =    1.164    wigner-seitz radius (au A)                               
   ENMAX  =  211.534; ENMIN  =  158.651 eV                                                          
   ICORE  =        3    local potential                                                             
   LCOR   =        T    correct aug charges                                                         
   LPAW   =        T    paw PP                                                                      
   EAUG   =  446.842                                                                                
   DEXC   =    -.031                                                                                
   RMAX   =    3.170    core radius for proj-oper                                                   
   RAUG   =    1.300    factor for augmentation sphere                                              
   RDEP   =    2.177    radius for radial grids                                                     
   QCUT   =   -3.943; QGAM   =    7.886    optimization parameters                                  
                                                                                                    
   Description                                                                                      
     l     E      TYP  RCUT    TYP  RCUT                                                            
     0   .000     23  2.100                                                                         
     0   .000     23  2.100                                                                         
     1   .000     23  2.100                                                                         
     1   .000     23  2.100                                                                         
     2   .000     23  2.100                                                                         
     3  -.100      7  2.100                                                                         
  local pseudopotential read in
  partial core-charges read in
  atomic valenz-charges read in
  non local Contribution for L=           0  read in
    real space projection operators read in
  non local Contribution for L=           0  read in
    real space projection operators read in
  non local Contribution for L=           1  read in
    real space projection operators read in
  non local Contribution for L=           1  read in
    real space projection operators read in
  non local Contribution for L=           2  read in
    real space projection operators read in
    PAW grid and wavefunctions read in
 
   number of l-projection  operators is LMAX  =           5
   number of lm-projection operators is LMMAX =          13
 
 Optimization of the real space projectors (new method)

 maximal supplied QI-value         = 17.01
 optimisation between [QCUT,QGAM] = [ 11.91, 23.98] = [ 39.69,161.04] Ry 
 Optimized for a Real-space Cutoff    1.45 Angstroem

   l    n(q)    QCUT    max X(q) W(low)/X(q) W(high)/X(q)  e(spline) 
   1     10    11.905     4.550    0.27E-05    0.11E-05    0.28E-07
   1     10    11.905     5.234    0.10E-04    0.61E-04    0.17E-06
   2      9    11.905     3.960    0.19E-04    0.73E-05    0.50E-07
   2      9    11.905    29.565    0.24E-03    0.51E-04    0.27E-06
   0     10    11.905    23.582    0.17E-04    0.10E-05    0.14E-07
   0     10    11.905    39.747    0.23E-04    0.68E-05    0.74E-07
 Optimization of the real space projectors (new method)

 maximal supplied QI-value         = 17.95
 optimisation between [QCUT,QGAM] = [ 11.85, 23.88] = [ 39.31,159.64] Ry 
 Optimized for a Real-space Cutoff    1.18 Angstroem

   l    n(q)    QCUT    max X(q) W(low)/X(q) W(high)/X(q)  e(spline) 
   0      8    11.849     6.499    0.17E-04    0.94E-05    0.89E-08
   0      8    11.849    52.623    0.21E-03    0.78E-04    0.81E-07
   1      8    11.849     4.229    0.79E-04    0.83E-04    0.23E-07
   1      8    11.849    29.991    0.12E-03    0.43E-03    0.14E-06
   2      7    11.849     3.719    0.22E-03    0.64E-04    0.38E-07
 PAW_PBE Fe_pv 06Sep2000                :
 energy of atom  1       EATOM=-2456.8974
 kinetic energy error for atom=    0.0060 (will be added to EATOM!!)
 PAW_PBE Se 06Sep2000                   :
 energy of atom  2       EATOM= -256.9644
 kinetic energy error for atom=    0.0007 (will be added to EATOM!!)
 
 
 POSCAR: Fe8 Se8
  positions in direct lattice
  velocities in cartesian coordinates
 exchange correlation table for  LEXCH =        8
   RHO(1)=    0.500       N(1)  =     2000
   RHO(2)=  100.500       N(2)  =     4000
 


--------------------------------------------------------------------------------------------------------


 ion  position               nearest neighbor table
   1  0.000  0.000  0.000-  11 2.29  14 2.29   5 2.40   8 2.40
   2  0.000  0.500  0.000-  12 2.29  13 2.29   6 2.40   7 2.40
   3  0.500  0.000  0.000-   9 2.29  16 2.29   6 2.40   7 2.40
   4  0.500  0.500  0.000-  10 2.29  15 2.29   5 2.40   8 2.40
   5  0.250  0.250  0.000-   9 2.29  13 2.29   1 2.40   4 2.40
   6  0.250  0.750  0.000-  10 2.29  14 2.29   2 2.40   3 2.40
   7  0.750  0.250  0.000-  11 2.29  15 2.29   2 2.40   3 2.40
   8  0.750  0.750  0.000-  12 2.29  16 2.29   1 2.40   4 2.40
   9  0.375  0.125  0.672-   3 2.29   5 2.29
  10  0.375  0.625  0.672-   4 2.29   6 2.29
  11  0.875  0.125  0.672-   1 2.29   7 2.29
  12  0.875  0.625  0.672-   2 2.29   8 2.29
  13  0.125  0.375  0.328-   2 2.29   5 2.29
  14  0.125  0.875  0.328-   1 2.29   6 2.29
  15  0.625  0.375  0.328-   4 2.29   7 2.29
  16  0.625  0.875  0.328-   3 2.29   8 2.29
 
  LATTYP: Found a base centered orthorhombic cell.
 ALAT       =     9.5863098374
 B/A-ratio  =     1.1716254653
 C/A-ratio  =     0.5774349577
  
  Lattice vectors:
  
 A1 = (   4.7931549187,  -5.6157823617,   0.0000000000)
 A2 = (   4.7931549187,   5.6157823617,   0.0000000000)
 A3 = (   0.0000000000,   0.0000000000,   5.5354704150)


Analysis of symmetry for initial positions (statically):
=====================================================================
 Subroutine PRICEL returns following result:
 
  LATTYP: Found a base centered orthorhombic cell.
 ALAT       =     4.7931549187
 B/A-ratio  =     1.1716254653
 C/A-ratio  =     1.1548699153
  
  Lattice vectors:
  
 A1 = (   2.3965774593,  -2.8078911809,   0.0000000000)
 A2 = (   2.3965774593,   2.8078911809,   0.0000000000)
 A3 = (   0.0000000000,   0.0000000000,   5.5354704150)
 
   4 primitive cells build up your supercell.
 

 Routine SETGRP: Setting up the symmetry group for a 
 base centered orthorhombic supercell.


 Subroutine GETGRP returns: Found  8 space group operations
 (whereof  4 operations were pure point group operations)
 out of a pool of  8 trial point group operations.


The static configuration has the point symmetry C_2h.
 The point group associated with its full space group is D_2h.


Analysis of symmetry for dynamics (positions and initial velocities):
=====================================================================
 Subroutine PRICEL returns following result:
 
  LATTYP: Found a base centered orthorhombic cell.
 ALAT       =     4.7931549187
 B/A-ratio  =     1.1716254653
 C/A-ratio  =     1.1548699153
  
  Lattice vectors:
  
 A1 = (   2.3965774593,  -2.8078911809,   0.0000000000)
 A2 = (   2.3965774593,   2.8078911809,   0.0000000000)
 A3 = (   0.0000000000,   0.0000000000,   5.5354704150)
 
   4 primitive cells build up your supercell.
 

 Routine SETGRP: Setting up the symmetry group for a 
 base centered orthorhombic supercell.


 Subroutine GETGRP returns: Found  8 space group operations
 (whereof  4 operations were pure point group operations)
 out of a pool of  8 trial point group operations.


The dynamic configuration has the point symmetry C_2h.
 The point group associated with its full space group is D_2h.


Analysis of structural, dynamic, and magnetic symmetry:
=====================================================================
 Subroutine PRICEL returns following result:
 
  LATTYP: Found a base centered orthorhombic cell.
 ALAT       =     4.7931549187
 B/A-ratio  =     1.1716254653
 C/A-ratio  =     1.1548699153
  
  Lattice vectors:
  
 A1 = (   2.3965774593,  -2.8078911809,   0.0000000000)
 A2 = (   2.3965774593,   2.8078911809,   0.0000000000)
 A3 = (   0.0000000000,   0.0000000000,   5.5354704150)
 
   4 primitive cells build up your supercell.
 

 Routine SETGRP: Setting up the symmetry group for a 
 base centered orthorhombic supercell.


 Subroutine GETGRP returns: Found  8 space group operations
 (whereof  4 operations were pure point group operations)
 out of a pool of  8 trial point group operations.


The overall configuration has the point symmetry C_2h.
 The point group associated with its full space group is D_2h.


 Subroutine INISYM returns: Found  8 space group operations
 (whereof  4 operations are pure point group operations),
 and found     4 'primitive' translations


----------------------------------------------------------------------------------------

                                     Primitive cell                                     

  volume of cell :      74.5000

  direct lattice vectors                    reciprocal lattice vectors
     2.396577459 -2.807891181  0.000000000     0.208630853 -0.178069579  0.000000000
     2.396577459  2.807891181  0.000000000     0.208630853  0.178069579  0.000000000
     0.000000000  0.000000000  5.535470415     0.000000000  0.000000000  0.180653120

  length of vectors
     3.691589956  3.691589956  5.535470415     0.274291100  0.274291100  0.180653120

  position of ions in fractional coordinates (direct lattice)
     0.000000000  0.000000000  0.000000000
     0.500000000  0.500000000  0.000000000
     0.750000000  0.250000000  0.672238232
     0.250000000  0.750000000  0.327761768

  ion indices of the primitive-cell ions
   primitive index   ion index
                 1           1
                 2           5
                 3          11
                 4          14

----------------------------------------------------------------------------------------

 
 
 KPOINTS: KPOINTS                                 

Automatic generation of k-mesh.
 Grid dimensions read from file:
 generate k-points for:    7    7    9

 Generating k-lattice:

  Cartesian coordinates                     Fractional coordinates (reciprocal lattice)
     0.014902204 -0.012719256  0.000000000     0.142857143 -0.000000000  0.000000000
     0.014902204  0.012719256  0.000000000    -0.000000000  0.142857143  0.000000000
     0.000000000  0.000000000  0.020072569     0.000000000  0.000000000  0.111111111

  Length of vectors
     0.019592221  0.019592221  0.020072569

  Shift w.r.t. Gamma in fractional coordinates (k-lattice)
     0.000000000  0.000000000  0.000000000

 
 Subroutine IBZKPT returns following result:
 ===========================================
 
 Found     80 irreducible k-points:
 
 Following reciprocal coordinates:
            Coordinates               Weight
  0.000000  0.000000  0.000000      1.000000
  0.142857  0.000000  0.000000      4.000000
  0.285714  0.000000  0.000000      4.000000
  0.428571  0.000000  0.000000      4.000000
  0.142857  0.142857  0.000000      2.000000
  0.285714  0.142857  0.000000      4.000000
  0.428571  0.142857  0.000000      4.000000
 -0.428571  0.142857  0.000000      4.000000
 -0.285714  0.142857  0.000000      4.000000
 -0.142857  0.142857  0.000000      2.000000
  0.285714  0.285714  0.000000      2.000000
  0.428571  0.285714  0.000000      4.000000
 -0.428571  0.285714  0.000000      4.000000
 -0.285714  0.285714  0.000000      2.000000
  0.428571  0.428571  0.000000      2.000000
 -0.428571  0.428571  0.000000      2.000000
  0.000000  0.000000  0.111111      2.000000
  0.142857  0.000000  0.111111      8.000000
  0.285714  0.000000  0.111111      8.000000
  0.428571  0.000000  0.111111      8.000000
  0.142857  0.142857  0.111111      4.000000
  0.285714  0.142857  0.111111      8.000000
  0.428571  0.142857  0.111111      8.000000
 -0.428571  0.142857  0.111111      8.000000
 -0.285714  0.142857  0.111111      8.000000
 -0.142857  0.142857  0.111111      4.000000
  0.285714  0.285714  0.111111      4.000000
  0.428571  0.285714  0.111111      8.000000
 -0.428571  0.285714  0.111111      8.000000
 -0.285714  0.285714  0.111111      4.000000
  0.428571  0.428571  0.111111      4.000000
 -0.428571  0.428571  0.111111      4.000000
  0.000000  0.000000  0.222222      2.000000
  0.142857  0.000000  0.222222      8.000000
  0.285714  0.000000  0.222222      8.000000
  0.428571  0.000000  0.222222      8.000000
  0.142857  0.142857  0.222222      4.000000
  0.285714  0.142857  0.222222      8.000000
  0.428571  0.142857  0.222222      8.000000
 -0.428571  0.142857  0.222222      8.000000
 -0.285714  0.142857  0.222222      8.000000
 -0.142857  0.142857  0.222222      4.000000
  0.285714  0.285714  0.222222      4.000000
  0.428571  0.285714  0.222222      8.000000
 -0.428571  0.285714  0.222222      8.000000
 -0.285714  0.285714  0.222222      4.000000
  0.428571  0.428571  0.222222      4.000000
 -0.428571  0.428571  0.222222      4.000000
  0.000000  0.000000  0.333333      2.000000
  0.142857  0.000000  0.333333      8.000000
  0.285714  0.000000  0.333333      8.000000
  0.428571  0.000000  0.333333      8.000000
  0.142857  0.142857  0.333333      4.000000
  0.285714  0.142857  0.333333      8.000000
  0.428571  0.142857  0.333333      8.000000
 -0.428571  0.142857  0.333333      8.000000
 -0.285714  0.142857  0.333333      8.000000
 -0.142857  0.142857  0.333333      4.000000
  0.285714  0.285714  0.333333      4.000000
  0.428571  0.285714  0.333333      8.000000
 -0.428571  0.285714  0.333333      8.000000
 -0.285714  0.285714  0.333333      4.000000
  0.428571  0.428571  0.333333      4.000000
 -0.428571  0.428571  0.333333      4.000000
  0.000000  0.000000  0.444444      2.000000
  0.142857  0.000000  0.444444      8.000000
  0.285714  0.000000  0.444444      8.000000
  0.428571  0.000000  0.444444      8.000000
  0.142857  0.142857  0.444444      4.000000
  0.285714  0.142857  0.444444      8.000000
  0.428571  0.142857  0.444444      8.000000
 -0.428571  0.142857  0.444444      8.000000
 -0.285714  0.142857  0.444444      8.000000
 -0.142857  0.142857  0.444444      4.000000
  0.285714  0.285714  0.444444      4.000000
  0.428571  0.285714  0.444444      8.000000
 -0.428571  0.285714  0.444444      8.000000
 -0.285714  0.285714  0.444444      4.000000
  0.428571  0.428571  0.444444      4.000000
 -0.428571  0.428571  0.444444      4.000000
 
 Following cartesian coordinates:
            Coordinates               Weight
  0.000000  0.000000  0.000000      1.000000
  0.014902 -0.012719  0.000000      4.000000
  0.029804 -0.025439  0.000000      4.000000
  0.044707 -0.038158  0.000000      4.000000
  0.029804 -0.000000  0.000000      2.000000
  0.044707 -0.012719  0.000000      4.000000
  0.059609 -0.025439  0.000000      4.000000
 -0.029804  0.050877  0.000000      4.000000
 -0.014902  0.038158  0.000000      4.000000
 -0.000000  0.025439  0.000000      2.000000
  0.059609  0.000000  0.000000      2.000000
  0.074511 -0.012719  0.000000      4.000000
 -0.014902  0.063596  0.000000      4.000000
 -0.000000  0.050877  0.000000      2.000000
  0.089413  0.000000  0.000000      2.000000
 -0.000000  0.076316  0.000000      2.000000
  0.000000  0.000000  0.020073      2.000000
  0.014902 -0.012719  0.020073      8.000000
  0.029804 -0.025439  0.020073      8.000000
  0.044707 -0.038158  0.020073      8.000000
  0.029804 -0.000000  0.020073      4.000000
  0.044707 -0.012719  0.020073      8.000000
  0.059609 -0.025439  0.020073      8.000000
 -0.029804  0.050877  0.020073      8.000000
 -0.014902  0.038158  0.020073      8.000000
 -0.000000  0.025439  0.020073      4.000000
  0.059609  0.000000  0.020073      4.000000
  0.074511 -0.012719  0.020073      8.000000
 -0.014902  0.063596  0.020073      8.000000
 -0.000000  0.050877  0.020073      4.000000
  0.089413  0.000000  0.020073      4.000000
 -0.000000  0.076316  0.020073      4.000000
  0.000000  0.000000  0.040145      2.000000
  0.014902 -0.012719  0.040145      8.000000
  0.029804 -0.025439  0.040145      8.000000
  0.044707 -0.038158  0.040145      8.000000
  0.029804 -0.000000  0.040145      4.000000
  0.044707 -0.012719  0.040145      8.000000
  0.059609 -0.025439  0.040145      8.000000
 -0.029804  0.050877  0.040145      8.000000
 -0.014902  0.038158  0.040145      8.000000
 -0.000000  0.025439  0.040145      4.000000
  0.059609  0.000000  0.040145      4.000000
  0.074511 -0.012719  0.040145      8.000000
 -0.014902  0.063596  0.040145      8.000000
 -0.000000  0.050877  0.040145      4.000000
  0.089413  0.000000  0.040145      4.000000
 -0.000000  0.076316  0.040145      4.000000
  0.000000  0.000000  0.060218      2.000000
  0.014902 -0.012719  0.060218      8.000000
  0.029804 -0.025439  0.060218      8.000000
  0.044707 -0.038158  0.060218      8.000000
  0.029804 -0.000000  0.060218      4.000000
  0.044707 -0.012719  0.060218      8.000000
  0.059609 -0.025439  0.060218      8.000000
 -0.029804  0.050877  0.060218      8.000000
 -0.014902  0.038158  0.060218      8.000000
 -0.000000  0.025439  0.060218      4.000000
  0.059609  0.000000  0.060218      4.000000
  0.074511 -0.012719  0.060218      8.000000
 -0.014902  0.063596  0.060218      8.000000
 -0.000000  0.050877  0.060218      4.000000
  0.089413  0.000000  0.060218      4.000000
 -0.000000  0.076316  0.060218      4.000000
  0.000000  0.000000  0.080290      2.000000
  0.014902 -0.012719  0.080290      8.000000
  0.029804 -0.025439  0.080290      8.000000
  0.044707 -0.038158  0.080290      8.000000
  0.029804 -0.000000  0.080290      4.000000
  0.044707 -0.012719  0.080290      8.000000
  0.059609 -0.025439  0.080290      8.000000
 -0.029804  0.050877  0.080290      8.000000
 -0.014902  0.038158  0.080290      8.000000
 -0.000000  0.025439  0.080290      4.000000
  0.059609  0.000000  0.080290      4.000000
  0.074511 -0.012719  0.080290      8.000000
 -0.014902  0.063596  0.080290      8.000000
 -0.000000  0.050877  0.080290      4.000000
  0.089413  0.000000  0.080290      4.000000
 -0.000000  0.076316  0.080290      4.000000
 


--------------------------------------------------------------------------------------------------------




 Dimension of arrays:
   k-points           NKPTS =     80   k-points in BZ     NKDIM =     80   number of bands    NBANDS=    100
   number of dos      NEDOS =    301   number of ions     NIONS =     16
   non local maximal  LDIM  =      6   non local SUM 2l+1 LMDIM =     18
   total plane-waves  NPLWV = 131712
   max r-space proj   IRMAX =   5670   max aug-charges    IRDMAX=  19472
   dimension x,y,z NGX =    56 NGY =   56 NGZ =   42
   dimension x,y,z NGXF=   112 NGYF=  112 NGZF=   84
   support grid    NGXF=   112 NGYF=  112 NGZF=   84
   ions per type =               8   8
   NGX,Y,Z   is equivalent  to a cutoff of  12.61, 12.61, 12.61 a.u.
   NGXF,Y,Z  is equivalent  to a cutoff of  25.22, 25.22, 25.23 a.u.

 SYSTEM =  unknown system                          
 POSCAR =  Fe8 Se8                                 

 Startparameter for this run:
   NWRITE =      2    write-flag & timer
   PREC   = accura    normal or accurate (medium, high low for compatibility)
   ISTART =      0    job   : 0-new  1-cont  2-samecut
   ICHARG =      2    charge: 1-file 2-atom 10-const
   ISPIN  =      2    spin polarized calculation?
   LNONCOLLINEAR =      F non collinear calculations
   LSORBIT =      F    spin-orbit coupling
   INIWAV =      1    electr: 0-lowe 1-rand  2-diag
   LASPH  =      T    aspherical Exc in radial PAW
 Electronic Relaxation 1
   ENCUT  =  550.0 eV  40.42 Ry    6.36 a.u.  14.12 14.12 10.59*2*pi/ulx,y,z
   ENINI  =  550.0     initial cutoff
   ENAUG  =  578.3 eV  augmentation charge cutoff
   NELM   =    100;   NELMIN=  2; NELMDL=  0     # of ELM steps 
   EDIFF  = 0.2E-03   stopping-criterion for ELM
   LREAL  =      T    real-space projection
   NLSPLINE    = F    spline interpolate recip. space projectors
   LCOMPAT=      F    compatible to vasp.4.4
   GGA_COMPAT  = T    GGA compatible to vasp.4.4-vasp.4.6
   LMAXPAW     = -100 max onsite density
   LMAXMIX     =    4 max onsite mixed and CHGCAR
   VOSKOWN=      0    Vosko Wilk Nusair interpolation
   ROPT   =   -0.00025  -0.00025
 Ionic relaxation
   EDIFFG = 0.2E-02   stopping-criterion for IOM
   NSW    =     99    number of steps for IOM
   NBLOCK =      1;   KBLOCK =     99    inner block; outer block 
   IBRION =      2    ionic relax: 0-MD 1-quasi-New 2-CG
   NFREE  =      1    steps in history (QN), initial steepest desc. (CG)
   ISIF   =      4    stress and relaxation
   IWAVPR =     11    prediction:  0-non 1-charg 2-wave 3-comb
   ISYM   =      2    0-nonsym 1-usesym 2-fastsym
   LCORR  =      T    Harris-Foulkes like correction to forces

   POTIM  = 0.5000    time-step for ionic-motion
   TEIN   =    0.0    initial temperature
   TEBEG  =    0.0;   TEEND  =   0.0 temperature during run
   SMASS  =  -3.00    Nose mass-parameter (am)
   estimated Nose-frequenzy (Omega)   =  0.10E-29 period in steps = 0.13E+47 mass=  -0.125E-26a.u.
   SCALEE = 1.0000    scale energy and forces
   NPACO  =    256;   APACO  = 10.0  distance and # of slots for P.C.
   PSTRESS=    0.0 pullay stress

  Mass of Ions in am
   POMASS =  55.85 78.96
  Ionic Valenz
   ZVAL   =  14.00  6.00
  Atomic Wigner-Seitz radii
   RWIGS  =  -1.00 -1.00
  virtual crystal weights 
   VCA    =   1.00  1.00
   NELECT =     160.0000    total number of electrons
   NUPDOWN=      -1.0000    fix difference up-down

 DOS related values:
   EMIN   =  10.00;   EMAX   =-10.00  energy-range for DOS
   EFERMI =   0.00;   METHOD = LEGACY      
   ISMEAR =     0;   SIGMA  =   0.05  broadening in eV -4-tet -1-fermi 0-gaus

 Electronic relaxation 2 (details)
   IALGO  =     68    algorithm
   LDIAG  =      T    sub-space diagonalisation (order eigenvalues)
   LSUBROT=      F    optimize rotation matrix (better conditioning)
   TURBO    =      0    0=normal 1=particle mesh
   IRESTART =      0    0=no restart 2=restart with 2 vectors
   NREBOOT  =      0    no. of reboots
   NMIN     =      0    reboot dimension
   EREF     =   0.00    reference energy to select bands
   IMIX   =      4    mixing-type and parameters
     AMIX     =   0.40;   BMIX     =  1.00
     AMIX_MAG =   1.60;   BMIX_MAG =  1.00
     AMIN     =   0.10
     WC   =   100.;   INIMIX=   1;  MIXPRE=   1;  MAXMIX= -45

 Intra band minimization:
   WEIMIN = 0.0010     energy-eigenvalue tresh-hold
   EBREAK =  0.50E-06  absolut break condition
   DEPER  =   0.30     relativ break condition  

   TIME   =   0.40     timestep for ELM

  volume/ion in A,a.u.               =      18.63       125.69
  Fermi-wavevector in a.u.,A,eV,Ry     =   1.330585  2.514442 24.088535  1.770457
  Thomas-Fermi vector in A             =   2.459661
 
 Write flags
   LWAVE        =      F    write WAVECAR
   LDOWNSAMPLE  =      F    k-point downsampling of WAVECAR
   LCHARG       =      T    write CHGCAR
   LVTOT        =      F    write LOCPOT, total local potential
   LVHAR        =      F    write LOCPOT, Hartree potential only
   LELF         =      F    write electronic localiz. function (ELF)
   LORBIT       =     11    0 simple, 1 ext, 2 COOP (PROOUT), +10 PAW based schemes


 Dipole corrections
   LMONO  =      F    monopole corrections only (constant potential shift)
   LDIPOL =      F    correct potential (dipole corrections)
   IDIPOL =      0    1-x, 2-y, 3-z, 4-all directions 
   EPSILON=  1.0000000 bulk dielectric constant

 Exchange correlation treatment:
   GGA     =    --    GGA type
   LEXCH   =     8    internal setting for exchange type
   LIBXC   =     F    Libxc                    
   VOSKOWN =     0    Vosko Wilk Nusair interpolation
   LHFCALC =     F    Hartree Fock is set to
   LHFONE  =     F    Hartree Fock one center treatment
   AEXX    =    0.0000 exact exchange contribution

 Linear response parameters
   LEPSILON=     F    determine dielectric tensor
   LRPA    =     F    only Hartree local field effects (RPA)
   LNABLA  =     F    use nabla operator in PAW spheres
   LVEL    =     F    velocity operator in full k-point grid
   CSHIFT  =0.1000    complex shift for real part using Kramers Kronig
   OMEGAMAX=  -1.0    maximum frequency
   DEG_THRESHOLD= 0.2000000E-02 threshold for treating states as degnerate
   RTIME   =   -0.100 relaxation time in fs
  (WPLASMAI=    0.000 imaginary part of plasma frequency in eV, 0.658/RTIME)
   DFIELD  = 0.0000000 0.0000000 0.0000000 field for delta impulse in time
 
  Optional k-point grid parameters
   LKPOINTS_OPT  =     F    use optional k-point grid
   KPOINTS_OPT_MODE=     1    mode for optional k-point grid
 
 Orbital magnetization related:
   ORBITALMAG=     F  switch on orbital magnetization
   LCHIMAG   =     F  perturbation theory with respect to B field
   DQ        =  0.001000  dq finite difference perturbation B field
   LLRAUG    =     F  two centre corrections for induced B field
   LBONE     =     F  B-component reconstruction in AE one-centre
   LVGVCALC  =     T  calculate vGv susceptibility
   LVGVAPPL  =     F  apply vGv susceptibility instead of pGv for G=0

 Random number generation:
   RANDOM_GENERATOR = DEFAULT
   PCG_SEED         = not used


--------------------------------------------------------------------------------------------------------


 conjugate gradient relaxation of ions
 charge density and potential will be updated during run
 spin polarized calculation
 RMM-DIIS sequential band-by-band and
  variant of blocked Davidson during initial phase
 perform sub-space diagonalisation
    before iterative eigenvector-optimisation
 modified Broyden-mixing scheme, WC =      100.0
 initial mixing is a Kerker type mixing with AMIX =  0.4000 and BMIX =      1.0000
 Hartree-type preconditioning will be used
 using additional bands           20
 real space projection scheme for non local part
 use partial core corrections
 calculate Harris-corrections to forces 
   (improved forces if not selfconsistent)
 use gradient corrections 
 use of overlap-Matrix (Vanderbilt PP)
 Gauss-broadening in eV      SIGMA  =   0.05


--------------------------------------------------------------------------------------------------------


  energy-cutoff  :      550.00
  volume of cell :      298.00
      direct lattice vectors                 reciprocal lattice vectors
     4.793154919 -5.615782362  0.000000000     0.104315427 -0.089034789  0.000000000
     4.793154919  5.615782362  0.000000000     0.104315427  0.089034789  0.000000000
     0.000000000  0.000000000  5.535470415     0.000000000  0.000000000  0.180653120

  length of vectors
     7.383179912  7.383179912  5.535470415     0.137145550  0.137145550  0.180653120


 
 k-points in units of 2pi/SCALE and weight: KPOINTS                                 
   0.00000000  0.00000000  0.00000000       0.002
   0.01490220 -0.01271926  0.00000000       0.009
   0.02980441 -0.02543851  0.00000000       0.009
   0.04470661 -0.03815777  0.00000000       0.009
   0.02980441  0.00000000  0.00000000       0.005
   0.04470661 -0.01271926  0.00000000       0.009
   0.05960882 -0.02543851  0.00000000       0.009
  -0.02980441  0.05087702  0.00000000       0.009
  -0.01490220  0.03815777  0.00000000       0.009
  -0.00000000  0.02543851  0.00000000       0.005
   0.05960882  0.00000000  0.00000000       0.005
   0.07451102 -0.01271926  0.00000000       0.009
  -0.01490220  0.06359628  0.00000000       0.009
   0.00000000  0.05087702  0.00000000       0.005
   0.08941322 -0.00000000  0.00000000       0.005
   0.00000000  0.07631553  0.00000000       0.005
   0.00000000  0.00000000  0.02007257       0.005
   0.01490220 -0.01271926  0.02007257       0.018
   0.02980441 -0.02543851  0.02007257       0.018
   0.04470661 -0.03815777  0.02007257       0.018
   0.02980441  0.00000000  0.02007257       0.009
   0.04470661 -0.01271926  0.02007257       0.018
   0.05960882 -0.02543851  0.02007257       0.018
  -0.02980441  0.05087702  0.02007257       0.018
  -0.01490220  0.03815777  0.02007257       0.018
  -0.00000000  0.02543851  0.02007257       0.009
   0.05960882  0.00000000  0.02007257       0.009
   0.07451102 -0.01271926  0.02007257       0.018
  -0.01490220  0.06359628  0.02007257       0.018
   0.00000000  0.05087702  0.02007257       0.009
   0.08941322 -0.00000000  0.02007257       0.009
   0.00000000  0.07631553  0.02007257       0.009
   0.00000000  0.00000000  0.04014514       0.005
   0.01490220 -0.01271926  0.04014514       0.018
   0.02980441 -0.02543851  0.04014514       0.018
   0.04470661 -0.03815777  0.04014514       0.018
   0.02980441  0.00000000  0.04014514       0.009
   0.04470661 -0.01271926  0.04014514       0.018
   0.05960882 -0.02543851  0.04014514       0.018
  -0.02980441  0.05087702  0.04014514       0.018
  -0.01490220  0.03815777  0.04014514       0.018
  -0.00000000  0.02543851  0.04014514       0.009
   0.05960882  0.00000000  0.04014514       0.009
   0.07451102 -0.01271926  0.04014514       0.018
  -0.01490220  0.06359628  0.04014514       0.018
   0.00000000  0.05087702  0.04014514       0.009
   0.08941322 -0.00000000  0.04014514       0.009
   0.00000000  0.07631553  0.04014514       0.009
   0.00000000  0.00000000  0.06021771       0.005
   0.01490220 -0.01271926  0.06021771       0.018
   0.02980441 -0.02543851  0.06021771       0.018
   0.04470661 -0.03815777  0.06021771       0.018
   0.02980441  0.00000000  0.06021771       0.009
   0.04470661 -0.01271926  0.06021771       0.018
   0.05960882 -0.02543851  0.06021771       0.018
  -0.02980441  0.05087702  0.06021771       0.018
  -0.01490220  0.03815777  0.06021771       0.018
  -0.00000000  0.02543851  0.06021771       0.009
   0.05960882  0.00000000  0.06021771       0.009
   0.07451102 -0.01271926  0.06021771       0.018
  -0.01490220  0.06359628  0.06021771       0.018
   0.00000000  0.05087702  0.06021771       0.009
   0.08941322 -0.00000000  0.06021771       0.009
   0.00000000  0.07631553  0.06021771       0.009
   0.00000000  0.00000000  0.08029028       0.005
   0.01490220 -0.01271926  0.08029028       0.018
   0.02980441 -0.02543851  0.08029028       0.018
   0.04470661 -0.03815777  0.08029028       0.018
   0.02980441  0.00000000  0.08029028       0.009
   0.04470661 -0.01271926  0.08029028       0.018
   0.05960882 -0.02543851  0.08029028       0.018
  -0.02980441  0.05087702  0.08029028       0.018
  -0.01490220  0.03815777  0.08029028       0.018
  -0.00000000  0.02543851  0.08029028       0.009
   0.05960882  0.00000000  0.08029028       0.009
   0.07451102 -0.01271926  0.08029028       0.018
  -0.01490220  0.06359628  0.08029028       0.018
   0.00000000  0.05087702  0.08029028       0.009
   0.08941322 -0.00000000  0.08029028       0.009
   0.00000000  0.07631553  0.08029028       0.009
 
 k-points in reciprocal lattice and weights: KPOINTS                                 
   0.00000000  0.00000000  0.00000000       0.002
   0.14285714  0.00000000  0.00000000       0.009
   0.28571429  0.00000000  0.00000000       0.009
   0.42857143  0.00000000  0.00000000       0.009
   0.14285714  0.14285714  0.00000000       0.005
   0.28571429  0.14285714  0.00000000       0.009
   0.42857143  0.14285714  0.00000000       0.009
  -0.42857143  0.14285714  0.00000000       0.009
  -0.28571429  0.14285714  0.00000000       0.009
  -0.14285714  0.14285714  0.00000000       0.005
   0.28571429  0.28571429  0.00000000       0.005
   0.42857143  0.28571429  0.00000000       0.009
  -0.42857143  0.28571429  0.00000000       0.009
  -0.28571429  0.28571429  0.00000000       0.005
   0.42857143  0.42857143  0.00000000       0.005
  -0.42857143  0.42857143  0.00000000       0.005
   0.00000000  0.00000000  0.11111111       0.005
   0.14285714  0.00000000  0.11111111       0.018
   0.28571429  0.00000000  0.11111111       0.018
   0.42857143  0.00000000  0.11111111       0.018
   0.14285714  0.14285714  0.11111111       0.009
   0.28571429  0.14285714  0.11111111       0.018
   0.42857143  0.14285714  0.11111111       0.018
  -0.42857143  0.14285714  0.11111111       0.018
  -0.28571429  0.14285714  0.11111111       0.018
  -0.14285714  0.14285714  0.11111111       0.009
   0.28571429  0.28571429  0.11111111       0.009
   0.42857143  0.28571429  0.11111111       0.018
  -0.42857143  0.28571429  0.11111111       0.018
  -0.28571429  0.28571429  0.11111111       0.009
   0.42857143  0.42857143  0.11111111       0.009
  -0.42857143  0.42857143  0.11111111       0.009
   0.00000000  0.00000000  0.22222222       0.005
   0.14285714  0.00000000  0.22222222       0.018
   0.28571429  0.00000000  0.22222222       0.018
   0.42857143  0.00000000  0.22222222       0.018
   0.14285714  0.14285714  0.22222222       0.009
   0.28571429  0.14285714  0.22222222       0.018
   0.42857143  0.14285714  0.22222222       0.018
  -0.42857143  0.14285714  0.22222222       0.018
  -0.28571429  0.14285714  0.22222222       0.018
  -0.14285714  0.14285714  0.22222222       0.009
   0.28571429  0.28571429  0.22222222       0.009
   0.42857143  0.28571429  0.22222222       0.018
  -0.42857143  0.28571429  0.22222222       0.018
  -0.28571429  0.28571429  0.22222222       0.009
   0.42857143  0.42857143  0.22222222       0.009
  -0.42857143  0.42857143  0.22222222       0.009
   0.00000000  0.00000000  0.33333333       0.005
   0.14285714  0.00000000  0.33333333       0.018
   0.28571429  0.00000000  0.33333333       0.018
   0.42857143  0.00000000  0.33333333       0.018
   0.14285714  0.14285714  0.33333333       0.009
   0.28571429  0.14285714  0.33333333       0.018
   0.42857143  0.14285714  0.33333333       0.018
  -0.42857143  0.14285714  0.33333333       0.018
  -0.28571429  0.14285714  0.33333333       0.018
  -0.14285714  0.14285714  0.33333333       0.009
   0.28571429  0.28571429  0.33333333       0.009
   0.42857143  0.28571429  0.33333333       0.018
  -0.42857143  0.28571429  0.33333333       0.018
  -0.28571429  0.28571429  0.33333333       0.009
   0.42857143  0.42857143  0.33333333       0.009
  -0.42857143  0.42857143  0.33333333       0.009
   0.00000000  0.00000000  0.44444444       0.005
   0.14285714  0.00000000  0.44444444       0.018
   0.28571429  0.00000000  0.44444444       0.018
   0.42857143  0.00000000  0.44444444       0.018
   0.14285714  0.14285714  0.44444444       0.009
   0.28571429  0.14285714  0.44444444       0.018
   0.42857143  0.14285714  0.44444444       0.018
  -0.42857143  0.14285714  0.44444444       0.018
  -0.28571429  0.14285714  0.44444444       0.018
  -0.14285714  0.14285714  0.44444444       0.009
   0.28571429  0.28571429  0.44444444       0.009
   0.42857143  0.28571429  0.44444444       0.018
  -0.42857143  0.28571429  0.44444444       0.018
  -0.28571429  0.28571429  0.44444444       0.009
   0.42857143  0.42857143  0.44444444       0.009
  -0.42857143  0.42857143  0.44444444       0.009
 
 position of ions in fractional coordinates (direct lattice) 
   0.00000000  0.00000000  0.00000000
   0.00000000  0.50000000  0.00000000
   0.50000000  0.00000000  0.00000000
   0.50000000  0.50000000  0.00000000
   0.25000000  0.25000000  0.00000000
   0.25000000  0.75000000  0.00000000
   0.75000000  0.25000000  0.00000000
   0.75000000  0.75000000  0.00000000
   0.37500000  0.12500000  0.67223823
   0.37500000  0.62500000  0.67223823
   0.87500000  0.12500000  0.67223823
   0.87500000  0.62500000  0.67223823
   0.12500000  0.37500000  0.32776177
   0.12500000  0.87500000  0.32776177
   0.62500000  0.37500000  0.32776177
   0.62500000  0.87500000  0.32776177
 
 position of ions in cartesian coordinates  (Angst):
   0.00000000  0.00000000  0.00000000
   2.39657746  2.80789118  0.00000000
   2.39657746 -2.80789118  0.00000000
   4.79315492  0.00000000  0.00000000
   2.39657746  0.00000000  0.00000000
   4.79315492  2.80789118  0.00000000
   4.79315492 -2.80789118  0.00000000
   7.18973238  0.00000000  0.00000000
   2.39657746 -1.40394559  3.72115485
   4.79315492  1.40394559  3.72115485
   4.79315492 -4.21183677  3.72115485
   7.18973238 -1.40394559  3.72115485
   2.39657746  1.40394559  1.81431557
   4.79315492  4.21183677  1.81431557
   4.79315492 -1.40394559  1.81431557
   7.18973238  1.40394559  1.81431557
 


--------------------------------------------------------------------------------------------------------


 k-point   1 :   0.0000 0.0000 0.0000  plane waves:    8779
 k-point   2 :   0.1429 0.0000 0.0000  plane waves:    8751
 k-point   3 :   0.2857 0.0000 0.0000  plane waves:    8740
 k-point   4 :   0.4286 0.0000 0.0000  plane waves:    8743
 k-point   5 :   0.1429 0.1429 0.0000  plane waves:    8727
 k-point   6 :   0.2857 0.1429 0.0000  plane waves:    8739
 k-point   7 :   0.4286 0.1429 0.0000  plane waves:    8747
 k-point   8 :  -0.4286 0.1429 0.0000  plane waves:    8735
 k-point   9 :  -0.2857 0.1429 0.0000  plane waves:    8733
 k-point  10 :  -0.1429 0.1429 0.0000  plane waves:    8751
 k-point  11 :   0.2857 0.2857 0.0000  plane waves:    8748
 k-point  12 :   0.4286 0.2857 0.0000  plane waves:    8740
 k-point  13 :  -0.4286 0.2857 0.0000  plane waves:    8729
 k-point  14 :  -0.2857 0.2857 0.0000  plane waves:    8732
 k-point  15 :   0.4286 0.4286 0.0000  plane waves:    8718
 k-point  16 :  -0.4286 0.4286 0.0000  plane waves:    8702
 k-point  17 :   0.0000 0.0000 0.1111  plane waves:    8733
 k-point  18 :   0.1429 0.0000 0.1111  plane waves:    8737
 k-point  19 :   0.2857 0.0000 0.1111  plane waves:    8740
 k-point  20 :   0.4286 0.0000 0.1111  plane waves:    8740
 k-point  21 :   0.1429 0.1429 0.1111  plane waves:    8729
 k-point  22 :   0.2857 0.1429 0.1111  plane waves:    8732
 k-point  23 :   0.4286 0.1429 0.1111  plane waves:    8738
 k-point  24 :  -0.4286 0.1429 0.1111  plane waves:    8734
 k-point  25 :  -0.2857 0.1429 0.1111  plane waves:    8737
 k-point  26 :  -0.1429 0.1429 0.1111  plane waves:    8728
 k-point  27 :   0.2857 0.2857 0.1111  plane waves:    8748
 k-point  28 :   0.4286 0.2857 0.1111  plane waves:    8736
 k-point  29 :  -0.4286 0.2857 0.1111  plane waves:    8739
 k-point  30 :  -0.2857 0.2857 0.1111  plane waves:    8732
 k-point  31 :   0.4286 0.4286 0.1111  plane waves:    8721
 k-point  32 :  -0.4286 0.4286 0.1111  plane waves:    8736
 k-point  33 :   0.0000 0.0000 0.2222  plane waves:    8711
 k-point  34 :   0.1429 0.0000 0.2222  plane waves:    8724
 k-point  35 :   0.2857 0.0000 0.2222  plane waves:    8717
 k-point  36 :   0.4286 0.0000 0.2222  plane waves:    8724
 k-point  37 :   0.1429 0.1429 0.2222  plane waves:    8720
 k-point  38 :   0.2857 0.1429 0.2222  plane waves:    8733
 k-point  39 :   0.4286 0.1429 0.2222  plane waves:    8724
 k-point  40 :  -0.4286 0.1429 0.2222  plane waves:    8726
 k-point  41 :  -0.2857 0.1429 0.2222  plane waves:    8732
 k-point  42 :  -0.1429 0.1429 0.2222  plane waves:    8733
 k-point  43 :   0.2857 0.2857 0.2222  plane waves:    8744
 k-point  44 :   0.4286 0.2857 0.2222  plane waves:    8753
 k-point  45 :  -0.4286 0.2857 0.2222  plane waves:    8734
 k-point  46 :  -0.2857 0.2857 0.2222  plane waves:    8744
 k-point  47 :   0.4286 0.4286 0.2222  plane waves:    8747
 k-point  48 :  -0.4286 0.4286 0.2222  plane waves:    8745
 k-point  49 :   0.0000 0.0000 0.3333  plane waves:    8739
 k-point  50 :   0.1429 0.0000 0.3333  plane waves:    8721
 k-point  51 :   0.2857 0.0000 0.3333  plane waves:    8709
 k-point  52 :   0.4286 0.0000 0.3333  plane waves:    8714
 k-point  53 :   0.1429 0.1429 0.3333  plane waves:    8712
 k-point  54 :   0.2857 0.1429 0.3333  plane waves:    8712
 k-point  55 :   0.4286 0.1429 0.3333  plane waves:    8724
 k-point  56 :  -0.4286 0.1429 0.3333  plane waves:    8730
 k-point  57 :  -0.2857 0.1429 0.3333  plane waves:    8719
 k-point  58 :  -0.1429 0.1429 0.3333  plane waves:    8706
 k-point  59 :   0.2857 0.2857 0.3333  plane waves:    8730
 k-point  60 :   0.4286 0.2857 0.3333  plane waves:    8733
 k-point  61 :  -0.4286 0.2857 0.3333  plane waves:    8734
 k-point  62 :  -0.2857 0.2857 0.3333  plane waves:    8719
 k-point  63 :   0.4286 0.4286 0.3333  plane waves:    8760
 k-point  64 :  -0.4286 0.4286 0.3333  plane waves:    8749
 k-point  65 :   0.0000 0.0000 0.4444  plane waves:    8720
 k-point  66 :   0.1429 0.0000 0.4444  plane waves:    8707
 k-point  67 :   0.2857 0.0000 0.4444  plane waves:    8716
 k-point  68 :   0.4286 0.0000 0.4444  plane waves:    8706
 k-point  69 :   0.1429 0.1429 0.4444  plane waves:    8721
 k-point  70 :   0.2857 0.1429 0.4444  plane waves:    8718
 k-point  71 :   0.4286 0.1429 0.4444  plane waves:    8712
 k-point  72 :  -0.4286 0.1429 0.4444  plane waves:    8713
 k-point  73 :  -0.2857 0.1429 0.4444  plane waves:    8706
 k-point  74 :  -0.1429 0.1429 0.4444  plane waves:    8706
 k-point  75 :   0.2857 0.2857 0.4444  plane waves:    8729
 k-point  76 :   0.4286 0.2857 0.4444  plane waves:    8724
 k-point  77 :  -0.4286 0.2857 0.4444  plane waves:    8737
 k-point  78 :  -0.2857 0.2857 0.4444  plane waves:    8716
 k-point  79 :   0.4286 0.4286 0.4444  plane waves:    8721
 k-point  80 :  -0.4286 0.4286 0.4444  plane waves:    8737

 maximum and minimum number of plane-waves per node :      8779     8702

 maximum number of plane-waves:      8779
 maximum index in each direction: 
   IXMAX=   14   IYMAX=   14   IZMAX=   10
   IXMIN=  -14   IYMIN=  -14   IZMIN=  -11


 serial   3D FFT for wavefunctions
 parallel 3D FFT for charge:
    minimum data exchange during FFTs selected (reduces bandwidth)


 total amount of memory used by VASP MPI-rank0   175028. kBytes
=======================================================================

   base      :      30000. kBytes
   nonlr-proj:      11122. kBytes
   fftplans  :       2458. kBytes
   grid      :      15239. kBytes
   one-center:        497. kBytes
   wavefun   :     115712. kBytes
 
     INWAV:  cpu time      0.0000: real time      0.0002
 Broyden mixing: mesh for mixing (old mesh)
   NGX = 29   NGY = 29   NGZ = 21
  (NGX  =112   NGY  =112   NGZ  = 84)
  gives a total of  17661 points

 initial charge density was supplied:
 charge density of overlapping atoms calculated
 number of electron     160.0000000 magnetization      -0.0000000
 keeping initial charge density in first step


--------------------------------------------------------------------------------------------------------


 Maximum index for non-local projection operator         5447
 Maximum index for augmentation-charges         1080 (set IRDMAX)


--------------------------------------------------------------------------------------------------------


 First call to EWALD:  gamma=   0.265
 Maximum number of real-space cells 3x 3x 3
 Maximum number of reciprocal cells 3x 3x 2

    FEWALD:  cpu time      0.0013: real time      0.0014


--------------------------------------- Ionic step        1  -------------------------------------------




--------------------------------------- Iteration      1(   1)  ---------------------------------------


    POTLOK:  cpu time      0.0495: real time      0.0646
    SETDIJ:  cpu time      0.2720: real time      0.2728
     EDDAV:  cpu time     24.0190: real time     24.1132
       DOS:  cpu time      0.0025: real time      0.0026
    --------------------------------------------
      LOOP:  cpu time     24.3430: real time     24.4533

 eigenvalue-minimisations  : 34600
 total energy-change (2. order) : 0.2031005E+04  (-0.8897717E+04)
 number of electron     160.0000000 magnetization      -0.0000000
 augmentation part      160.0000000 magnetization      -0.0000000

 Free energy of the ion-electron system (eV)
  ---------------------------------------------------
  alpha Z        PSCENC =       852.18652779
  Ewald energy   TEWEN  =    -11664.14450670
  -Hartree energ DENC   =     -8783.40234174
  -exchange      EXHF   =         0.00000000
  -V(xc)+E(xc)   XCENC  =       566.23417165
  PAW double counting   =     15528.42155740   -16124.23173557
  entropy T*S    EENTRO =        -0.00898692
  eigenvalues    EBANDS =       -54.89051629
  atomic energy  EATOM  =     21710.84102437
  Solvation  Ediel_sol  =         0.00000000
  ---------------------------------------------------
  free energy    TOTEN  =      2031.00519398 eV

  energy without entropy =     2031.01418090  energy(sigma->0) =     2031.00968744


--------------------------------------------------------------------------------------------------------




--------------------------------------- Iteration      1(   2)  ---------------------------------------


     EDDAV:  cpu time     22.6224: real time     22.7497
       DOS:  cpu time      0.0019: real time      0.0019
    --------------------------------------------
      LOOP:  cpu time     22.6243: real time     22.7515

 eigenvalue-minimisations  : 32000
 total energy-change (2. order) :-0.1910455E+04  (-0.1855425E+04)
 number of electron     160.0000000 magnetization      -0.0000000
 augmentation part      160.0000000 magnetization      -0.0000000

 Free energy of the ion-electron system (eV)
  ---------------------------------------------------
  alpha Z        PSCENC =       852.18652779
  Ewald energy   TEWEN  =    -11664.14450670
  -Hartree energ DENC   =     -8783.40234174
  -exchange      EXHF   =         0.00000000
  -V(xc)+E(xc)   XCENC  =       566.23417165
  PAW double counting   =     15528.42155740   -16124.23173557
  entropy T*S    EENTRO =        -0.01618926
  eigenvalues    EBANDS =     -1965.33835916
  atomic energy  EATOM  =     21710.84102437
  Solvation  Ediel_sol  =         0.00000000
  ---------------------------------------------------
  free energy    TOTEN  =       120.55014876 eV

  energy without entropy =      120.56633803  energy(sigma->0) =      120.55824340


--------------------------------------------------------------------------------------------------------




--------------------------------------- Iteration      1(   3)  ---------------------------------------


     EDDAV:  cpu time     30.3290: real time     30.4557
       DOS:  cpu time      0.0027: real time      0.0027
    --------------------------------------------
      LOOP:  cpu time     30.3317: real time     30.4584

 eigenvalue-minimisations  : 45420
 total energy-change (2. order) :-0.2050818E+03  (-0.1823385E+03)
 number of electron     160.0000000 magnetization      -0.0000000
 augmentation part      160.0000000 magnetization      -0.0000000

 Free energy of the ion-electron system (eV)
  ---------------------------------------------------
  alpha Z        PSCENC =       852.18652779
  Ewald energy   TEWEN  =    -11664.14450670
  -Hartree energ DENC   =     -8783.40234174
  -exchange      EXHF   =         0.00000000
  -V(xc)+E(xc)   XCENC  =       566.23417165
  PAW double counting   =     15528.42155740   -16124.23173557
  entropy T*S    EENTRO =        -0.02614747
  eigenvalues    EBANDS =     -2170.41019703
  atomic energy  EATOM  =     21710.84102437
  Solvation  Ediel_sol  =         0.00000000
  ---------------------------------------------------
  free energy    TOTEN  =       -84.53164731 eV

  energy without entropy =      -84.50549985  energy(sigma->0) =      -84.51857358


--------------------------------------------------------------------------------------------------------




--------------------------------------- Iteration      1(   4)  ---------------------------------------


     EDDAV:  cpu time     29.9530: real time     30.0680
       DOS:  cpu time      0.0023: real time      0.0023
    --------------------------------------------
      LOOP:  cpu time     29.9553: real time     30.0703

 eigenvalue-minimisations  : 47140
 total energy-change (2. order) :-0.1419653E+02  (-0.1385549E+02)
 number of electron     160.0000000 magnetization      -0.0000000
 augmentation part      160.0000000 magnetization      -0.0000000

 Free energy of the ion-electron system (eV)
  ---------------------------------------------------
  alpha Z        PSCENC =       852.18652779
  Ewald energy   TEWEN  =    -11664.14450670
  -Hartree energ DENC   =     -8783.40234174
  -exchange      EXHF   =         0.00000000
  -V(xc)+E(xc)   XCENC  =       566.23417165
  PAW double counting   =     15528.42155740   -16124.23173557
  entropy T*S    EENTRO =        -0.02618312
  eigenvalues    EBANDS =     -2184.60668776
  atomic energy  EATOM  =     21710.84102437
  Solvation  Ediel_sol  =         0.00000000
  ---------------------------------------------------
  free energy    TOTEN  =       -98.72817370 eV

  energy without entropy =      -98.70199057  energy(sigma->0) =      -98.71508214


--------------------------------------------------------------------------------------------------------




--------------------------------------- Iteration      1(   5)  ---------------------------------------


     EDDAV:  cpu time     29.9627: real time     30.1165
       DOS:  cpu time      0.0020: real time      0.0020
    CHARGE:  cpu time      0.6209: real time      0.6243
    MIXING:  cpu time      0.0017: real time      0.0017
    --------------------------------------------
      LOOP:  cpu time     30.5872: real time     30.7445

 eigenvalue-minimisations  : 44960
 total energy-change (2. order) :-0.3155799E+00  (-0.3148066E+00)
 number of electron     159.9999959 magnetization      -0.0000000
 augmentation part       53.1735601 magnetization      -0.0000000

 Broyden mixing:
  rms(total) = 0.27248E+01    rms(broyden)= 0.27245E+01
  rms(prec ) = 0.42865E+01
  weight for this iteration     100.00

 Free energy of the ion-electron system (eV)
  ---------------------------------------------------
  alpha Z        PSCENC =       852.18652779
  Ewald energy   TEWEN  =    -11664.14450670
  -Hartree energ DENC   =     -8783.40234174
  -exchange      EXHF   =         0.00000000
  -V(xc)+E(xc)   XCENC  =       566.23417165
  PAW double counting   =     15528.42155740   -16124.23173557
  entropy T*S    EENTRO =        -0.02604820
  eigenvalues    EBANDS =     -2184.92240257
  atomic energy  EATOM  =     21710.84102437
  Solvation  Ediel_sol  =         0.00000000
  ---------------------------------------------------
  free energy    TOTEN  =       -99.04375359 eV

  energy without entropy =      -99.01770538  energy(sigma->0) =      -99.03072948


--------------------------------------------------------------------------------------------------------




--------------------------------------- Iteration      1(   6)  ---------------------------------------


    POTLOK:  cpu time      0.0427: real time      0.0430
    SETDIJ:  cpu time      0.2718: real time      0.2727
    EDDIAG:  cpu time      3.7170: real time      3.7315
  RMM-DIIS:  cpu time     12.1757: real time     12.2180
    ORTHCH:  cpu time      0.5613: real time      0.5634
       DOS:  cpu time      0.0019: real time      0.0019
    CHARGE:  cpu time      0.5962: real time      0.5996
    MIXING:  cpu time      0.0013: real time      0.0013
    --------------------------------------------
      LOOP:  cpu time     17.3680: real time     17.4315

 eigenvalue-minimisations  : 32044
 total energy-change (2. order) :-0.1394585E+02  (-0.1655194E+02)
 number of electron     159.9999944 magnetization      -0.0000000
 augmentation part       69.9233915 magnetization      -0.0000000

 Broyden mixing:
  rms(total) = 0.50634E+01    rms(broyden)= 0.50633E+01
  rms(prec ) = 0.82299E+01
  weight for this iteration     100.00

 eigenvalues of (default mixing * dielectric matrix)
  average eigenvalue GAMMA=   0.3063
  0.3063

 Free energy of the ion-electron system (eV)
  ---------------------------------------------------
  alpha Z        PSCENC =       852.18652779
  Ewald energy   TEWEN  =    -11664.14450670
  -Hartree energ DENC   =     -8331.88385233
  -exchange      EXHF   =         0.00000000
  -V(xc)+E(xc)   XCENC  =       554.07718360
  PAW double counting   =     15005.33592261   -15569.51758320
  entropy T*S    EENTRO =        -0.02519523
  eigenvalues    EBANDS =     -2669.85912127
  atomic energy  EATOM  =     21710.84102437
  Solvation  Ediel_sol  =         0.00000000
  ---------------------------------------------------
  free energy    TOTEN  =      -112.98960037 eV

  energy without entropy =     -112.96440514  energy(sigma->0) =     -112.97700275


--------------------------------------------------------------------------------------------------------




--------------------------------------- Iteration      1(   7)  ---------------------------------------


    POTLOK:  cpu time      0.0400: real time      0.0403
    SETDIJ:  cpu time      0.2720: real time      0.2729
    EDDIAG:  cpu time      3.4495: real time      3.4636
  RMM-DIIS:  cpu time     12.3515: real time     12.3956
    ORTHCH:  cpu time      0.5690: real time      0.5709
       DOS:  cpu time      0.0020: real time      0.0020
    CHARGE:  cpu time      0.6266: real time      0.6291
    MIXING:  cpu time      0.0013: real time      0.0013
    --------------------------------------------
      LOOP:  cpu time     17.3119: real time     17.3756

 eigenvalue-minimisations  : 32003
 total energy-change (2. order) : 0.2226535E+02  (-0.4203885E+01)
 number of electron     159.9999958 magnetization      -0.0000000
 augmentation part       58.0280533 magnetization      -0.0000000

 Broyden mixing:
  rms(total) = 0.10071E+01    rms(broyden)= 0.10065E+01
  rms(prec ) = 0.11968E+01
  weight for this iteration     100.00

 eigenvalues of (default mixing * dielectric matrix)
  average eigenvalue GAMMA=   0.4421
  0.6150  0.2693

 Free energy of the ion-electron system (eV)
  ---------------------------------------------------
  alpha Z        PSCENC =       852.18652779
  Ewald energy   TEWEN  =    -11664.14450670
  -Hartree energ DENC   =     -8609.19323316
  -exchange      EXHF   =         0.00000000
  -V(xc)+E(xc)   XCENC  =       559.31449499
  PAW double counting   =     15493.21921322   -16090.08830883
  entropy T*S    EENTRO =        -0.03022159
  eigenvalues    EBANDS =     -2342.82923696
  atomic energy  EATOM  =     21710.84102437
  Solvation  Ediel_sol  =         0.00000000
  ---------------------------------------------------
  free energy    TOTEN  =       -90.72424688 eV

  energy without entropy =      -90.69402528  energy(sigma->0) =      -90.70913608


--------------------------------------------------------------------------------------------------------




--------------------------------------- Iteration      1(   8)  ---------------------------------------


    POTLOK:  cpu time      0.0944: real time      0.1280
    SETDIJ:  cpu time      0.2725: real time      0.2732
    EDDIAG:  cpu time      3.6401: real time      3.6535
  RMM-DIIS:  cpu time     16.2234: real time     16.2799
    ORTHCH:  cpu time      0.5772: real time      0.5798
       DOS:  cpu time      0.0020: real time      0.0020
    CHARGE:  cpu time      0.6264: real time      0.6294
    MIXING:  cpu time      0.0014: real time      0.0014
    --------------------------------------------
      LOOP:  cpu time     21.4373: real time     21.5472

 eigenvalue-minimisations  : 41134
 total energy-change (2. order) :-0.5389132E+00  (-0.2905341E+00)
 number of electron     159.9999959 magnetization      -0.0000000
 augmentation part       58.4442692 magnetization      -0.0000000

 Broyden mixing:
  rms(total) = 0.45946E+00    rms(broyden)= 0.45925E+00
  rms(prec ) = 0.60872E+00
  weight for this iteration     100.00

 eigenvalues of (default mixing * dielectric matrix)
  average eigenvalue GAMMA=   0.6866
  0.3121  0.8738  0.8738

 Free energy of the ion-electron system (eV)
  ---------------------------------------------------
  alpha Z        PSCENC =       852.18652779
  Ewald energy   TEWEN  =    -11664.14450670
  -Hartree energ DENC   =     -8598.56365452
  -exchange      EXHF   =         0.00000000
  -V(xc)+E(xc)   XCENC  =       559.73335266
  PAW double counting   =     15556.06807157   -16159.87160645
  entropy T*S    EENTRO =        -0.02690825
  eigenvalues    EBANDS =     -2347.48546054
  atomic energy  EATOM  =     21710.84102437
  Solvation  Ediel_sol  =         0.00000000
  ---------------------------------------------------
  free energy    TOTEN  =       -91.26316007 eV

  energy without entropy =      -91.23625182  energy(sigma->0) =      -91.24970595


--------------------------------------------------------------------------------------------------------




--------------------------------------- Iteration      1(   9)  ---------------------------------------


    POTLOK:  cpu time      0.0410: real time      0.0413
    SETDIJ:  cpu time      0.2733: real time      0.2741
    EDDIAG:  cpu time      3.6879: real time      3.7015
  RMM-DIIS:  cpu time     16.8111: real time     16.8705
    ORTHCH:  cpu time      0.5542: real time      0.5564
       DOS:  cpu time      0.0020: real time      0.0020
    CHARGE:  cpu time      0.5881: real time      0.5907
    MIXING:  cpu time      0.0013: real time      0.0013
    --------------------------------------------
      LOOP:  cpu time     21.9589: real time     22.0378

 eigenvalue-minimisations  : 45580
 total energy-change (2. order) :-0.5599718E-01  (-0.7995247E-01)
 number of electron     159.9999959 magnetization       0.0000000
 augmentation part       58.7810323 magnetization       0.0000000

 Broyden mixing:
  rms(total) = 0.23844E+00    rms(broyden)= 0.23820E+00
  rms(prec ) = 0.29626E+00
  weight for this iteration     100.00

 eigenvalues of (default mixing * dielectric matrix)
  average eigenvalue GAMMA=   0.9118
  0.3088  1.3053  1.3053  0.7278

 Free energy of the ion-electron system (eV)
  ---------------------------------------------------
  alpha Z        PSCENC =       852.18652779
  Ewald energy   TEWEN  =    -11664.14450670
  -Hartree energ DENC   =     -8583.57341795
  -exchange      EXHF   =         0.00000000
  -V(xc)+E(xc)   XCENC  =       559.90415910
  PAW double counting   =     15647.09784430   -16257.32588632
  entropy T*S    EENTRO =        -0.02293858
  eigenvalues    EBANDS =     -2356.28196326
  atomic energy  EATOM  =     21710.84102437
  Solvation  Ediel_sol  =         0.00000000
  ---------------------------------------------------
  free energy    TOTEN  =       -91.31915725 eV

  energy without entropy =      -91.29621867  energy(sigma->0) =      -91.30768796


--------------------------------------------------------------------------------------------------------




--------------------------------------- Iteration      1(  10)  ---------------------------------------


    POTLOK:  cpu time      0.0387: real time      0.0390
    SETDIJ:  cpu time      0.2688: real time      0.2696
    EDDIAG:  cpu time      3.4370: real time      3.4500
  RMM-DIIS:  cpu time     17.7036: real time     17.7665
    ORTHCH:  cpu time      0.5635: real time      0.5654
       DOS:  cpu time      0.0020: real time      0.0021
    CHARGE:  cpu time      0.6121: real time      0.6147
    MIXING:  cpu time      0.0016: real time      0.0016
    --------------------------------------------
      LOOP:  cpu time     22.6274: real time     22.7089

 eigenvalue-minimisations  : 45875
 total energy-change (2. order) :-0.8601778E-02  (-0.2409579E-01)
 number of electron     159.9999959 magnetization       0.0000000
 augmentation part       58.9785015 magnetization       0.0000000

 Broyden mixing:
  rms(total) = 0.10246E+00    rms(broyden)= 0.10229E+00
  rms(prec ) = 0.11554E+00
  weight for this iteration     100.00

 eigenvalues of (default mixing * dielectric matrix)
  average eigenvalue GAMMA=   1.0716
  2.3342  0.3088  1.0114  1.0114  0.6924

 Free energy of the ion-electron system (eV)
  ---------------------------------------------------
  alpha Z        PSCENC =       852.18652779
  Ewald energy   TEWEN  =    -11664.14450670
  -Hartree energ DENC   =     -8575.64897336
  -exchange      EXHF   =         0.00000000
  -V(xc)+E(xc)   XCENC  =       559.98558168
  PAW double counting   =     15722.02419100   -16336.82073083
  entropy T*S    EENTRO =        -0.02039745
  eigenvalues    EBANDS =     -2359.73047553
  atomic energy  EATOM  =     21710.84102437
  Solvation  Ediel_sol  =         0.00000000
  ---------------------------------------------------
  free energy    TOTEN  =       -91.32775903 eV

  energy without entropy =      -91.30736158  energy(sigma->0) =      -91.31756031


--------------------------------------------------------------------------------------------------------




--------------------------------------- Iteration      1(  11)  ---------------------------------------


    POTLOK:  cpu time      0.0581: real time      0.0976
    SETDIJ:  cpu time      0.2722: real time      0.2730
    EDDIAG:  cpu time      3.7143: real time      3.7279
  RMM-DIIS:  cpu time     17.0233: real time     17.0833
    ORTHCH:  cpu time      0.5760: real time      0.5779
       DOS:  cpu time      0.0020: real time      0.0020
    CHARGE:  cpu time      0.6539: real time      0.6566
    MIXING:  cpu time      0.0016: real time      0.0016
    --------------------------------------------
      LOOP:  cpu time     22.3013: real time     22.4199

 eigenvalue-minimisations  : 43611
 total energy-change (2. order) :-0.6525384E-02  (-0.4753600E-02)
 number of electron     159.9999959 magnetization       0.0000000
 augmentation part       58.9843117 magnetization       0.0000000

 Broyden mixing:
  rms(total) = 0.35445E-01    rms(broyden)= 0.35412E-01
  rms(prec ) = 0.39046E-01
  weight for this iteration     100.00

 eigenvalues of (default mixing * dielectric matrix)
  average eigenvalue GAMMA=   1.1047
  1.9215  1.9215  0.3088  0.9319  0.8852  0.6593

 Free energy of the ion-electron system (eV)
  ---------------------------------------------------
  alpha Z        PSCENC =       852.18652779
  Ewald energy   TEWEN  =    -11664.14450670
  -Hartree energ DENC   =     -8573.73974478
  -exchange      EXHF   =         0.00000000
  -V(xc)+E(xc)   XCENC  =       560.05240725
  PAW double counting   =     15763.75212355   -16380.56739933
  entropy T*S    EENTRO =        -0.02050078
  eigenvalues    EBANDS =     -2359.69421580
  atomic energy  EATOM  =     21710.84102437
  Solvation  Ediel_sol  =         0.00000000
  ---------------------------------------------------
  free energy    TOTEN  =       -91.33428441 eV

  energy without entropy =      -91.31378364  energy(sigma->0) =      -91.32403403


--------------------------------------------------------------------------------------------------------




--------------------------------------- Iteration      1(  12)  ---------------------------------------


    POTLOK:  cpu time      0.0409: real time      0.0412
    SETDIJ:  cpu time      0.2700: real time      0.2708
    EDDIAG:  cpu time      3.6946: real time      3.7084
  RMM-DIIS:  cpu time     16.7637: real time     16.8224
    ORTHCH:  cpu time      0.5638: real time      0.5662
       DOS:  cpu time      0.0020: real time      0.0021
    CHARGE:  cpu time      0.5837: real time      0.5876
    MIXING:  cpu time      0.0013: real time      0.0014
    --------------------------------------------
      LOOP:  cpu time     21.9202: real time     21.9999

 eigenvalue-minimisations  : 43164
 total energy-change (2. order) :-0.4215243E-02  (-0.1114914E-02)
 number of electron     159.9999959 magnetization       0.0000000
 augmentation part       58.9781784 magnetization       0.0000000

 Broyden mixing:
  rms(total) = 0.18269E-01    rms(broyden)= 0.18251E-01
  rms(prec ) = 0.22006E-01
  weight for this iteration     100.00

 eigenvalues of (default mixing * dielectric matrix)
  average eigenvalue GAMMA=   1.0964
  2.4447  0.3088  1.4469  1.0391  1.0391  0.7521  0.6440

 Free energy of the ion-electron system (eV)
  ---------------------------------------------------
  alpha Z        PSCENC =       852.18652779
  Ewald energy   TEWEN  =    -11664.14450670
  -Hartree energ DENC   =     -8574.37952973
  -exchange      EXHF   =         0.00000000
  -V(xc)+E(xc)   XCENC  =       560.05806512
  PAW double counting   =     15765.52425569   -16382.19627559
  entropy T*S    EENTRO =        -0.02087519
  eigenvalues    EBANDS =     -2359.20718542
  atomic energy  EATOM  =     21710.84102437
  Solvation  Ediel_sol  =         0.00000000
  ---------------------------------------------------
  free energy    TOTEN  =       -91.33849966 eV

  energy without entropy =      -91.31762447  energy(sigma->0) =      -91.32806207


--------------------------------------------------------------------------------------------------------




--------------------------------------- Iteration      1(  13)  ---------------------------------------


    POTLOK:  cpu time      0.0385: real time      0.0388
    SETDIJ:  cpu time      0.2683: real time      0.2697
    EDDIAG:  cpu time      3.4363: real time      3.4492
  RMM-DIIS:  cpu time     11.9419: real time     11.9845
    ORTHCH:  cpu time      0.5515: real time      0.5536
       DOS:  cpu time      0.0021: real time      0.0021
    CHARGE:  cpu time      0.6247: real time      0.6273
    MIXING:  cpu time      0.0014: real time      0.0014
    --------------------------------------------
      LOOP:  cpu time     16.8646: real time     16.9265

 eigenvalue-minimisations  : 31022
 total energy-change (2. order) : 0.1148763E-04  (-0.2329704E-03)
 number of electron     159.9999959 magnetization       0.0000000
 augmentation part       58.9726383 magnetization       0.0000000

 Broyden mixing:
  rms(total) = 0.10322E-01    rms(broyden)= 0.10312E-01
  rms(prec ) = 0.12324E-01
  weight for this iteration     100.00

 eigenvalues of (default mixing * dielectric matrix)
  average eigenvalue GAMMA=   1.1264
  2.6185  0.3088  1.4374  1.2179  1.2179  0.8270  0.7445  0.6396

 Free energy of the ion-electron system (eV)
  ---------------------------------------------------
  alpha Z        PSCENC =       852.18652779
  Ewald energy   TEWEN  =    -11664.14450670
  -Hartree energ DENC   =     -8574.76589380
  -exchange      EXHF   =         0.00000000
  -V(xc)+E(xc)   XCENC  =       560.08007408
  PAW double counting   =     15766.29425032   -16382.84807442
  entropy T*S    EENTRO =        -0.02077431
  eigenvalues    EBANDS =     -2358.96111550
  atomic energy  EATOM  =     21710.84102437
  Solvation  Ediel_sol  =         0.00000000
  ---------------------------------------------------
  free energy    TOTEN  =       -91.33848817 eV

  energy without entropy =      -91.31771386  energy(sigma->0) =      -91.32810101


--------------------------------------------------------------------------------------------------------




--------------------------------------- Iteration      1(  14)  ---------------------------------------


    POTLOK:  cpu time      0.0503: real time      0.0838
    SETDIJ:  cpu time      0.2715: real time      0.2722
    EDDIAG:  cpu time      3.5972: real time      3.6107
  RMM-DIIS:  cpu time      9.0381: real time      9.0707
    ORTHCH:  cpu time      0.5670: real time      0.5696
       DOS:  cpu time      0.0021: real time      0.0021
    --------------------------------------------
      LOOP:  cpu time     13.5262: real time     13.6091

 eigenvalue-minimisations  : 22168
 total energy-change (2. order) :-0.1104861E-04  (-0.7253520E-04)
 number of electron     159.9999959 magnetization       0.0000000
 augmentation part       58.9726383 magnetization       0.0000000

 Free energy of the ion-electron system (eV)
  ---------------------------------------------------
  alpha Z        PSCENC =       852.18652779
  Ewald energy   TEWEN  =    -11664.14450670
  -Hartree energ DENC   =     -8574.93068585
  -exchange      EXHF   =         0.00000000
  -V(xc)+E(xc)   XCENC  =       560.09364887
  PAW double counting   =     15767.67110754   -16384.14659274
  entropy T*S    EENTRO =        -0.02068623
  eigenvalues    EBANDS =     -2358.88833627
  atomic energy  EATOM  =     21710.84102437
  Solvation  Ediel_sol  =         0.00000000
  ---------------------------------------------------
  free energy    TOTEN  =       -91.33849922 eV

  energy without entropy =      -91.31781299  energy(sigma->0) =      -91.32815611


--------------------------------------------------------------------------------------------------------




 average (electrostatic) potential at core
  the test charge radii are     0.9500  1.0808
  (the norm of the test charge is              1.0000)
       1 -46.9136       2 -46.9136       3 -46.9136       4 -46.9136       5 -46.9136
       6 -46.9136       7 -46.9136       8 -46.9136       9 -54.6188      10 -54.6188
      11 -54.6188      12 -54.6188      13 -54.6188      14 -54.6188      15 -54.6188
      16 -54.6188
 
 
 
 E-fermi :   4.2283     XC(G=0): -10.6899     alpha+bet : -9.7642

 Fermi energy:         4.2283361149

 spin component 1

 k-point     1 :       0.0000    0.0000    0.0000
  band No.  band energies     occupation 
      1     -50.4971      1.00000
      2     -50.4844      1.00000
      3     -50.4844      1.00000
      4     -50.4745      1.00000
      5     -50.3939      1.00000
      6     -50.3371      1.00000
      7     -50.3267      1.00000
      8     -50.3267      1.00000
      9     -50.3142      1.00000
     10     -50.2188      1.00000
     11     -50.2188      1.00000
     12     -50.0408      1.00000
     13     -47.7530      1.00000
     14     -47.7499      1.00000
     15     -47.7499      1.00000
     16     -47.7484      1.00000
     17     -47.7303      1.00000
     18     -47.5370      1.00000
     19     -47.5370      1.00000
     20     -47.4120      1.00000
     21     -47.4114      1.00000
     22     -47.4114      1.00000
     23     -47.4077      1.00000
     24     -47.3401      1.00000
     25     -10.3651      1.00000
     26      -9.0479      1.00000
     27      -9.0479      1.00000
     28      -9.0331      1.00000
     29      -9.0331      1.00000
     30      -8.7775      1.00000
     31      -8.4859      1.00000
     32      -8.2889      1.00000
     33      -2.0765      1.00000
     34      -1.7965      1.00000
     35      -0.9014      1.00000
     36      -0.9014      1.00000
     37      -0.8285      1.00000
     38      -0.8285      1.00000
     39      -0.5165      1.00000
     40      -0.2883      1.00000
     41      -0.0423      1.00000
     42       0.0899      1.00000
     43       0.1671      1.00000
     44       0.1671      1.00000
     45       0.2034      1.00000
     46       0.2295      1.00000
     47       0.2295      1.00000
     48       0.4718      1.00000
     49       0.7112      1.00000
     50       0.8058      1.00000
     51       0.8058      1.00000
     52       1.2365      1.00000
     53       1.2365      1.00000
     54       1.4039      1.00000
     55       1.5724      1.00000
     56       1.5846      1.00000
     57       1.8203      1.00000
     58       1.8203      1.00000
     59       1.8875      1.00000
     60       1.8875      1.00000
     61       1.8985      1.00000
     62       2.0442      1.00000
     63       2.1271      1.00000
     64       2.1553      1.00000
     65       2.3817      1.00000
     66       2.3817      1.00000
     67       2.4613      1.00000
     68       2.6246      1.00000
     69       2.6717      1.00000
     70       2.7875      1.00000
     71       2.8313      1.00000
     72       2.8313      1.00000
     73       3.4830      1.00000
     74       3.4830      1.00000
     75       3.5652      1.00000
     76       3.5652      1.00000
     77       3.6408      1.00000
     78       3.8792      1.00000
     79       3.9725      1.00000
     80       4.0033      1.00000
     81       4.3418      0.00067
     82       4.6846      0.00000
     83       4.6847      0.00000
     84       4.7057      0.00000
     85       4.7057      0.00000
     86       4.7657      0.00000
     87       4.9025      0.00000
     88       5.0221      0.00000
     89       5.0224      0.00000
     90       5.0756      0.00000
     91       5.0757      0.00000
     92       5.2823      0.00000
[...]
         0         1         2         3         4         5         6         7         8         9
 total charge-density along one line
 
 soft charge-density along one line, spin component           2
         0         1         2         3         4         5         6         7         8         9
 total charge-density along one line
 
 pseudopotential strength for first ion, spin component:           1
-54.821   0.034  -0.000  28.082  -0.028   0.000  -0.000  -0.000
  0.034 -54.894   0.000  -0.028  28.136  -0.000   0.000  -0.000
 -0.000   0.000 -54.726   0.000  -0.000  28.006  -0.000   0.000
 28.082  -0.028   0.000  -9.935   0.021  -0.000   0.000   0.000
 -0.028  28.136  -0.000   0.021  -9.972   0.000  -0.000   0.000
  0.000  -0.000  28.006  -0.000   0.000  -9.885   0.000  -0.000
 -0.000   0.000  -0.000   0.000  -0.000   0.000  -8.605   0.000
 -0.000  -0.000   0.000   0.000   0.000  -0.000   0.000  -8.416
  0.000  -0.000   0.000  -0.000   0.000  -0.000   0.000  -0.038
  0.000  -0.000  -0.000  -0.000   0.000   0.000  -0.039  -0.000
  0.000  -0.000  -0.000  -0.000   0.000   0.000  -0.000  -0.100
  0.000  -0.000   0.000  -0.000   0.000  -0.000  -0.135  -0.000
  0.000   0.000  -0.000  -0.000  -0.000   0.000  -0.000  -0.180
 -0.000   0.000  -0.000   0.000  -0.000   0.000  -0.000   0.009
 -0.000   0.000   0.000   0.000  -0.000  -0.000   0.009   0.000
 -0.000   0.000   0.000   0.000  -0.000  -0.000   0.000   0.024
  0.000   0.000   0.000  -0.000  -0.000  -0.000   0.000  -0.009
 -0.000  -0.000  -0.000   0.000   0.000   0.000  -0.000   0.001
 pseudopotential strength for first ion, spin component:           2
-52.710   0.101  -0.000  26.468  -0.073   0.000  -0.000  -0.000
  0.101 -52.737   0.000  -0.073  26.487  -0.000   0.000  -0.000
 -0.000   0.000 -52.688   0.000  -0.000  26.443  -0.000   0.000
 26.468  -0.073   0.000  -8.794   0.054  -0.000   0.000   0.000
 -0.073  26.487  -0.000   0.054  -8.807   0.000  -0.000   0.000
  0.000  -0.000  26.443  -0.000   0.000  -8.780   0.000  -0.000
 -0.000   0.000  -0.000   0.000  -0.000   0.000  -6.508   0.000
 -0.000  -0.000   0.000   0.000   0.000  -0.000   0.000  -6.874
  0.000  -0.000   0.000  -0.000   0.000  -0.000   0.000   0.106
  0.000  -0.000  -0.000  -0.000   0.000   0.000   0.114  -0.000
  0.000   0.000  -0.000  -0.000  -0.000   0.000  -0.000   0.024
  0.000  -0.000   0.000  -0.000   0.000  -0.000  -0.625  -0.000
  0.000   0.000  -0.000  -0.000  -0.000   0.000  -0.000  -0.540
 -0.000   0.000  -0.000   0.000  -0.000   0.000  -0.000  -0.023
 -0.000   0.000   0.000   0.000  -0.000  -0.000  -0.025   0.000
 -0.000  -0.000   0.000   0.000   0.000  -0.000   0.000  -0.007
  0.000   0.000   0.000  -0.000  -0.000  -0.000   0.000  -0.012
 -0.000  -0.000  -0.000   0.000   0.000   0.000  -0.000   0.003
 total augmentation occupancy for first ion, spin component:           1
  2.010  -0.019   0.000   0.057  -0.045   0.000   0.000  -0.000  -0.000  -0.000   0.000   0.000   0.000   0.000  -0.000   0.000
 -0.019   2.014   0.000  -0.045   0.066   0.000   0.000  -0.000  -0.000   0.000  -0.000   0.000   0.000   0.000  -0.000   0.000
  0.000  -0.000   2.010  -0.000   0.000   0.053  -0.000   0.000   0.000  -0.000  -0.000   0.000   0.000   0.000  -0.000   0.000
  0.057  -0.045  -0.000   0.196  -0.108  -0.000  -0.000  -0.000   0.000  -0.000  -0.000   0.000  -0.000   0.000   0.000   0.000
 -0.045   0.066   0.000  -0.108   0.218   0.000  -0.000   0.000   0.000  -0.000  -0.000  -0.000  -0.000   0.000   0.000  -0.000
  0.000   0.000   0.053  -0.000   0.000   0.178   0.000  -0.000   0.000   0.000  -0.000   0.000  -0.000   0.000  -0.000  -0.000
  0.000   0.000   0.000  -0.000  -0.000   0.000   1.252   0.000   0.000  -0.100   0.000  -0.066   0.000   0.000  -0.057  -0.000
 -0.000  -0.000   0.000   0.000  -0.000  -0.000   0.000   1.464  -0.020  -0.000  -0.096  -0.000   0.092  -0.146  -0.000   0.094
  0.000  -0.000   0.000   0.000   0.000   0.000  -0.000  -0.020   1.300   0.000  -0.146   0.000  -0.148   0.071  -0.000  -0.082
 -0.000   0.000  -0.000  -0.000  -0.000   0.000  -0.100  -0.000   0.000   1.253  -0.000  -0.058   0.000  -0.000  -0.040   0.000
  0.000  -0.000  -0.000   0.000   0.000  -0.000   0.000  -0.096  -0.146  -0.000   1.508   0.000   0.098  -0.080   0.000   0.160
  0.000   0.000   0.000   0.000  -0.000  -0.000  -0.066  -0.000  -0.000  -0.058   0.000   0.167   0.000   0.000  -0.026  -0.000
  0.000  -0.000   0.000   0.000  -0.000  -0.000  -0.000   0.092  -0.148  -0.000   0.098   0.000   0.248  -0.072   0.000   0.090
 -0.000   0.000   0.000  -0.000   0.000   0.000  -0.000  -0.146   0.071  -0.000  -0.080   0.000  -0.072   0.171  -0.000  -0.014
 -0.000  -0.000   0.000   0.000   0.000   0.000  -0.057   0.000   0.000  -0.040   0.000  -0.026  -0.000   0.000   0.161   0.000
 -0.000   0.000   0.000   0.000  -0.000  -0.000  -0.000   0.094  -0.082   0.000   0.160   0.000   0.090  -0.014   0.000   0.140
  0.000   0.000   0.000   0.000  -0.000   0.000   0.000  -0.007  -0.042  -0.000   0.088  -0.000  -0.320   0.030   0.000  -0.008
 -0.000  -0.000   0.000   0.000  -0.000   0.000  -0.000   0.005   0.025   0.000  -0.017   0.000   0.021  -0.006   0.000   0.003
 total augmentation occupancy for first ion, spin component:           2
 -0.006   0.000   0.000  -0.002  -0.000  -0.000  -0.000  -0.000  -0.000   0.000   0.000   0.000  -0.000   0.000   0.000   0.000
  0.000  -0.008   0.000  -0.000  -0.007  -0.000   0.000   0.000   0.000   0.000   0.000   0.000   0.000  -0.000   0.000   0.000
  0.000   0.000  -0.007  -0.000   0.000  -0.005  -0.000  -0.000   0.000  -0.000  -0.000  -0.000   0.000   0.000   0.000   0.000
 -0.002  -0.000   0.000   0.014  -0.002   0.000   0.000   0.000  -0.000   0.000   0.000   0.000   0.000  -0.000   0.000   0.000
 -0.000  -0.007   0.000  -0.002   0.002  -0.000  -0.000   0.000   0.000   0.000   0.000   0.000  -0.000   0.000   0.000  -0.000
  0.000  -0.000  -0.005   0.000  -0.000   0.011   0.000   0.000   0.000   0.000  -0.000   0.000  -0.000  -0.000   0.000   0.000
 -0.000   0.000   0.000   0.000  -0.000   0.000   0.699  -0.000   0.000   0.119   0.000  -0.270  -0.000  -0.000   0.005   0.000
 -0.000   0.000  -0.000  -0.000  -0.000   0.000   0.000   0.378   0.115  -0.000   0.048   0.000  -0.195  -0.009  -0.000  -0.031
  0.000   0.000   0.000   0.000   0.000   0.000  -0.000   0.115   0.537  -0.000   0.186   0.000  -0.008  -0.214   0.000  -0.025
  0.000   0.000   0.000   0.000   0.000   0.000   0.119   0.000  -0.000   0.672   0.000   0.007   0.000   0.000  -0.265  -0.000
  0.000   0.000  -0.000  -0.000  -0.000  -0.000  -0.000   0.048   0.186   0.000   0.245   0.000  -0.017  -0.019   0.000  -0.151
  0.000   0.000   0.000   0.000   0.000   0.000  -0.270   0.000   0.000   0.007   0.000   0.054   0.000  -0.000   0.006  -0.000
  0.000   0.000   0.000  -0.000   0.000  -0.000   0.000  -0.195  -0.008  -0.000  -0.017   0.000   0.008   0.025  -0.000  -0.002
  0.000   0.000   0.000  -0.000   0.000  -0.000  -0.000  -0.009  -0.214   0.000  -0.019  -0.000   0.025   0.010  -0.000   0.008
  0.000   0.000  -0.000   0.000   0.000   0.000   0.005   0.000  -0.000  -0.265   0.000   0.006  -0.000  -0.000   0.038  -0.000
  0.000  -0.000   0.000   0.000   0.000   0.000   0.000  -0.031  -0.025   0.000  -0.151   0.000  -0.002   0.008  -0.000  -0.015
  0.000  -0.000   0.000   0.000  -0.000   0.000   0.000   0.120   0.027   0.000  -0.047   0.000  -0.033   0.004  -0.000  -0.024
 -0.000   0.000   0.000  -0.000   0.000   0.000   0.000   0.017   0.019  -0.000  -0.017  -0.000  -0.003  -0.003  -0.000   0.000


------------------------ aborting loop because EDIFF is reached ----------------------------------------





 total charge

# of ion       s       p       d       tot
------------------------------------------
    1        0.344   6.299   6.084  12.727
    2        0.344   6.299   6.084  12.727
    3        0.344   6.299   6.084  12.727
    4        0.344   6.299   6.084  12.727
    5        0.344   6.299   6.084  12.727
    6        0.344   6.299   6.084  12.727
    7        0.344   6.299   6.084  12.727
    8        0.344   6.299   6.084  12.727
    9        1.492   2.257   0.058   3.807
   10        1.492   2.257   0.058   3.807
   11        1.492   2.257   0.058   3.807
   12        1.492   2.257   0.058   3.807
   13        1.492   2.257   0.058   3.807
   14        1.492   2.257   0.058   3.807
   15        1.492   2.257   0.058   3.807
   16        1.492   2.257   0.058   3.807
--------------------------------------------------
tot         14.692  68.449  49.138 132.279



 magnetization (x)

# of ion       s       p       d       tot
------------------------------------------
    1        0.027   0.014   2.467   2.508
    2       -0.027  -0.014  -2.467  -2.508
    3       -0.027  -0.014  -2.467  -2.508
    4        0.027   0.014   2.467   2.508
    5        0.027   0.014   2.467   2.508
    6       -0.027  -0.014  -2.467  -2.508
    7       -0.027  -0.014  -2.467  -2.508
    8        0.027   0.014   2.467   2.508
    9        0.000   0.000   0.000   0.000
   10        0.000   0.000   0.000   0.000
   11        0.000   0.000   0.000   0.000
   12        0.000   0.000   0.000   0.000
   13        0.000   0.000   0.000   0.000
   14        0.000   0.000   0.000   0.000
   15        0.000   0.000   0.000   0.000
   16        0.000   0.000   0.000   0.000
--------------------------------------------------
tot          0.000   0.000   0.000   0.000
 
    CHARGE:  cpu time      0.5992: real time      0.6029
    FORLOC:  cpu time      0.0023: real time      0.0023
    FORNL :  cpu time      5.3031: real time      5.3212
    STRESS:  cpu time     15.8935: real time     15.9482
    FORCOR:  cpu time      0.0396: real time      0.0397
    FORHAR:  cpu time      0.0053: real time      0.0053
    MIXING:  cpu time      0.0009: real time      0.0010
    OFIELD:  cpu time      0.0000: real time      0.0000
    FORVDW:  cpu time      0.7973: real time      0.7996

  FORCE on cell =-STRESS in cart. coord.  units (eV):
  Direction    XX          YY          ZZ          XY          YZ          ZX
  --------------------------------------------------------------------------------------
  Alpha Z   852.18653   852.18653   852.18653
  Ewald   -1332.32334 -2100.80302 -8234.37745    -0.00000     0.00000    -0.00000
  Hartree  5197.90910  4496.13800 -1120.77892    -0.00000     0.00000    -0.00000
  E(xc)    -897.22882  -899.48527  -898.56698     0.00000     0.00000    -0.00000
  Local   -5770.34734 -4309.30327  7470.76295     0.00000    -0.00000    -0.00000
  n-local  -276.79206  -249.23929  -241.50281    -0.76082    -0.34909    -0.79721
  augment   529.95011   515.96088   512.41269     0.00000     0.00000     0.00000
  Kinetic  1704.01538  1702.09379  1667.16688     3.78497    -0.25270     0.47126
  Fock        0.00000     0.00000     0.00000     0.00000     0.00000     0.00000
  vdW        -6.50303    -6.55381    -6.81811    -0.00000    -0.00000    -0.00000
  -------------------------------------------------------------------------------------
  Total       0.86652     0.99454     0.48477     0.00000    -0.00000     0.00000
  in kB       4.65879     5.34706     2.60635     0.00000    -0.00000     0.00000
  external pressure =        4.20 kB  Pullay stress =        0.00 kB


 VOLUME and BASIS-vectors are now :
 -----------------------------------------------------------------------------
  energy-cutoff  :      550.00
  volume of cell :      298.00
      direct lattice vectors                 reciprocal lattice vectors
     4.796279513 -5.616872682  0.000000000     0.104247469 -0.089017506 -0.000000000
     4.796279513  5.616872682  0.000000000     0.104247469  0.089017506  0.000000000
     0.000000000 -0.000000000  5.530790447     0.000000000  0.000000000  0.180805982

  length of vectors
     7.386037902  7.386037902  5.530790447     0.137082644  0.137082644  0.180805982


 FORCES acting on ions
    electron-ion (+dipol)            ewald-force                    non-local-force                 convergence-correction
 -----------------------------------------------------------------------------------------------
   -.196E-12 0.431E-13 0.885E-14   0.853E-13 0.139E-12 -.711E-14   -.129E-21 -.221E-22 -.664E-22   0.496E-12 -.116E-11 0.560E-12
   0.940E-12 0.143E-11 0.317E-13   0.820E-13 0.139E-12 0.799E-14   -.335E-22 -.717E-22 -.463E-22   0.866E-13 -.171E-11 0.102E-11
   0.101E-11 0.688E-12 0.349E-10   0.946E-13 0.142E-12 0.000E+00   0.891E-22 -.206E-21 0.106E-21   -.665E-12 0.171E-11 -.263E-11
   0.698E-11 0.959E-11 0.154E-10   0.853E-13 0.131E-12 0.000E+00   -.577E-23 0.220E-21 0.613E-22   -.143E-11 0.108E-11 -.225E-12
   0.497E-11 0.414E-11 0.719E-11   -.260E-13 -.853E-13 -.488E-13   0.554E-22 -.120E-21 0.981E-22   0.305E-12 0.107E-12 -.163E-12
   -.351E-12 -.335E-11 0.776E-11   0.000E+00 -.924E-13 -.355E-13   -.321E-22 0.193E-21 0.770E-22   -.205E-12 0.400E-12 -.840E-12
   -.208E-10 -.254E-10 -.455E-10   0.000E+00 -.782E-13 -.249E-13   0.828E-22 0.108E-21 -.127E-21   -.609E-14 -.888E-13 -.446E-12
   0.129E-11 0.451E-11 -.439E-10   -.681E-14 -.853E-13 -.284E-13   0.651E-22 0.989E-24 -.274E-22   -.303E-12 0.188E-12 -.502E-12
   0.645E-07 0.904E-12 0.311E+03   0.669E-14 -.249E-13 -.312E+03   0.703E-19 0.254E-17 0.106E+01   -.239E-14 -.278E-12 -.319E-01
   0.645E-07 -.183E-11 0.311E+03   0.000E+00 -.209E-13 -.312E+03   0.519E-18 -.625E-17 0.106E+01   0.374E-12 0.794E-13 -.319E-01
   0.645E-07 0.413E-11 0.311E+03   0.000E+00 -.253E-13 -.312E+03   -.392E-19 0.263E-17 0.106E+01   -.148E-12 0.103E-12 -.319E-01
   0.645E-07 -.956E-12 0.311E+03   0.215E-13 -.178E-13 -.312E+03   0.169E-18 -.671E-18 0.106E+01   -.208E-12 0.124E-12 -.319E-01
   -.645E-07 0.210E-12 -.311E+03   -.923E-13 -.243E-13 0.312E+03   -.618E-17 0.322E-17 -.106E+01   0.158E-13 0.243E-12 0.319E-01
   -.645E-07 0.457E-12 -.311E+03   -.847E-13 -.282E-13 0.312E+03   -.426E-17 0.504E-17 -.106E+01   -.368E-12 0.907E-13 0.319E-01
   -.645E-07 0.616E-12 -.311E+03   -.859E-13 -.428E-13 0.312E+03   0.381E-18 0.317E-17 -.106E+01   0.222E-12 -.745E-13 0.319E-01
   -.645E-07 0.108E-11 -.311E+03   -.781E-13 -.324E-13 0.312E+03   0.727E-18 -.374E-17 -.106E+01   0.198E-12 -.256E-12 0.319E-01
 -----------------------------------------------------------------------------------------------
   -.123E-10 -.375E-11 -.166E-10   0.134E-14 -.693E-14 0.568E-13   -.862E-17 0.594E-17 -.666E-15   -.164E-11 0.556E-12 -.268E-11
 
 
 POSITION                                       TOTAL-FORCE (eV/Angst)
 -----------------------------------------------------------------------------------
      0.00000      0.00000     -0.00000         0.000000     -0.000000     -0.000000
      2.39814      2.80844     -0.00000         0.000000     -0.000000     -0.000000
      2.39814     -2.80844     -0.00000         0.000000     -0.000000     -0.000000
      4.79628      0.00000     -0.00000         0.000000     -0.000000     -0.000000
      2.39814      0.00000     -0.00000         0.000000     -0.000000     -0.000000
      4.79628      2.80844     -0.00000         0.000000     -0.000000     -0.000000
      4.79628     -2.80844     -0.00000         0.000000     -0.000000     -0.000000
      7.19442      0.00000     -0.00000         0.000000     -0.000000     -0.000000
      2.39814     -1.40422      3.71896        -0.000000      0.000000     -0.009301
      4.79628      1.40422      3.71896         0.000000      0.000000     -0.009301
      4.79628     -4.21265      3.71896        -0.000000      0.000000     -0.009301
      7.19442     -1.40422      3.71896         0.000000      0.000000     -0.009301
      2.39814      1.40422      1.81183         0.000000     -0.000000      0.009301
      4.79628      4.21265      1.81183        -0.000000     -0.000000      0.009301
      4.79628     -1.40422      1.81183         0.000000     -0.000000      0.009301
      7.19442      1.40422      1.81183         0.000000     -0.000000      0.009301
 -----------------------------------------------------------------------------------
    total drift:                               -0.000000     -0.000000     -0.000000


--------------------------------------------------------------------------------------------------------



  FREE ENERGIE OF THE ION-ELECTRON SYSTEM (eV)
  ---------------------------------------------------
  free  energy   TOTEN  =       -98.41001725 eV

  energy  without entropy=      -98.38952983  energy(sigma->0) =      -98.39977354
 
 d Force =-0.9315644E-05[-0.112E-04,-0.748E-05]  d Energy = 0.2034834E-04-0.297E-04
 d Force =-0.3735273E+00[-0.374E+00,-0.374E+00]  d Ewald  = 0.5258055E+00-0.899E+00


--------------------------------------------------------------------------------------------------------


    POTLOK:  cpu time      0.3115: real time      0.3124


--------------------------------------------------------------------------------------------------------




--------------------------------------------------------------------------------------------------------


  
 reached required accuracy - stopping structural energy minimisation
     LOOP+:  cpu time     61.8303: real time     62.8953
    4ORBIT:  cpu time      0.0000: real time      0.0000



 total charge

# of ion       s       p       d       tot
------------------------------------------
    1        0.344   6.299   6.084  12.727
    2        0.344   6.299   6.084  12.727
    3        0.344   6.299   6.084  12.727
    4        0.344   6.299   6.084  12.727
    5        0.344   6.299   6.084  12.727
    6        0.344   6.299   6.084  12.727
    7        0.344   6.299   6.084  12.727
    8        0.344   6.299   6.084  12.727
    9        1.492   2.257   0.058   3.807
   10        1.492   2.257   0.058   3.807
   11        1.492   2.257   0.058   3.807
   12        1.492   2.257   0.058   3.807
   13        1.492   2.257   0.058   3.807
   14        1.492   2.257   0.058   3.807
   15        1.492   2.257   0.058   3.807
   16        1.492   2.257   0.058   3.807
--------------------------------------------------
tot         14.692  68.449  49.138 132.279



 magnetization (x)

# of ion       s       p       d       tot
------------------------------------------
    1        0.027   0.014   2.467   2.508
    2       -0.027  -0.014  -2.467  -2.508
    3       -0.027  -0.014  -2.467  -2.508
    4        0.027   0.014   2.467   2.508
    5        0.027   0.014   2.467   2.508
    6       -0.027  -0.014  -2.467  -2.508
    7       -0.027  -0.014  -2.467  -2.508
    8        0.027   0.014   2.467   2.508
    9        0.000   0.000   0.000   0.000
   10        0.000   0.000   0.000   0.000
   11        0.000   0.000   0.000   0.000
   12        0.000   0.000   0.000   0.000
   13        0.000   0.000   0.000   0.000
   14        0.000   0.000   0.000   0.000
   15        0.000   0.000   0.000   0.000
   16        0.000   0.000   0.000   0.000
--------------------------------------------------
tot          0.000   0.000   0.000   0.000
 

 total amount of memory used by VASP MPI-rank0   175028. kBytes
=======================================================================

   base      :      30000. kBytes
   nonlr-proj:      11122. kBytes
   fftplans  :       2458. kBytes
   grid      :      15239. kBytes
   one-center:        497. kBytes
   wavefun   :     115712. kBytes
 
  
  
 General timing and accounting informations for this job:
 ========================================================
  
                  Total CPU time used (sec):      532.295
                            User time (sec):      530.524
                          System time (sec):        1.772
                         Elapsed time (sec):      536.709
  
                   Maximum memory used (kb):      446860.
                   Average memory used (kb):          N/A
  
                          Minor page faults:       180091
                          Major page faults:            0
                 Voluntary context switches:        37551
