 running   20 mpi-ranks, on    5 nodes
 distrk:  each k-point on   20 cores,    1 groups
 distr:  one band on    1 cores,   20 groups
 vasp.6.4.1 05Apr23 (build Jun 01 2023 13:46:15) complex                        
  
 POSCAR found type information on POSCAR FeSe
 POSCAR found :  2 types and      16 ions
 Reading from existing POTCAR
 scaLAPACK will be used
 -----------------------------------------------------------------------------
|                                                                             |
|           W    W    AA    RRRRR   N    N  II  N    N   GGGG   !!!           |
|           W    W   A  A   R    R  NN   N  II  NN   N  G    G  !!!           |
|           W    W  A    A  R    R  N N  N  II  N N  N  G       !!!           |
|           W WW W  AAAAAA  RRRRR   N  N N  II  N  N N  G  GGG   !            |
|           WW  WW  A    A  R   R   N   NN  II  N   NN  G    G                |
|           W    W  A    A  R    R  N    N  II  N    N   GGGG   !!!           |
|                                                                             |
|     For optimal performance we recommend to set                             |
|       NCORE = 2 up to number-of-cores-per-socket                            |
|     NCORE specifies how many cores store one orbital (NPAR=cpu/NCORE).      |
|     This setting can greatly improve the performance of VASP for DFT.       |
|     The default, NCORE=1 might be grossly inefficient on modern             |
|     multi-core architectures or massively parallel machines. Do your        |
|     own testing! More info at https://www.vasp.at/wiki/index.php/NCORE      |
|     Unfortunately you need to use the default for GW and RPA                |
|     calculations (for HF NCORE is supported but not extensively tested      |
|     yet).                                                                   |
|                                                                             |
 -----------------------------------------------------------------------------

 Reading from existing POTCAR
 LDA part: xc-table for Pade appr. of Perdew
 POSCAR, INCAR and KPOINTS ok, starting setup
 FFT: planning ... GRIDC
 FFT: planning ... GRID_SOFT
 FFT: planning ... GRID
 WAVECAR not read
 WARNING: random wavefunctions but no delay for mixing, default for NELMDL
 entering main loop
       N       E                     dE             d eps       ncg     rms          rms(c)
DAV:   1     0.203885737669E+04    0.20389E+04   -0.88946E+04 34680   0.198E+03
DAV:   2     0.122511142286E+03   -0.19163E+04   -0.18608E+04 32000   0.581E+02
DAV:   3    -0.843444198495E+02   -0.20686E+03   -0.18424E+03 45360   0.190E+02
DAV:   4    -0.986384291823E+02   -0.14294E+02   -0.13942E+02 46860   0.515E+01
DAV:   5    -0.989726686779E+02   -0.33424E+00   -0.33343E+00 44860   0.829E+00    0.269E+01
RMM:   6    -0.111580394033E+03   -0.12608E+02   -0.16016E+02 32046   0.825E+01    0.489E+01
RMM:   7    -0.907290702564E+02    0.20851E+02   -0.40335E+01 32008   0.491E+01    0.969E+00
RMM:   8    -0.912385077410E+02   -0.50944E+00   -0.29658E+00 41130   0.501E+00    0.430E+00
RMM:   9    -0.912997648205E+02   -0.61257E-01   -0.78632E-01 45454   0.266E+00    0.232E+00
RMM:  10    -0.913036914190E+02   -0.39266E-02   -0.21906E-01 45665   0.146E+00    0.985E-01
RMM:  11    -0.913116168803E+02   -0.79255E-02   -0.43349E-02 43547   0.785E-01    0.360E-01
RMM:  12    -0.913154120321E+02   -0.37952E-02   -0.99514E-03 42460   0.311E-01    0.195E-01
RMM:  13    -0.913153137418E+02    0.98290E-04   -0.20884E-03 30293   0.168E-01    0.104E-01
RMM:  14    -0.913153544177E+02   -0.40676E-04   -0.71480E-04 22289   0.112E-01
   1 F= -.98386342E+02 E0= -.98376682E+02  d E =-.983863E+02  mag=     0.0000
 curvature:   0.00 expect dE= 0.000E+00 dE for cont linesearch  0.000E+00
 trial: gam= 0.00000 g(F)=  0.237E-01 g(S)=  0.461E-02 ort = 0.000E+00 (trialstep = 0.100E+01)
 search vector abs. value=  0.283E-01
 bond charge predicted
       N       E                     dE             d eps       ncg     rms          rms(c)
DAV:   1    -0.913517739450E+02   -0.36460E-01   -0.15937E+00 38140   0.437E+00    0.129E+00
RMM:   2    -0.913409273780E+02    0.10847E-01   -0.11850E-01 37435   0.182E+00    0.101E+00
RMM:   3    -0.913348329307E+02    0.60944E-02   -0.49380E-02 33632   0.136E+00    0.627E-01
RMM:   4    -0.913310729596E+02    0.37600E-02   -0.14601E-02 33790   0.659E-01    0.177E-01
RMM:   5    -0.913315398023E+02   -0.46684E-03   -0.51582E-03 34916   0.249E-01    0.114E-01
RMM:   6    -0.913314717262E+02    0.68076E-04   -0.85061E-04 24685   0.145E-01
   2 F= -.98401695E+02 E0= -.98391235E+02  d E =-.153528E-01  mag=    -0.0000
 trial-energy change:   -0.015353  1 .order   -0.015671   -0.028322   -0.003021
 step:   1.1194(harm=  1.1194)  dis= 0.01339  next Energy=   -98.402193 (dE=-0.159E-01)
 bond charge predicted
       N       E                     dE             d eps       ncg     rms          rms(c)
DAV:   1    -0.913320205306E+02   -0.48073E-03   -0.21450E-02 38180   0.511E-01    0.167E-01
RMM:   2    -0.913318179679E+02    0.20256E-03   -0.16296E-03 29440   0.220E-01    0.126E-01
RMM:   3    -0.913317283258E+02    0.89642E-04   -0.74043E-04 24756   0.173E-01
   3 F= -.98401861E+02 E0= -.98391319E+02  d E =-.155194E-01  mag=    -0.0000
 curvature:  -0.56 expect dE=-0.134E-02 dE for cont linesearch -0.967E-04
 trial: gam= 0.00672 g(F)=  0.713E-03 g(S)=  0.169E-02 ort = 0.221E-02 (trialstep = 0.102E+01)
 search vector abs. value=  0.243E-02
 bond charge predicted
       N       E                     dE             d eps       ncg     rms          rms(c)
DAV:   1    -0.913450593324E+02   -0.13241E-01   -0.28118E-01 36380   0.214E+00    0.744E-01
RMM:   2    -0.913364551943E+02    0.86041E-02   -0.13138E-02 34425   0.805E-01    0.375E-01
RMM:   3    -0.913363951242E+02    0.60070E-04   -0.11824E-02 32967   0.622E-01    0.417E-01
RMM:   4    -0.913347719391E+02    0.16232E-02   -0.43667E-03 31424   0.449E-01    0.739E-02
RMM:   5    -0.913348286861E+02   -0.56747E-04   -0.11584E-03 27945   0.123E-01
   4 F= -.98405171E+02 E0= -.98394681E+02  d E =-.330976E-02  mag=     0.0000
 ZBRENT: can't locate minimum, use default step
 trial-energy change:   -0.003310  1 .order   -0.002652   -0.002475   -0.002829
 step:   4.0955(harm=  4.0955)  dis= 0.00882  next Energy=   -98.414595 (dE=-0.127E-01)
 bond charge predicted
       N       E                     dE             d eps       ncg     rms          rms(c)
DAV:   1    -0.914295331384E+02   -0.94761E-01   -0.24682E+00 32680   0.628E+00    0.221E+00
RMM:   2    -0.913528276732E+02    0.76705E-01   -0.11295E-01 34608   0.231E+00    0.110E+00
RMM:   3    -0.913514272231E+02    0.14005E-02   -0.10191E-01 33871   0.178E+00    0.120E+00
RMM:   4    -0.913381184532E+02    0.13309E-01   -0.37135E-02 32905   0.131E+00    0.217E-01
RMM:   5    -0.913386308359E+02   -0.51238E-03   -0.99657E-03 35671   0.354E-01    0.129E-01
RMM:   6    -0.913385069933E+02    0.12384E-03   -0.19122E-03 30965   0.201E-01
   5 F= -.98409486E+02 E0= -.98399300E+02  d E =-.762499E-02  mag=    -0.0000
 curvature:  -3.21 expect dE=-0.102E-02 dE for cont linesearch -0.143E-03
 trial: gam= 0.00122 g(F)=  0.266E-03 g(S)=  0.498E-04 ort = 0.329E-03 (trialstep = 0.164E+01)
 search vector abs. value=  0.317E-03
 bond charge predicted
       N       E                     dE             d eps       ncg     rms          rms(c)
DAV:   1    -0.913393557092E+02   -0.72487E-03   -0.46848E-02 38360   0.704E-01    0.206E-01
RMM:   2    -0.913390838065E+02    0.27190E-03   -0.28311E-03 29257   0.322E-01    0.134E-01
RMM:   3    -0.913390774397E+02    0.63668E-05   -0.14840E-03 27940   0.229E-01
   6 F= -.98410152E+02 E0= -.98399848E+02  d E =-.665714E-03  mag=     0.0000
 ZBRENT: can't locate minimum, use default step
 trial-energy change:   -0.000666  1 .order   -0.000583   -0.000519   -0.000647
 step:   6.5528(harm=  6.5528)  dis= 0.00832  next Energy=   -98.412588 (dE=-0.310E-02)
 bond charge predicted
       N       E                     dE             d eps       ncg     rms          rms(c)
DAV:   1    -0.913408254887E+02   -0.17417E-02   -0.42643E-01 32640   0.209E+00    0.610E-01
RMM:   2    -0.913386383854E+02    0.21871E-02   -0.26010E-02 33889   0.931E-01    0.398E-01
RMM:   3    -0.913385951375E+02    0.43248E-04   -0.12995E-02 33618   0.678E-01    0.295E-01
RMM:   4    -0.913378881962E+02    0.70694E-03   -0.38086E-03 30432   0.337E-01    0.696E-02
RMM:   5    -0.913379936017E+02   -0.10541E-03   -0.13869E-03 27562   0.132E-01
   7 F= -.98409362E+02 E0= -.98398901E+02  d E =0.123708E-03  mag=    -0.0000
 curvature:  -5.12 expect dE=-0.156E-01 dE for cont linesearch -0.502E-02
 ZBRENT: interpolating
 opt :   3.6761  next Energy=   -98.410554 (dE=-0.107E-02)
 bond charge predicted
       N       E                     dE             d eps       ncg     rms          rms(c)
DAV:   1    -0.913401116655E+02   -0.22235E-02   -0.14646E-01 33200   0.123E+00    0.358E-01
RMM:   2    -0.913392436806E+02    0.86798E-03   -0.89297E-03 32368   0.541E-01    0.228E-01
RMM:   3    -0.913392912223E+02   -0.47542E-04   -0.47493E-03 31624   0.403E-01    0.178E-01
RMM:   4    -0.913390303045E+02    0.26092E-03   -0.13434E-03 27193   0.209E-01    0.367E-02
RMM:   5    -0.913390613995E+02   -0.31095E-04   -0.41456E-04 19205   0.788E-02
   8 F= -.98410260E+02 E0= -.98399924E+02  d E =-.773688E-03  mag=    -0.0000
 curvature:  -0.41 expect dE=-0.334E-03 dE for cont linesearch -0.139E-05
 trial: gam= 2.67792 g(F)=  0.874E-04 g(S)=  0.727E-03 ort =-0.327E-04 (trialstep = 0.223E+00)
 search vector abs. value=  0.291E-02
 reached required accuracy - stopping structural energy minimisation
