  16  16   1   0
  0.1862500E+02  0.7089372E-09  0.6775479E-09  0.6674143E-09  0.5000000E-15
  1.000000000000000E-004
  CAR 
 unknown system                          
      9.47830213    -52.32836411  301      3.91923347      1.00000000
    -52.328  0.0000E+00  0.0000E+00  0.0000E+00  0.0000E+00
    -52.122  0.0000E+00  0.0000E+00  0.0000E+00  0.0000E+00
    -51.916  0.0000E+00  0.0000E+00  0.0000E+00  0.0000E+00
    -51.710  0.0000E+00  0.0000E+00  0.0000E+00  0.0000E+00
    -51.504  0.0000E+00  0.0000E+00  0.0000E+00  0.0000E+00
    -51.298  0.0000E+00  0.0000E+00  0.0000E+00  0.0000E+00
    -51.092  0.0000E+00  0.0000E+00  0.0000E+00  0.0000E+00
    -50.886  0.0000E+00  0.0000E+00  0.0000E+00  0.0000E+00
    -50.680  0.0000E+00  0.0000E+00  0.0000E+00  0.0000E+00
    -50.474  0.0000E+00  0.0000E+00  0.0000E+00  0.0000E+00
    -50.268  0.0000E+00  0.0000E+00  0.0000E+00  0.0000E+00
    -50.062  0.0000E+00  0.0000E+00  0.0000E+00  0.0000E+00
    -49.856  0.0000E+00  0.0000E+00  0.0000E+00  0.0000E+00
    -49.650  0.1806E-05  0.1806E-05  0.3722E-06  0.3722E-06
    -49.444  0.1630E+00  0.1630E+00  0.3359E-01  0.3359E-01
    -49.238  0.3596E-01  0.3596E-01  0.4099E-01  0.4099E-01
    -49.032  0.3247E+00  0.3247E+00  0.1079E+00  0.1079E+00
    -48.826  0.5736E+00  0.5736E+00  0.2261E+00  0.2261E+00
    -48.620  0.7939E-01  0.7939E-01  0.2424E+00  0.2424E+00
    -48.414  0.1212E-06  0.1212E-06  0.2424E+00  0.2424E+00
    -48.208  0.0000E+00  0.0000E+00  0.2424E+00  0.2424E+00
    -48.002  0.0000E+00  0.0000E+00  0.2424E+00  0.2424E+00
    -47.796  0.0000E+00  0.0000E+00  0.2424E+00  0.2424E+00
    -47.590  0.0000E+00  0.0000E+00  0.2424E+00  0.2424E+00
    -47.384  0.0000E+00  0.0000E+00  0.2424E+00  0.2424E+00
    -47.178  0.0000E+00  0.0000E+00  0.2424E+00  0.2424E+00
    -46.972  0.0000E+00  0.0000E+00  0.2424E+00  0.2424E+00
    -46.766  0.0000E+00  0.0000E+00  0.2424E+00  0.2424E+00
    -46.560  0.0000E+00  0.0000E+00  0.2424E+00  0.2424E+00
    -46.354  0.0000E+00  0.0000E+00  0.2424E+00  0.2424E+00
    -46.148  0.0000E+00  0.0000E+00  0.2424E+00  0.2424E+00
    -45.942  0.0000E+00  0.0000E+00  0.2424E+00  0.2424E+00
    -45.736  0.0000E+00  0.0000E+00  0.2424E+00  0.2424E+00
    -45.530  0.0000E+00  0.0000E+00  0.2424E+00  0.2424E+00
    -45.324  0.0000E+00  0.0000E+00  0.2424E+00  0.2424E+00
    -45.118  0.0000E+00  0.0000E+00  0.2424E+00  0.2424E+00
    -44.912  0.0000E+00  0.0000E+00  0.2424E+00  0.2424E+00
    -44.706  0.0000E+00  0.0000E+00  0.2424E+00  0.2424E+00
    -44.500  0.0000E+00  0.0000E+00  0.2424E+00  0.2424E+00
    -44.293  0.0000E+00  0.0000E+00  0.2424E+00  0.2424E+00
    -44.087  0.0000E+00  0.0000E+00  0.2424E+00  0.2424E+00
    -43.881  0.0000E+00  0.0000E+00  0.2424E+00  0.2424E+00
    -43.675  0.0000E+00  0.0000E+00  0.2424E+00  0.2424E+00
    -43.469  0.0000E+00  0.0000E+00  0.2424E+00  0.2424E+00
    -43.263  0.0000E+00  0.0000E+00  0.2424E+00  0.2424E+00
    -43.057  0.0000E+00  0.0000E+00  0.2424E+00  0.2424E+00
    -42.851  0.0000E+00  0.0000E+00  0.2424E+00  0.2424E+00
    -42.645  0.0000E+00  0.0000E+00  0.2424E+00  0.2424E+00
    -42.439  0.0000E+00  0.0000E+00  0.2424E+00  0.2424E+00
    -42.233  0.0000E+00  0.0000E+00  0.2424E+00  0.2424E+00
    -42.027  0.0000E+00  0.0000E+00  0.2424E+00  0.2424E+00
    -41.821  0.0000E+00  0.0000E+00  0.2424E+00  0.2424E+00
    -41.615  0.0000E+00  0.0000E+00  0.2424E+00  0.2424E+00
    -41.409  0.0000E+00  0.0000E+00  0.2424E+00  0.2424E+00
    -41.203  0.0000E+00  0.0000E+00  0.2424E+00  0.2424E+00
    -40.997  0.0000E+00  0.0000E+00  0.2424E+00  0.2424E+00
    -40.791  0.0000E+00  0.0000E+00  0.2424E+00  0.2424E+00
    -40.585  0.0000E+00  0.0000E+00  0.2424E+00  0.2424E+00
    -40.379  0.0000E+00  0.0000E+00  0.2424E+00  0.2424E+00
    -40.173  0.0000E+00  0.0000E+00  0.2424E+00  0.2424E+00
    -39.967  0.0000E+00  0.0000E+00  0.2424E+00  0.2424E+00
    -39.761  0.0000E+00  0.0000E+00  0.2424E+00  0.2424E+00
    -39.555  0.0000E+00  0.0000E+00  0.2424E+00  0.2424E+00
    -39.349  0.0000E+00  0.0000E+00  0.2424E+00  0.2424E+00
    -39.143  0.0000E+00  0.0000E+00  0.2424E+00  0.2424E+00
    -38.937  0.0000E+00  0.0000E+00  0.2424E+00  0.2424E+00
    -38.731  0.0000E+00  0.0000E+00  0.2424E+00  0.2424E+00
    -38.525  0.0000E+00  0.0000E+00  0.2424E+00  0.2424E+00
    -38.319  0.0000E+00  0.0000E+00  0.2424E+00  0.2424E+00
    -38.113  0.0000E+00  0.0000E+00  0.2424E+00  0.2424E+00
    -37.907  0.0000E+00  0.0000E+00  0.2424E+00  0.2424E+00
    -37.701  0.0000E+00  0.0000E+00  0.2424E+00  0.2424E+00
    -37.495  0.0000E+00  0.0000E+00  0.2424E+00  0.2424E+00
    -37.289  0.0000E+00  0.0000E+00  0.2424E+00  0.2424E+00
    -37.083  0.0000E+00  0.0000E+00  0.2424E+00  0.2424E+00
    -36.877  0.0000E+00  0.0000E+00  0.2424E+00  0.2424E+00
    -36.671  0.0000E+00  0.0000E+00  0.2424E+00  0.2424E+00
    -36.465  0.0000E+00  0.0000E+00  0.2424E+00  0.2424E+00
    -36.259  0.0000E+00  0.0000E+00  0.2424E+00  0.2424E+00
    -36.053  0.0000E+00  0.0000E+00  0.2424E+00  0.2424E+00
    -35.847  0.0000E+00  0.0000E+00  0.2424E+00  0.2424E+00
    -35.641  0.0000E+00  0.0000E+00  0.2424E+00  0.2424E+00
    -35.435  0.0000E+00  0.0000E+00  0.2424E+00  0.2424E+00
    -35.229  0.0000E+00  0.0000E+00  0.2424E+00  0.2424E+00
    -35.022  0.0000E+00  0.0000E+00  0.2424E+00  0.2424E+00
    -34.816  0.0000E+00  0.0000E+00  0.2424E+00  0.2424E+00
    -34.610  0.0000E+00  0.0000E+00  0.2424E+00  0.2424E+00
    -34.404  0.0000E+00  0.0000E+00  0.2424E+00  0.2424E+00
    -34.198  0.0000E+00  0.0000E+00  0.2424E+00  0.2424E+00
    -33.992  0.0000E+00  0.0000E+00  0.2424E+00  0.2424E+00
    -33.786  0.0000E+00  0.0000E+00  0.2424E+00  0.2424E+00
    -33.580  0.0000E+00  0.0000E+00  0.2424E+00  0.2424E+00
    -33.374  0.0000E+00  0.0000E+00  0.2424E+00  0.2424E+00
    -33.168  0.0000E+00  0.0000E+00  0.2424E+00  0.2424E+00
    -32.962  0.0000E+00  0.0000E+00  0.2424E+00  0.2424E+00
    -32.756  0.0000E+00  0.0000E+00  0.2424E+00  0.2424E+00
    -32.550  0.0000E+00  0.0000E+00  0.2424E+00  0.2424E+00
    -32.344  0.0000E+00  0.0000E+00  0.2424E+00  0.2424E+00
    -32.138  0.0000E+00  0.0000E+00  0.2424E+00  0.2424E+00
    -31.932  0.0000E+00  0.0000E+00  0.2424E+00  0.2424E+00
    -31.726  0.0000E+00  0.0000E+00  0.2424E+00  0.2424E+00
    -31.520  0.0000E+00  0.0000E+00  0.2424E+00  0.2424E+00
    -31.314  0.0000E+00  0.0000E+00  0.2424E+00  0.2424E+00
    -31.108  0.0000E+00  0.0000E+00  0.2424E+00  0.2424E+00
    -30.902  0.0000E+00  0.0000E+00  0.2424E+00  0.2424E+00
    -30.696  0.0000E+00  0.0000E+00  0.2424E+00  0.2424E+00
    -30.490  0.0000E+00  0.0000E+00  0.2424E+00  0.2424E+00
    -30.284  0.0000E+00  0.0000E+00  0.2424E+00  0.2424E+00
    -30.078  0.0000E+00  0.0000E+00  0.2424E+00  0.2424E+00
    -29.872  0.0000E+00  0.0000E+00  0.2424E+00  0.2424E+00
    -29.666  0.0000E+00  0.0000E+00  0.2424E+00  0.2424E+00
    -29.460  0.0000E+00  0.0000E+00  0.2424E+00  0.2424E+00
    -29.254  0.0000E+00  0.0000E+00  0.2424E+00  0.2424E+00
    -29.048  0.0000E+00  0.0000E+00  0.2424E+00  0.2424E+00
    -28.842  0.0000E+00  0.0000E+00  0.2424E+00  0.2424E+00
    -28.636  0.0000E+00  0.0000E+00  0.2424E+00  0.2424E+00
    -28.430  0.0000E+00  0.0000E+00  0.2424E+00  0.2424E+00
    -28.224  0.0000E+00  0.0000E+00  0.2424E+00  0.2424E+00
    -28.018  0.0000E+00  0.0000E+00  0.2424E+00  0.2424E+00
    -27.812  0.0000E+00  0.0000E+00  0.2424E+00  0.2424E+00
    -27.606  0.0000E+00  0.0000E+00  0.2424E+00  0.2424E+00
    -27.400  0.0000E+00  0.0000E+00  0.2424E+00  0.2424E+00
    -27.194  0.0000E+00  0.0000E+00  0.2424E+00  0.2424E+00
    -26.988  0.0000E+00  0.0000E+00  0.2424E+00  0.2424E+00
    -26.782  0.0000E+00  0.0000E+00  0.2424E+00  0.2424E+00
    -26.576  0.0000E+00  0.0000E+00  0.2424E+00  0.2424E+00
    -26.370  0.0000E+00  0.0000E+00  0.2424E+00  0.2424E+00
    -26.164  0.0000E+00  0.0000E+00  0.2424E+00  0.2424E+00
    -25.958  0.0000E+00  0.0000E+00  0.2424E+00  0.2424E+00
    -25.751  0.0000E+00  0.0000E+00  0.2424E+00  0.2424E+00
    -25.545  0.0000E+00  0.0000E+00  0.2424E+00  0.2424E+00
    -25.339  0.0000E+00  0.0000E+00  0.2424E+00  0.2424E+00
    -25.133  0.0000E+00  0.0000E+00  0.2424E+00  0.2424E+00
    -24.927  0.0000E+00  0.0000E+00  0.2424E+00  0.2424E+00
    -24.721  0.0000E+00  0.0000E+00  0.2424E+00  0.2424E+00
    -24.515  0.0000E+00  0.0000E+00  0.2424E+00  0.2424E+00
    -24.309  0.0000E+00  0.0000E+00  0.2424E+00  0.2424E+00
    -24.103  0.0000E+00  0.0000E+00  0.2424E+00  0.2424E+00
    -23.897  0.0000E+00  0.0000E+00  0.2424E+00  0.2424E+00
    -23.691  0.0000E+00  0.0000E+00  0.2424E+00  0.2424E+00
    -23.485  0.0000E+00  0.0000E+00  0.2424E+00  0.2424E+00
    -23.279  0.0000E+00  0.0000E+00  0.2424E+00  0.2424E+00
    -23.073  0.0000E+00  0.0000E+00  0.2424E+00  0.2424E+00
    -22.867  0.0000E+00  0.0000E+00  0.2424E+00  0.2424E+00
    -22.661  0.0000E+00  0.0000E+00  0.2424E+00  0.2424E+00
    -22.455  0.0000E+00  0.0000E+00  0.2424E+00  0.2424E+00
    -22.249  0.0000E+00  0.0000E+00  0.2424E+00  0.2424E+00
    -22.043  0.0000E+00  0.0000E+00  0.2424E+00  0.2424E+00
    -21.837  0.0000E+00  0.0000E+00  0.2424E+00  0.2424E+00
    -21.631  0.0000E+00  0.0000E+00  0.2424E+00  0.2424E+00
    -21.425  0.0000E+00  0.0000E+00  0.2424E+00  0.2424E+00
    -21.219  0.0000E+00  0.0000E+00  0.2424E+00  0.2424E+00
    -21.013  0.0000E+00  0.0000E+00  0.2424E+00  0.2424E+00
    -20.807  0.0000E+00  0.0000E+00  0.2424E+00  0.2424E+00
    -20.601  0.0000E+00  0.0000E+00  0.2424E+00  0.2424E+00
    -20.395  0.0000E+00  0.0000E+00  0.2424E+00  0.2424E+00
    -20.189  0.0000E+00  0.0000E+00  0.2424E+00  0.2424E+00
    -19.983  0.0000E+00  0.0000E+00  0.2424E+00  0.2424E+00
    -19.777  0.0000E+00  0.0000E+00  0.2424E+00  0.2424E+00
    -19.571  0.0000E+00  0.0000E+00  0.2424E+00  0.2424E+00
    -19.365  0.0000E+00  0.0000E+00  0.2424E+00  0.2424E+00
    -19.159  0.0000E+00  0.0000E+00  0.2424E+00  0.2424E+00
    -18.953  0.0000E+00  0.0000E+00  0.2424E+00  0.2424E+00
    -18.747  0.0000E+00  0.0000E+00  0.2424E+00  0.2424E+00
    -18.541  0.0000E+00  0.0000E+00  0.2424E+00  0.2424E+00
    -18.335  0.0000E+00  0.0000E+00  0.2424E+00  0.2424E+00
    -18.129  0.0000E+00  0.0000E+00  0.2424E+00  0.2424E+00
    -17.923  0.0000E+00  0.0000E+00  0.2424E+00  0.2424E+00
    -17.717  0.0000E+00  0.0000E+00  0.2424E+00  0.2424E+00
    -17.511  0.0000E+00  0.0000E+00  0.2424E+00  0.2424E+00
    -17.305  0.0000E+00  0.0000E+00  0.2424E+00  0.2424E+00
    -17.099  0.0000E+00  0.0000E+00  0.2424E+00  0.2424E+00
    -16.893  0.0000E+00  0.0000E+00  0.2424E+00  0.2424E+00
    -16.687  0.0000E+00  0.0000E+00  0.2424E+00  0.2424E+00
    -16.480  0.0000E+00  0.0000E+00  0.2424E+00  0.2424E+00
    -16.274  0.0000E+00  0.0000E+00  0.2424E+00  0.2424E+00
    -16.068  0.0000E+00  0.0000E+00  0.2424E+00  0.2424E+00
    -15.862  0.0000E+00  0.0000E+00  0.2424E+00  0.2424E+00
    -15.656  0.0000E+00  0.0000E+00  0.2424E+00  0.2424E+00
    -15.450  0.0000E+00  0.0000E+00  0.2424E+00  0.2424E+00
    -15.244  0.0000E+00  0.0000E+00  0.2424E+00  0.2424E+00
    -15.038  0.0000E+00  0.0000E+00  0.2424E+00  0.2424E+00
    -14.832  0.0000E+00  0.0000E+00  0.2424E+00  0.2424E+00
    -14.626  0.0000E+00  0.0000E+00  0.2424E+00  0.2424E+00
    -14.420  0.0000E+00  0.0000E+00  0.2424E+00  0.2424E+00
    -14.214  0.0000E+00  0.0000E+00  0.2424E+00  0.2424E+00
    -14.008  0.0000E+00  0.0000E+00  0.2424E+00  0.2424E+00
    -13.802  0.0000E+00  0.0000E+00  0.2424E+00  0.2424E+00
    -13.596  0.0000E+00  0.0000E+00  0.2424E+00  0.2424E+00
    -13.390  0.0000E+00  0.0000E+00  0.2424E+00  0.2424E+00
    -13.184  0.0000E+00  0.0000E+00  0.2424E+00  0.2424E+00
    -12.978  0.0000E+00  0.0000E+00  0.2424E+00  0.2424E+00
    -12.772  0.0000E+00  0.0000E+00  0.2424E+00  0.2424E+00
    -12.566  0.0000E+00  0.0000E+00  0.2424E+00  0.2424E+00
    -12.360  0.0000E+00  0.0000E+00  0.2424E+00  0.2424E+00
    -12.154  0.0000E+00  0.0000E+00  0.2424E+00  0.2424E+00
    -11.948  0.0000E+00  0.0000E+00  0.2424E+00  0.2424E+00
    -11.742  0.0000E+00  0.0000E+00  0.2424E+00  0.2424E+00
    -11.536  0.0000E+00  0.0000E+00  0.2424E+00  0.2424E+00
    -11.330  0.0000E+00  0.0000E+00  0.2424E+00  0.2424E+00
    -11.124  0.8238E-12  0.8238E-12  0.2424E+00  0.2424E+00
    -10.918  0.3025E-03  0.3025E-03  0.2425E+00  0.2425E+00
    -10.712  0.9395E-02  0.9395E-02  0.2444E+00  0.2444E+00
    -10.506  0.1980E-01  0.1980E-01  0.2485E+00  0.2485E+00
    -10.300  0.2380E-01  0.2380E-01  0.2534E+00  0.2534E+00
    -10.094  0.3060E-01  0.3060E-01  0.2597E+00  0.2597E+00
     -9.888  0.4522E-01  0.4522E-01  0.2690E+00  0.2690E+00
     -9.682  0.3213E-01  0.3213E-01  0.2756E+00  0.2756E+00
     -9.476  0.3860E-01  0.3860E-01  0.2836E+00  0.2836E+00
     -9.270  0.5842E-01  0.5842E-01  0.2956E+00  0.2956E+00
     -9.064  0.9695E-01  0.9695E-01  0.3156E+00  0.3156E+00
     -8.858  0.3701E-01  0.3701E-01  0.3232E+00  0.3232E+00
     -8.652  0.4268E-05  0.4268E-05  0.3232E+00  0.3232E+00
     -8.446  0.0000E+00  0.0000E+00  0.3232E+00  0.3232E+00
     -8.240  0.0000E+00  0.0000E+00  0.3232E+00  0.3232E+00
     -8.034  0.0000E+00  0.0000E+00  0.3232E+00  0.3232E+00
     -7.828  0.0000E+00  0.0000E+00  0.3232E+00  0.3232E+00
     -7.622  0.0000E+00  0.0000E+00  0.3232E+00  0.3232E+00
     -7.416  0.0000E+00  0.0000E+00  0.3232E+00  0.3232E+00
     -7.209  0.0000E+00  0.0000E+00  0.3232E+00  0.3232E+00
     -7.003  0.0000E+00  0.0000E+00  0.3232E+00  0.3232E+00
     -6.797  0.0000E+00  0.0000E+00  0.3232E+00  0.3232E+00
     -6.591  0.0000E+00  0.0000E+00  0.3232E+00  0.3232E+00
     -6.385  0.0000E+00  0.0000E+00  0.3232E+00  0.3232E+00
     -6.179  0.0000E+00  0.0000E+00  0.3232E+00  0.3232E+00
     -5.973  0.0000E+00  0.0000E+00  0.3232E+00  0.3232E+00
     -5.767  0.0000E+00  0.0000E+00  0.3232E+00  0.3232E+00
     -5.561  0.0000E+00  0.0000E+00  0.3232E+00  0.3232E+00
     -5.355  0.0000E+00  0.0000E+00  0.3232E+00  0.3232E+00
     -5.149  0.0000E+00  0.0000E+00  0.3232E+00  0.3232E+00
     -4.943  0.0000E+00  0.0000E+00  0.3232E+00  0.3232E+00
     -4.737  0.0000E+00  0.0000E+00  0.3232E+00  0.3232E+00
     -4.531  0.0000E+00  0.0000E+00  0.3232E+00  0.3232E+00
     -4.325  0.0000E+00  0.0000E+00  0.3232E+00  0.3232E+00
     -4.119  0.0000E+00  0.0000E+00  0.3232E+00  0.3232E+00
     -3.913  0.0000E+00  0.0000E+00  0.3232E+00  0.3232E+00
     -3.707  0.0000E+00  0.0000E+00  0.3232E+00  0.3232E+00
     -3.501  0.0000E+00  0.0000E+00  0.3232E+00  0.3232E+00
     -3.295  0.0000E+00  0.0000E+00  0.3232E+00  0.3232E+00
     -3.089  0.8336E-11  0.8336E-11  0.3232E+00  0.3232E+00
     -2.883  0.1493E-03  0.1493E-03  0.3233E+00  0.3233E+00
     -2.677  0.3062E-02  0.3062E-02  0.3239E+00  0.3239E+00
     -2.471  0.5759E-02  0.5759E-02  0.3251E+00  0.3251E+00
     -2.265  0.8264E-02  0.8264E-02  0.3268E+00  0.3268E+00
     -2.059  0.2786E-01  0.2786E-01  0.3325E+00  0.3325E+00
     -1.853  0.4928E-01  0.4928E-01  0.3427E+00  0.3427E+00
     -1.647  0.5502E-01  0.5502E-01  0.3540E+00  0.3540E+00
     -1.441  0.4669E-01  0.4669E-01  0.3636E+00  0.3636E+00
     -1.235  0.5136E-01  0.5136E-01  0.3742E+00  0.3742E+00
     -1.029  0.3911E-01  0.3911E-01  0.3823E+00  0.3823E+00
     -0.823  0.5887E-01  0.5887E-01  0.3944E+00  0.3944E+00
     -0.617  0.6220E-01  0.6220E-01  0.4072E+00  0.4072E+00
     -0.411  0.8401E-01  0.8401E-01  0.4245E+00  0.4245E+00
     -0.205  0.8261E-01  0.8261E-01  0.4415E+00  0.4415E+00
      0.001  0.5453E-01  0.5453E-01  0.4528E+00  0.4528E+00
      0.207  0.1168E+00  0.1168E+00  0.4768E+00  0.4768E+00
      0.413  0.1060E+00  0.1060E+00  0.4987E+00  0.4987E+00
      0.619  0.4496E-01  0.4496E-01  0.5079E+00  0.5079E+00
      0.825  0.6920E-01  0.6920E-01  0.5222E+00  0.5222E+00
      1.031  0.4567E-01  0.4567E-01  0.5316E+00  0.5316E+00
      1.237  0.9521E-01  0.9521E-01  0.5512E+00  0.5512E+00
      1.443  0.1556E+00  0.1556E+00  0.5833E+00  0.5833E+00
      1.649  0.6681E-01  0.6681E-01  0.5971E+00  0.5971E+00
      1.855  0.8149E-01  0.8149E-01  0.6138E+00  0.6138E+00
      2.062  0.6705E-01  0.6705E-01  0.6277E+00  0.6277E+00
      2.268  0.6313E-01  0.6313E-01  0.6407E+00  0.6407E+00
      2.474  0.8517E-01  0.8517E-01  0.6582E+00  0.6582E+00
      2.680  0.9965E-01  0.9965E-01  0.6787E+00  0.6787E+00
      2.886  0.9420E-01  0.9420E-01  0.6981E+00  0.6981E+00
      3.092  0.1126E+00  0.1126E+00  0.7213E+00  0.7213E+00
      3.298  0.1308E+00  0.1308E+00  0.7483E+00  0.7483E+00
      3.504  0.1314E+00  0.1314E+00  0.7754E+00  0.7754E+00
      3.710  0.9053E-01  0.9053E-01  0.7940E+00  0.7940E+00
      3.916  0.6635E-01  0.6635E-01  0.8077E+00  0.8077E+00
      4.122  0.1330E+00  0.1330E+00  0.8351E+00  0.8351E+00
      4.328  0.8930E-01  0.8930E-01  0.8535E+00  0.8535E+00
      4.534  0.5557E-01  0.5557E-01  0.8649E+00  0.8649E+00
      4.740  0.5154E-01  0.5154E-01  0.8755E+00  0.8755E+00
      4.946  0.6701E-01  0.6701E-01  0.8894E+00  0.8894E+00
      5.152  0.1136E+00  0.1136E+00  0.9128E+00  0.9128E+00
      5.358  0.6349E-01  0.6349E-01  0.9258E+00  0.9258E+00
      5.564  0.2527E-01  0.2527E-01  0.9311E+00  0.9311E+00
      5.770  0.3461E-01  0.3461E-01  0.9382E+00  0.9382E+00
      5.976  0.7111E-01  0.7111E-01  0.9528E+00  0.9528E+00
      6.182  0.4750E-01  0.4750E-01  0.9626E+00  0.9626E+00
      6.388  0.2349E-01  0.2349E-01  0.9675E+00  0.9675E+00
      6.594  0.9772E-02  0.9770E-02  0.9695E+00  0.9695E+00
      6.800  0.1091E-02  0.1093E-02  0.9697E+00  0.9697E+00
      7.006  0.1388E-07  0.2484E-07  0.9697E+00  0.9697E+00
      7.212  0.0000E+00  0.0000E+00  0.9697E+00  0.9697E+00
      7.418  0.0000E+00  0.0000E+00  0.9697E+00  0.9697E+00
      7.624  0.0000E+00  0.0000E+00  0.9697E+00  0.9697E+00
      7.830  0.0000E+00  0.0000E+00  0.9697E+00  0.9697E+00
      8.036  0.0000E+00  0.0000E+00  0.9697E+00  0.9697E+00
      8.242  0.0000E+00  0.0000E+00  0.9697E+00  0.9697E+00
      8.448  0.0000E+00  0.0000E+00  0.9697E+00  0.9697E+00
      8.654  0.0000E+00  0.0000E+00  0.9697E+00  0.9697E+00
      8.860  0.0000E+00  0.0000E+00  0.9697E+00  0.9697E+00
      9.066  0.0000E+00  0.0000E+00  0.9697E+00  0.9697E+00
      9.272  0.0000E+00  0.0000E+00  0.9697E+00  0.9697E+00
      9.478  0.0000E+00  0.0000E+00  0.9697E+00  0.9697E+00
      9.47830213    -52.32836411  301      3.91923347      1.00000000
    -52.328  0.0000E+00  0.0000E+00  0.0000E+00  0.0000E+00  0.0000E+00  0.0000E+00  0.0000E+00  0.0000E+00  0.0000E+00  0.0000E+00  0.0000E+00  0.0000E+00  0.0000E+00  0.0000E+00  0.0000E+00  0.0000E+00  0.0000E+00  0.0000E+00
    -52.122  0.0000E+00  0.0000E+00  0.0000E+00  0.0000E+00  0.0000E+00  0.0000E+00  0.0000E+00  0.0000E+00  0.0000E+00  0.0000E+00  0.0000E+00  0.0000E+00  0.0000E+00  0.0000E+00  0.0000E+00  0.0000E+00  0.0000E+00  0.0000E+00
    -51.916  0.0000E+00  0.0000E+00  0.0000E+00  0.0000E+00  0.0000E+00  0.0000E+00  0.0000E+00  0.0000E+00  0.0000E+00  0.0000E+00  0.0000E+00  0.0000E+00  0.0000E+00  0.0000E+00  0.0000E+00  0.0000E+00  0.0000E+00  0.0000E+00
    -51.710  0.0000E+00  0.0000E+00  0.0000E+00  0.0000E+00  0.0000E+00  0.0000E+00  0.0000E+00  0.0000E+00  0.0000E+00  0.0000E+00  0.0000E+00  0.0000E+00  0.0000E+00  0.0000E+00  0.0000E+00  0.0000E+00  0.0000E+00  0.0000E+00
    -51.504  0.0000E+00  0.0000E+00  0.0000E+00  0.0000E+00  0.0000E+00  0.0000E+00  0.0000E+00  0.0000E+00  0.0000E+00  0.0000E+00  0.0000E+00  0.0000E+00  0.0000E+00  0.0000E+00  0.0000E+00  0.0000E+00  0.0000E+00  0.0000E+00
    -51.298  0.0000E+00  0.0000E+00  0.0000E+00  0.0000E+00  0.0000E+00  0.0000E+00  0.0000E+00  0.0000E+00  0.0000E+00  0.0000E+00  0.0000E+00  0.0000E+00  0.0000E+00  0.0000E+00  0.0000E+00  0.0000E+00  0.0000E+00  0.0000E+00
    -51.092  0.0000E+00  0.0000E+00  0.0000E+00  0.0000E+00  0.0000E+00  0.0000E+00  0.0000E+00  0.0000E+00  0.0000E+00  0.0000E+00  0.0000E+00  0.0000E+00  0.0000E+00  0.0000E+00  0.0000E+00  0.0000E+00  0.0000E+00  0.0000E+00
    -50.886  0.0000E+00  0.0000E+00  0.0000E+00  0.0000E+00  0.0000E+00  0.0000E+00  0.0000E+00  0.0000E+00  0.0000E+00  0.0000E+00  0.0000E+00  0.0000E+00  0.0000E+00  0.0000E+00  0.0000E+00  0.0000E+00  0.0000E+00  0.0000E+00
    -50.680  0.0000E+00  0.0000E+00  0.0000E+00  0.0000E+00  0.0000E+00  0.0000E+00  0.0000E+00  0.0000E+00  0.0000E+00  0.0000E+00  0.0000E+00  0.0000E+00  0.0000E+00  0.0000E+00  0.0000E+00  0.0000E+00  0.0000E+00  0.0000E+00
    -50.474  0.0000E+00  0.0000E+00  0.0000E+00  0.0000E+00  0.0000E+00  0.0000E+00  0.0000E+00  0.0000E+00  0.0000E+00  0.0000E+00  0.0000E+00  0.0000E+00  0.0000E+00  0.0000E+00  0.0000E+00  0.0000E+00  0.0000E+00  0.0000E+00
    -50.268  0.0000E+00  0.0000E+00  0.0000E+00  0.0000E+00  0.0000E+00  0.0000E+00  0.0000E+00  0.0000E+00  0.0000E+00  0.0000E+00  0.0000E+00  0.0000E+00  0.0000E+00  0.0000E+00  0.0000E+00  0.0000E+00  0.0000E+00  0.0000E+00
    -50.062  0.0000E+00  0.0000E+00  0.0000E+00  0.0000E+00  0.0000E+00  0.0000E+00  0.0000E+00  0.0000E+00  0.0000E+00  0.0000E+00  0.0000E+00  0.0000E+00  0.0000E+00  0.0000E+00  0.0000E+00  0.0000E+00  0.0000E+00  0.0000E+00
    -49.856  0.0000E+00  0.0000E+00  0.0000E+00  0.0000E+00  0.0000E+00  0.0000E+00  0.0000E+00  0.0000E+00  0.0000E+00  0.0000E+00  0.0000E+00  0.0000E+00  0.0000E+00  0.0000E+00  0.0000E+00  0.0000E+00  0.0000E+00  0.0000E+00
    -49.650  0.4647E-08  0.7049E-08  0.5315E-05  0.5638E-05  0.2704E-06  0.5134E-06  0.5207E-05  0.1023E-04  0.1221E-09  0.1597E-09  0.2203E-11  0.3278E-11  0.2392E-08  0.3480E-08  0.3719E-09  0.8616E-09  0.8022E-09  0.1773E-08
    -49.444  0.3573E-03  0.3570E-03  0.5055E+00  0.5120E+00  0.2426E-01  0.2537E-01  0.4959E+00  0.5217E+00  0.6574E-05  0.6726E-05  0.2147E-06  0.2216E-06  0.1813E-03  0.1797E-03  0.4764E-04  0.5186E-04  0.5014E-03  0.5088E-03
    -49.238  0.4219E-04  0.3939E-04  0.1176E+00  0.1670E+00  0.5610E-02  0.4544E-02  0.1180E+00  0.9236E-01  0.8070E-06  0.6968E-06  0.5483E-07  0.4225E-07  0.2152E-04  0.2174E-04  0.1063E-04  0.6713E-05  0.1699E-03  0.1586E-03
    -49.032  0.9540E-04  0.9977E-04  0.1827E+01  0.1853E+01  0.2162E+01  0.2710E+01  0.1892E+01  0.1949E+01  0.4025E-05  0.4093E-05  0.3656E-05  0.4102E-05  0.2189E-04  0.2316E-04  0.9953E-05  0.9666E-05  0.6454E-04  0.6583E-04
    -48.826  0.1001E-03  0.1013E-03  0.1751E+01  0.1771E+01  0.2618E+01  0.2073E+01  0.1737E+01  0.1790E+01  0.4299E-04  0.4289E-04  0.2200E-04  0.2158E-04  0.3663E-04  0.3740E-04  0.2451E-04  0.2503E-04  0.6853E-04  0.7407E-04
    -48.620  0.1947E-04  0.1685E-04  0.6332E+00  0.5305E+00  0.2466E-01  0.2056E-01  0.5910E+00  0.4811E+00  0.4345E-05  0.4315E-05  0.1631E-06  0.1441E-06  0.7232E-05  0.6515E-05  0.2976E-05  0.2323E-05  0.4538E-04  0.4216E-04
    -48.414  0.8149E-11  0.6010E-11  0.1060E-05  0.6792E-06  0.4193E-07  0.2603E-07  0.1011E-05  0.6160E-06  0.1086E-11  0.9023E-12  0.5912E-13  0.2405E-13  0.3187E-11  0.2511E-11  0.3421E-11  0.1860E-11  0.7205E-10  0.4277E-10
    -48.208  0.0000E+00  0.0000E+00  0.0000E+00  0.0000E+00  0.0000E+00  0.0000E+00  0.0000E+00  0.0000E+00  0.0000E+00  0.0000E+00  0.0000E+00  0.0000E+00  0.0000E+00  0.0000E+00  0.0000E+00  0.0000E+00  0.0000E+00  0.0000E+00
    -48.002  0.0000E+00  0.0000E+00  0.0000E+00  0.0000E+00  0.0000E+00  0.0000E+00  0.0000E+00  0.0000E+00  0.0000E+00  0.0000E+00  0.0000E+00  0.0000E+00  0.0000E+00  0.0000E+00  0.0000E+00  0.0000E+00  0.0000E+00  0.0000E+00
    -47.796  0.0000E+00  0.0000E+00  0.0000E+00  0.0000E+00  0.0000E+00  0.0000E+00  0.0000E+00  0.0000E+00  0.0000E+00  0.0000E+00  0.0000E+00  0.0000E+00  0.0000E+00  0.0000E+00  0.0000E+00  0.0000E+00  0.0000E+00  0.0000E+00
    -47.590  0.0000E+00  0.0000E+00  0.0000E+00  0.0000E+00  0.0000E+00  0.0000E+00  0.0000E+00  0.0000E+00  0.0000E+00  0.0000E+00  0.0000E+00  0.0000E+00  0.0000E+00  0.0000E+00  0.0000E+00  0.0000E+00  0.0000E+00  0.0000E+00
    -47.384  0.0000E+00  0.0000E+00  0.0000E+00  0.0000E+00  0.0000E+00  0.0000E+00  0.0000E+00  0.0000E+00  0.0000E+00  0.0000E+00  0.0000E+00  0.0000E+00  0.0000E+00  0.0000E+00  0.0000E+00  0.0000E+00  0.0000E+00  0.0000E+00
    -47.178  0.0000E+00  0.0000E+00  0.0000E+00  0.0000E+00  0.0000E+00  0.0000E+00  0.0000E+00  0.0000E+00  0.0000E+00  0.0000E+00  0.0000E+00  0.0000E+00  0.0000E+00  0.0000E+00  0.0000E+00  0.0000E+00  0.0000E+00  0.0000E+00
    -46.972  0.0000E+00  0.0000E+00  0.0000E+00  0.0000E+00  0.0000E+00  0.0000E+00  0.0000E+00  0.0000E+00  0.0000E+00  0.0000E+00  0.0000E+00  0.0000E+00  0.0000E+00  0.0000E+00  0.0000E+00  0.0000E+00  0.0000E+00  0.0000E+00
    -46.766  0.0000E+00  0.0000E+00  0.0000E+00  0.0000E+00  0.0000E+00  0.0000E+00  0.0000E+00  0.0000E+00  0.0000E+00  0.0000E+00  0.0000E+00  0.0000E+00  0.0000E+00  0.0000E+00  0.0000E+00  0.0000E+00  0.0000E+00  0.0000E+00
    -46.560  0.0000E+00  0.0000E+00  0.0000E+00  0.0000E+00  0.0000E+00  0.0000E+00  0.0000E+00  0.0000E+00  0.0000E+00  0.0000E+00  0.0000E+00  0.0000E+00  0.0000E+00  0.0000E+00  0.0000E+00  0.0000E+00  0.0000E+00  0.0000E+00
    -46.354  0.0000E+00  0.0000E+00  0.0000E+00  0.0000E+00  0.0000E+00  0.0000E+00  0.0000E+00  0.0000E+00  0.0000E+00  0.0000E+00  0.0000E+00  0.0000E+00  0.0000E+00  0.0000E+00  0.0000E+00  0.0000E+00  0.0000E+00  0.0000E+00
    -46.148  0.0000E+00  0.0000E+00  0.0000E+00  0.0000E+00  0.0000E+00  0.0000E+00  0.0000E+00  0.0000E+00  0.0000E+00  0.0000E+00  0.0000E+00  0.0000E+00  0.0000E+00  0.0000E+00  0.0000E+00  0.0000E+00  0.0000E+00  0.0000E+00
    -45.942  0.0000E+00  0.0000E+00  0.0000E+00  0.0000E+00  0.0000E+00  0.0000E+00  0.0000E+00  0.0000E+00  0.0000E+00  0.0000E+00  0.0000E+00  0.0000E+00  0.0000E+00  0.0000E+00  0.0000E+00  0.0000E+00  0.0000E+00  0.0000E+00
    -45.736  0.0000E+00  0.0000E+00  0.0000E+00  0.0000E+00  0.0000E+00  0.0000E+00  0.0000E+00  0.0000E+00  0.0000E+00  0.0000E+00  0.0000E+00  0.0000E+00  0.0000E+00  0.0000E+00  0.0000E+00  0.0000E+00  0.0000E+00  0.0000E+00
    -45.530  0.0000E+00  0.0000E+00  0.0000E+00  0.0000E+00  0.0000E+00  0.0000E+00  0.0000E+00  0.0000E+00  0.0000E+00  0.0000E+00  0.0000E+00  0.0000E+00  0.0000E+00  0.0000E+00  0.0000E+00  0.0000E+00  0.0000E+00  0.0000E+00
    -45.324  0.0000E+00  0.0000E+00  0.0000E+00  0.0000E+00  0.0000E+00  0.0000E+00  0.0000E+00  0.0000E+00  0.0000E+00  0.0000E+00  0.0000E+00  0.0000E+00  0.0000E+00  0.0000E+00  0.0000E+00  0.0000E+00  0.0000E+00  0.0000E+00
    -45.118  0.0000E+00  0.0000E+00  0.0000E+00  0.0000E+00  0.0000E+00  0.0000E+00  0.0000E+00  0.0000E+00  0.0000E+00  0.0000E+00  0.0000E+00  0.0000E+00  0.0000E+00  0.0000E+00  0.0000E+00  0.0000E+00  0.0000E+00  0.0000E+00
    -44.912  0.0000E+00  0.0000E+00  0.0000E+00  0.0000E+00  0.0000E+00  0.0000E+00  0.0000E+00  0.0000E+00  0.0000E+00  0.0000E+00  0.0000E+00  0.0000E+00  0.0000E+00  0.0000E+00  0.0000E+00  0.0000E+00  0.0000E+00  0.0000E+00
    -44.706  0.0000E+00  0.0000E+00  0.0000E+00  0.0000E+00  0.0000E+00  0.0000E+00  0.0000E+00  0.0000E+00  0.0000E+00  0.0000E+00  0.0000E+00  0.0000E+00  0.0000E+00  0.0000E+00  0.0000E+00  0.0000E+00  0.0000E+00  0.0000E+00
    -44.500  0.0000E+00  0.0000E+00  0.0000E+00  0.0000E+00  0.0000E+00  0.0000E+00  0.0000E+00  0.0000E+00  0.0000E+00  0.0000E+00  0.0000E+00  0.0000E+00  0.0000E+00  0.0000E+00  0.0000E+00  0.0000E+00  0.0000E+00  0.0000E+00
    -44.293  0.0000E+00  0.0000E+00  0.0000E+00  0.0000E+00  0.0000E+00  0.0000E+00  0.0000E+00  0.0000E+00  0.0000E+00  0.0000E+00  0.0000E+00  0.0000E+00  0.0000E+00  0.0000E+00  0.0000E+00  0.0000E+00  0.0000E+00  0.0000E+00
    -44.087  0.0000E+00  0.0000E+00  0.0000E+00  0.0000E+00  0.0000E+00  0.0000E+00  0.0000E+00  0.0000E+00  0.0000E+00  0.0000E+00  0.0000E+00  0.0000E+00  0.0000E+00  0.0000E+00  0.0000E+00  0.0000E+00  0.0000E+00  0.0000E+00
    -43.881  0.0000E+00  0.0000E+00  0.0000E+00  0.0000E+00  0.0000E+00  0.0000E+00  0.0000E+00  0.0000E+00  0.0000E+00  0.0000E+00  0.0000E+00  0.0000E+00  0.0000E+00  0.0000E+00  0.0000E+00  0.0000E+00  0.0000E+00  0.0000E+00
    -43.675  0.0000E+00  0.0000E+00  0.0000E+00  0.0000E+00  0.0000E+00  0.0000E+00  0.0000E+00  0.0000E+00  0.0000E+00  0.0000E+00  0.0000E+00  0.0000E+00  0.0000E+00  0.0000E+00  0.0000E+00  0.0000E+00  0.0000E+00  0.0000E+00
    -43.469  0.0000E+00  0.0000E+00  0.0000E+00  0.0000E+00  0.0000E+00  0.0000E+00  0.0000E+00  0.0000E+00  0.0000E+00  0.0000E+00  0.0000E+00  0.0000E+00  0.0000E+00  0.0000E+00  0.0000E+00  0.0000E+00  0.0000E+00  0.0000E+00
    -43.263  0.0000E+00  0.0000E+00  0.0000E+00  0.0000E+00  0.0000E+00  0.0000E+00  0.0000E+00  0.0000E+00  0.0000E+00  0.0000E+00  0.0000E+00  0.0000E+00  0.0000E+00  0.0000E+00  0.0000E+00  0.0000E+00  0.0000E+00  0.0000E+00
    -43.057  0.0000E+00  0.0000E+00  0.0000E+00  0.0000E+00  0.0000E+00  0.0000E+00  0.0000E+00  0.0000E+00  0.0000E+00  0.0000E+00  0.0000E+00  0.0000E+00  0.0000E+00  0.0000E+00  0.0000E+00  0.0000E+00  0.0000E+00  0.0000E+00
    -42.851  0.0000E+00  0.0000E+00  0.0000E+00  0.0000E+00  0.0000E+00  0.0000E+00  0.0000E+00  0.0000E+00  0.0000E+00  0.0000E+00  0.0000E+00  0.0000E+00  0.0000E+00  0.0000E+00  0.0000E+00  0.0000E+00  0.0000E+00  0.0000E+00
    -42.645  0.0000E+00  0.0000E+00  0.0000E+00  0.0000E+00  0.0000E+00  0.0000E+00  0.0000E+00  0.0000E+00  0.0000E+00  0.0000E+00  0.0000E+00  0.0000E+00  0.0000E+00  0.0000E+00  0.0000E+00  0.0000E+00  0.0000E+00  0.0000E+00
    -42.439  0.0000E+00  0.0000E+00  0.0000E+00  0.0000E+00  0.0000E+00  0.0000E+00  0.0000E+00  0.0000E+00  0.0000E+00  0.0000E+00  0.0000E+00  0.0000E+00  0.0000E+00  0.0000E+00  0.0000E+00  0.0000E+00  0.0000E+00  0.0000E+00
    -42.233  0.0000E+00  0.0000E+00  0.0000E+00  0.0000E+00  0.0000E+00  0.0000E+00  0.0000E+00  0.0000E+00  0.0000E+00  0.0000E+00  0.0000E+00  0.0000E+00  0.0000E+00  0.0000E+00  0.0000E+00  0.0000E+00  0.0000E+00  0.0000E+00
    -42.027  0.0000E+00  0.0000E+00  0.0000E+00  0.0000E+00  0.0000E+00  0.0000E+00  0.0000E+00  0.0000E+00  0.0000E+00  0.0000E+00  0.0000E+00  0.0000E+00  0.0000E+00  0.0000E+00  0.0000E+00  0.0000E+00  0.0000E+00  0.0000E+00