       N       E                     dE             d eps       ncg     rms          rms(c)
DAV:   1     0.197134766770E+04    0.19713E+04   -0.90499E+04 89784   0.208E+03
DAV:   2     0.933130936781E+02   -0.18780E+04   -0.18453E+04 84864   0.594E+02
DAV:   3    -0.943057343432E+02   -0.18762E+03   -0.18144E+03124728   0.187E+02
DAV:   4    -0.104814583520E+03   -0.10509E+02   -0.10460E+02119880   0.455E+01
DAV:   5    -0.105109344632E+03   -0.29476E+00   -0.29415E+00113616   0.719E+00    0.258E+01
RMM:   6    -0.112339735359E+03   -0.72304E+01   -0.13359E+02 85442   0.811E+01    0.379E+01
RMM:   7    -0.964183206867E+02    0.15921E+02   -0.36199E+01 84969   0.474E+01    0.114E+01
RMM:   8    -0.994546109298E+02   -0.30363E+01   -0.76021E+00 97025   0.139E+01    0.269E+01
RMM:   9    -0.958679480347E+02    0.35867E+01   -0.53468E+00 92987   0.130E+01    0.180E+00
RMM:  10    -0.961103000795E+02   -0.24235E+00   -0.19386E+00139347   0.398E+00    0.502E+00
RMM:  11    -0.960567728671E+02    0.53527E-01   -0.28156E-01126474   0.176E+00    0.195E+00
RMM:  12    -0.960565802206E+02    0.19265E-03   -0.10412E-01 94825   0.190E+00    0.221E+00
RMM:  13    -0.960438139607E+02    0.12766E-01   -0.53310E-02115140   0.715E-01    0.186E+00
RMM:  14    -0.960358289603E+02    0.79850E-02   -0.47440E-02117031   0.110E+00    0.139E+00
RMM:  15    -0.960441392859E+02   -0.83103E-02   -0.10937E-02124832   0.409E-01    0.154E+00
RMM:  16    -0.960274709744E+02    0.16668E-01   -0.17204E-02132105   0.612E-01    0.712E-01
RMM:  17    -0.960270223779E+02    0.44860E-03   -0.84442E-03117265   0.411E-01    0.449E-01
RMM:  18    -0.960276339747E+02   -0.61160E-03   -0.16206E-03 83833   0.270E-01    0.119E-01
RMM:  19    -0.960278593239E+02   -0.22535E-03   -0.13003E-03 83932   0.217E-01    0.692E-02
RMM:  20    -0.960281922931E+02   -0.33297E-03   -0.91333E-04 71913   0.132E-01    0.756E-02
RMM:  21    -0.960283681776E+02   -0.17588E-03   -0.24798E-04 55228   0.102E-01
   1 F= -.10164358E+03 E0= -.10164358E+03  d E =0.000000E+00  mag=     0.0000
