 vasp.6.4.1 05Apr23 (build Jun 01 2023 13:46:15) complex                        
  
 executed on             LinuxIFC date 2023.12.17  15:37:30
 running   24 mpi-ranks, on    1 nodes
 distrk:  each k-point on   24 cores,    1 groups
 distr:  one band on NCORE=   1 cores,   24 groups


--------------------------------------------------------------------------------------------------------


 INCAR:
   ALGO = Fast
   EDIFF = 0.0002
   ENCUT = 550
   IBRION = -1
   ISIF = 4
   ISMEAR = -5
   ISPIN = 2
   IVDW = 13
   LASPH = True
   LMAXMIX = 4
   LORBIT = 11
   LREAL = Auto
   LWAVE = False
   MAGMOM = 1*0.008 2*-0.008 1*0.008 1*-0.002 1*0.01 1*0.002 1*-0.01 8*-0.0
   NELM = 100
   NSW = 0
   PREC = Accurate
   SIGMA = 0.05

 POTCAR:   PAW_PBE Fe_pv 06Sep2000                
 POTCAR:   PAW_PBE Se 06Sep2000                   
 -----------------------------------------------------------------------------
|                                                                             |
|           W    W    AA    RRRRR   N    N  II  N    N   GGGG   !!!           |
|           W    W   A  A   R    R  NN   N  II  NN   N  G    G  !!!           |
|           W    W  A    A  R    R  N N  N  II  N N  N  G       !!!           |
|           W WW W  AAAAAA  RRRRR   N  N N  II  N  N N  G  GGG   !            |
|           WW  WW  A    A  R   R   N   NN  II  N   NN  G    G                |
|           W    W  A    A  R    R  N    N  II  N    N   GGGG   !!!           |
|                                                                             |
|     For optimal performance we recommend to set                             |
|       NCORE = 2 up to number-of-cores-per-socket                            |
|     NCORE specifies how many cores store one orbital (NPAR=cpu/NCORE).      |
|     This setting can greatly improve the performance of VASP for DFT.       |
|     The default, NCORE=1 might be grossly inefficient on modern             |
|     multi-core architectures or massively parallel machines. Do your        |
|     own testing! More info at https://www.vasp.at/wiki/index.php/NCORE      |
|     Unfortunately you need to use the default for GW and RPA                |
|     calculations (for HF NCORE is supported but not extensively tested      |
|     yet).                                                                   |
|                                                                             |
 -----------------------------------------------------------------------------

 POTCAR:   PAW_PBE Fe_pv 06Sep2000                
   VRHFIN =Fe:  3pd7s1                                                                              
   LEXCH  = PE                                                                                      
   EATOM  =  2456.8974 eV,  180.5769 Ry                                                             
                                                                                                    
   TITEL  = PAW_PBE Fe_pv 06Sep2000                                                                 
   LULTRA =        F    use ultrasoft PP ?                                                          
   IUNSCR =        1    unscreen: 0-lin 1-nonlin 2-no                                               
   RPACOR =    1.750    partial core radius                                                         
   POMASS =   55.847; ZVAL   =   14.000    mass and valenz                                          
   RCORE  =    2.200    outmost cutoff radius                                                       
   RWIGS  =    2.200; RWIGS  =    1.164    wigner-seitz radius (au A)                               
   ENMAX  =  293.238; ENMIN  =  219.929 eV                                                          
   RCLOC  =    1.701    cutoff for local pot                                                        
   LCOR   =        T    correct aug charges                                                         
   LPAW   =        T    paw PP                                                                      
   EAUG   =  578.342                                                                                
   DEXC   =    -.002                                                                                
   RMAX   =    2.693    core radius for proj-oper                                                   
   RAUG   =    1.300    factor for augmentation sphere                                              
   RDEP   =    2.296    radius for radial grids                                                     
   QCUT   =   -4.642; QGAM   =    9.285    optimization parameters                                  
                                                                                                    
   Description                                                                                      
     l     E      TYP  RCUT    TYP  RCUT                                                            
     1   .000     23  2.000                                                                         
     1  -.400     23  2.000                                                                         
     2   .000     23  2.200                                                                         
     2   .000     23  2.200                                                                         
     0   .000     23  2.000                                                                         
     0  2.000     23  2.000                                                                         
     3   .000      7   .000                                                                         
  local pseudopotential read in
  partial core-charges read in
  atomic valenz-charges read in
  non local Contribution for L=           1  read in
    real space projection operators read in
  non local Contribution for L=           1  read in
    real space projection operators read in
  non local Contribution for L=           2  read in
    real space projection operators read in
  non local Contribution for L=           2  read in
    real space projection operators read in
  non local Contribution for L=           0  read in
    real space projection operators read in
  non local Contribution for L=           0  read in
    real space projection operators read in
    PAW grid and wavefunctions read in
 
   number of l-projection  operators is LMAX  =           6
   number of lm-projection operators is LMMAX =          18
 
 POTCAR:   PAW_PBE Se 06Sep2000                   
   VRHFIN =Se: s2p4                                                                                 
   LEXCH  = PE                                                                                      
   EATOM  =   256.9644 eV,   18.8864 Ry                                                             
                                                                                                    
   TITEL  = PAW_PBE Se 06Sep2000                                                                    
   LULTRA =        F    use ultrasoft PP ?                                                          
   IUNSCR =        1    unscreen: 0-lin 1-nonlin 2-no                                               
   RPACOR =    1.900    partial core radius                                                         
   POMASS =   78.960; ZVAL   =    6.000    mass and valenz                                          
   RCORE  =    2.100    outmost cutoff radius                                                       
   RWIGS  =    2.200; RWIGS  =    1.164    wigner-seitz radius (au A)                               
   ENMAX  =  211.534; ENMIN  =  158.651 eV                                                          
   ICORE  =        3    local potential                                                             
   LCOR   =        T    correct aug charges                                                         
   LPAW   =        T    paw PP                                                                      
   EAUG   =  446.842                                                                                
   DEXC   =    -.031                                                                                
   RMAX   =    3.170    core radius for proj-oper                                                   
   RAUG   =    1.300    factor for augmentation sphere                                              
   RDEP   =    2.177    radius for radial grids                                                     
   QCUT   =   -3.943; QGAM   =    7.886    optimization parameters                                  
                                                                                                    
   Description                                                                                      
     l     E      TYP  RCUT    TYP  RCUT                                                            
     0   .000     23  2.100                                                                         
     0   .000     23  2.100                                                                         
     1   .000     23  2.100                                                                         
     1   .000     23  2.100                                                                         
     2   .000     23  2.100                                                                         
     3  -.100      7  2.100                                                                         
  local pseudopotential read in
  partial core-charges read in
  atomic valenz-charges read in
  non local Contribution for L=           0  read in
    real space projection operators read in
  non local Contribution for L=           0  read in
    real space projection operators read in
  non local Contribution for L=           1  read in
    real space projection operators read in
  non local Contribution for L=           1  read in
    real space projection operators read in
  non local Contribution for L=           2  read in
    real space projection operators read in
    PAW grid and wavefunctions read in
 
   number of l-projection  operators is LMAX  =           5
   number of lm-projection operators is LMMAX =          13
 
 Optimization of the real space projectors (new method)

 maximal supplied QI-value         = 17.01
 optimisation between [QCUT,QGAM] = [ 11.91, 23.98] = [ 39.69,161.04] Ry 
 Optimized for a Real-space Cutoff    1.45 Angstroem

   l    n(q)    QCUT    max X(q) W(low)/X(q) W(high)/X(q)  e(spline) 
   1     10    11.905     4.550    0.27E-05    0.11E-05    0.28E-07
   1     10    11.905     5.234    0.10E-04    0.61E-04    0.17E-06
   2      9    11.905     3.960    0.19E-04    0.73E-05    0.50E-07
   2      9    11.905    29.565    0.24E-03    0.51E-04    0.27E-06
   0     10    11.905    23.582    0.17E-04    0.10E-05    0.14E-07
   0     10    11.905    39.747    0.23E-04    0.68E-05    0.74E-07
 Optimization of the real space projectors (new method)

 maximal supplied QI-value         = 17.95
 optimisation between [QCUT,QGAM] = [ 11.85, 23.88] = [ 39.31,159.64] Ry 
 Optimized for a Real-space Cutoff    1.18 Angstroem

   l    n(q)    QCUT    max X(q) W(low)/X(q) W(high)/X(q)  e(spline) 
   0      8    11.849     6.499    0.17E-04    0.94E-05    0.89E-08
   0      8    11.849    52.623    0.21E-03    0.78E-04    0.81E-07
   1      8    11.849     4.229    0.79E-04    0.83E-04    0.23E-07
   1      8    11.849    29.991    0.12E-03    0.43E-03    0.14E-06
   2      7    11.849     3.719    0.22E-03    0.64E-04    0.38E-07
 PAW_PBE Fe_pv 06Sep2000                :
 energy of atom  1       EATOM=-2456.8974
 kinetic energy error for atom=    0.0060 (will be added to EATOM!!)
 PAW_PBE Se 06Sep2000                   :
 energy of atom  2       EATOM= -256.9644
 kinetic energy error for atom=    0.0007 (will be added to EATOM!!)
 
 
 POSCAR: Fe8 Se8
  positions in direct lattice
  velocities in cartesian coordinates
 exchange correlation table for  LEXCH =        8
   RHO(1)=    0.500       N(1)  =     2000
   RHO(2)=  100.500       N(2)  =     4000
 


--------------------------------------------------------------------------------------------------------


 ion  position               nearest neighbor table
   1  0.958  0.000  1.000-   8 2.26   7 2.26  14 2.30   9 2.31  11 2.49  16 2.49   5 2.69   6 2.69

   2  0.042  0.500  0.000-   6 2.26   5 2.26  12 2.30  15 2.31  13 2.49  10 2.49   7 2.69   8 2.69

   3  0.458  0.000  1.000-   6 2.26   5 2.26  16 2.30  11 2.31   9 2.49  14 2.49   7 2.69   8 2.69

   4  0.542  0.500  0.000-   8 2.26   7 2.26  10 2.30  13 2.31  15 2.49  12 2.49   5 2.69   6 2.69

   5  0.250  0.250  0.000-   3 2.26   2 2.26   9 2.38  13 2.38  10 2.38  14 2.38   1 2.69   4 2.69

   6  0.250  0.750  0.000-   2 2.26   3 2.26  10 2.38  14 2.38   9 2.38  13 2.38   4 2.69   1 2.69

   7  0.750  0.250  0.000-   1 2.26   4 2.26  11 2.38  15 2.38  12 2.38  16 2.38   3 2.69   2 2.69

   8  0.750  0.750  0.000-   4 2.26   1 2.26  12 2.38  16 2.38  11 2.38  15 2.38   2 2.69   3 2.69

   9  0.260  0.060  0.738-   1 2.31   5 2.38   6 2.38   3 2.49
  10  0.379  0.559  0.738-   4 2.30   6 2.38   5 2.38   2 2.49
  11  0.760  0.060  0.738-   3 2.31   7 2.38   8 2.38   1 2.49
  12  0.879  0.559  0.738-   2 2.30   8 2.38   7 2.38   4 2.49
  13  0.240  0.440  0.262-   4 2.31   5 2.38   6 2.38   2 2.49
  14  0.121  0.941  0.262-   1 2.30   6 2.38   5 2.38   3 2.49
  15  0.740  0.440  0.262-   2 2.31   7 2.38   8 2.38   4 2.49
  16  0.621  0.941  0.262-   3 2.30   8 2.38   7 2.38   1 2.49
 
  LATTYP: Found a triclinic cell.
 ALAT       =     8.2032150610
 B/A-ratio  =     0.8694310196
 C/A-ratio  =     0.8323269986
 COS(alpha) =     0.0007536212
 COS(beta)  =     0.1881641314
 COS(gamma) =     0.6389593713
  
  Lattice vectors:
  
 A1 = (   3.8523651887,  -4.8622519420,  -5.3675437439)
 A2 = (   4.9487393826,  -5.0108674741,   1.1262587663)
 A3 = (  -4.7022993421,  -4.8613909401,  -0.9346281264)


Analysis of symmetry for initial positions (statically):
=====================================================================
 Subroutine PRICEL returns following result:
 
  LATTYP: Found a triclinic cell.
 ALAT       =     6.5288856156
 B/A-ratio  =     0.5461980845
 C/A-ratio  =     1.0457768404
 COS(alpha) =     0.0007536212
 COS(beta)  =     0.2360071021
 COS(gamma) =     0.2566220974
  
  Lattice vectors:
  
 A1 = (   1.3779954974,  -2.3568182049,  -5.9306731270)
 A2 = (   2.4743696913,  -2.5054337371,   0.5631293831)
 A3 = (  -4.7022993421,  -4.8613909401,  -0.9346281264)
 
   2 primitive cells build up your supercell.
 

 Routine SETGRP: Setting up the symmetry group for a 
 triclinic supercell.


 Subroutine GETGRP returns: Found  2 space group operations
 (whereof  1 operations were pure point group operations)
 out of a pool of  2 trial point group operations.


The static configuration has the point symmetry C_1 .
 The point group associated with its full space group is S_2 .


Analysis of symmetry for dynamics (positions and initial velocities):
=====================================================================
 Subroutine PRICEL returns following result:
 
  LATTYP: Found a triclinic cell.
 ALAT       =     6.5288856156
 B/A-ratio  =     0.5461980845
 C/A-ratio  =     1.0457768404
 COS(alpha) =     0.0007536212
 COS(beta)  =     0.2360071021
 COS(gamma) =     0.2566220974
  
  Lattice vectors:
  
 A1 = (   1.3779954974,  -2.3568182049,  -5.9306731270)
 A2 = (   2.4743696913,  -2.5054337371,   0.5631293831)
 A3 = (  -4.7022993421,  -4.8613909401,  -0.9346281264)
 
   2 primitive cells build up your supercell.
 

 Routine SETGRP: Setting up the symmetry group for a 
 triclinic supercell.


 Subroutine GETGRP returns: Found  2 space group operations
 (whereof  1 operations were pure point group operations)
 out of a pool of  2 trial point group operations.


The dynamic configuration has the point symmetry C_1 .
 The point group associated with its full space group is S_2 .


Analysis of structural, dynamic, and magnetic symmetry:
=====================================================================
 Subroutine PRICEL returns following result:
 
  LATTYP: Found a triclinic cell.
 ALAT       =     6.5288856156
 B/A-ratio  =     0.5461980845
 C/A-ratio  =     1.0457768404
 COS(alpha) =     0.0007536212
 COS(beta)  =     0.2360071021
 COS(gamma) =     0.2566220974
  
  Lattice vectors:
  
 A1 = (   1.3779954974,  -2.3568182049,  -5.9306731270)
 A2 = (   2.4743696913,  -2.5054337371,   0.5631293831)
 A3 = (  -4.7022993421,  -4.8613909401,  -0.9346281264)
 
   2 primitive cells build up your supercell.
 

 Routine SETGRP: Setting up the symmetry group for a 
 triclinic supercell.


 Subroutine GETGRP returns: Found  2 space group operations
 (whereof  1 operations were pure point group operations)
 out of a pool of  2 trial point group operations.


The overall configuration has the point symmetry C_1 .
 The point group associated with its full space group is S_2 .


 Subroutine INISYM returns: Found  2 space group operations
 (whereof  1 operations are pure point group operations),
 and found     2 'primitive' translations


----------------------------------------------------------------------------------------

                                     Primitive cell                                     

  volume of cell :     149.0000

  direct lattice vectors                    reciprocal lattice vectors
     1.377995497 -2.356818205 -5.930673127     0.034088865 -0.002250922 -0.159799851
     2.474369691 -2.505433737  0.563129383     0.178715248 -0.195810159  0.119338520
    -4.702299342 -4.861390940 -0.934628126    -0.108631558 -0.103695756  0.015967538

  length of vectors
     6.528885616  3.566064817  6.827757370     0.163410862  0.290727434  0.151025122

  position of ions in fractional coordinates (direct lattice)
     0.000374829  0.915738692  0.999787261
     0.999625171  0.084261308  0.500212739
     0.000000000  0.500000000  0.750000000
     0.000000000  0.500000000  0.250000000
     0.262338852  0.257905734  0.940310066
     0.261720031  0.497026688  0.440594162
     0.737661148  0.742094266  0.559689934
     0.738279969  0.502973312  0.059405838

  ion indices of the primitive-cell ions
   primitive index   ion index
                 1           1
                 2           2
                 3           7
                 4           8
                 5          11
                 6          12
                 7          15
                 8          14

----------------------------------------------------------------------------------------

 
 
 KPOINTS: KPOINTS                                 

Automatic generation of k-mesh.
 Grid dimensions read from file:
 generate k-points for:    7    7    9

 Generating k-lattice:

  Cartesian coordinates                     Fractional coordinates (reciprocal lattice)
     0.015200294 -0.014147220 -0.002890095     0.142857143 -0.000000000 -0.000000000
     0.015518794  0.014813679 -0.002281077     0.000000000  0.142857143 -0.000000000
    -0.003787652  0.000250102  0.017755539     0.000000000 -0.000000000  0.111111111

  Length of vectors
     0.020965339  0.021575017  0.018156762

  Shift w.r.t. Gamma in fractional coordinates (k-lattice)
     0.000000000  0.000000000  0.000000000

 TETIRR: Found   1320 inequivalent tetrahedra from     2646
 
 Subroutine IBZKPT returns following result:
 ===========================================
 
 Found    221 irreducible k-points:
 
 Following reciprocal coordinates:
            Coordinates               Weight
  0.000000  0.000000  0.000000      1.000000
  0.142857 -0.000000 -0.000000      2.000000
  0.285714 -0.000000  0.000000      2.000000
  0.428571 -0.000000  0.000000      2.000000
  0.000000  0.142857 -0.000000      2.000000
  0.142857  0.142857  0.000000      2.000000
  0.285714  0.142857  0.000000      2.000000
  0.428571  0.142857 -0.000000      2.000000
 -0.428571  0.142857  0.000000      2.000000
 -0.285714  0.142857  0.000000      2.000000
 -0.142857  0.142857 -0.000000      2.000000
  0.000000  0.285714  0.000000      2.000000
  0.142857  0.285714 -0.000000      2.000000
  0.285714  0.285714 -0.000000      2.000000
  0.428571  0.285714  0.000000      2.000000
 -0.428571  0.285714  0.000000      2.000000
 -0.285714  0.285714 -0.000000      2.000000
 -0.142857  0.285714  0.000000      2.000000
 -0.000000  0.428571 -0.000000      2.000000
  0.142857  0.428571 -0.000000      2.000000
  0.285714  0.428571  0.000000      2.000000
  0.428571  0.428571 -0.000000      2.000000
 -0.428571  0.428571 -0.000000      2.000000
 -0.285714  0.428571  0.000000      2.000000
 -0.142857  0.428571  0.000000      2.000000
 -0.000000  0.000000  0.111111      2.000000
  0.142857  0.000000  0.111111      2.000000
  0.285714 -0.000000  0.111111      2.000000
  0.428571 -0.000000  0.111111      2.000000
 -0.428571  0.000000  0.111111      2.000000
 -0.285714  0.000000  0.111111      2.000000
 -0.142857  0.000000  0.111111      2.000000
  0.000000  0.142857  0.111111      2.000000
  0.142857  0.142857  0.111111      2.000000
  0.285714  0.142857  0.111111      2.000000
  0.428571  0.142857  0.111111      2.000000
 -0.428571  0.142857  0.111111      2.000000
 -0.285714  0.142857  0.111111      2.000000
 -0.142857  0.142857  0.111111      2.000000
  0.000000  0.285714  0.111111      2.000000
  0.142857  0.285714  0.111111      2.000000
  0.285714  0.285714  0.111111      2.000000
  0.428571  0.285714  0.111111      2.000000
 -0.428571  0.285714  0.111111      2.000000
 -0.285714  0.285714  0.111111      2.000000
 -0.142857  0.285714  0.111111      2.000000
 -0.000000  0.428571  0.111111      2.000000
  0.142857  0.428571  0.111111      2.000000
  0.285714  0.428571  0.111111      2.000000
  0.428571  0.428571  0.111111      2.000000
 -0.428571  0.428571  0.111111      2.000000
 -0.285714  0.428571  0.111111      2.000000
 -0.142857  0.428571  0.111111      2.000000
  0.000000 -0.428571  0.111111      2.000000
  0.142857 -0.428571  0.111111      2.000000
  0.285714 -0.428571  0.111111      2.000000
  0.428571 -0.428571  0.111111      2.000000
 -0.428571 -0.428571  0.111111      2.000000
 -0.285714 -0.428571  0.111111      2.000000
 -0.142857 -0.428571  0.111111      2.000000
 -0.000000 -0.285714  0.111111      2.000000
  0.142857 -0.285714  0.111111      2.000000
  0.285714 -0.285714  0.111111      2.000000
  0.428571 -0.285714  0.111111      2.000000
 -0.428571 -0.285714  0.111111      2.000000
 -0.285714 -0.285714  0.111111      2.000000
 -0.142857 -0.285714  0.111111      2.000000
 -0.000000 -0.142857  0.111111      2.000000
  0.142857 -0.142857  0.111111      2.000000
  0.285714 -0.142857  0.111111      2.000000
  0.428571 -0.142857  0.111111      2.000000
 -0.428571 -0.142857  0.111111      2.000000
 -0.285714 -0.142857  0.111111      2.000000
 -0.142857 -0.142857  0.111111      2.000000
  0.000000  0.000000  0.222222      2.000000
  0.142857 -0.000000  0.222222      2.000000
  0.285714 -0.000000  0.222222      2.000000
  0.428571 -0.000000  0.222222      2.000000
 -0.428571  0.000000  0.222222      2.000000
 -0.285714  0.000000  0.222222      2.000000
 -0.142857  0.000000  0.222222      2.000000
  0.000000  0.142857  0.222222      2.000000
  0.142857  0.142857  0.222222      2.000000
  0.285714  0.142857  0.222222      2.000000
  0.428571  0.142857  0.222222      2.000000
 -0.428571  0.142857  0.222222      2.000000
 -0.285714  0.142857  0.222222      2.000000
 -0.142857  0.142857  0.222222      2.000000
  0.000000  0.285714  0.222222      2.000000
  0.142857  0.285714  0.222222      2.000000
  0.285714  0.285714  0.222222      2.000000
  0.428571  0.285714  0.222222      2.000000
 -0.428571  0.285714  0.222222      2.000000
 -0.285714  0.285714  0.222222      2.000000
 -0.142857  0.285714  0.222222      2.000000
  0.000000  0.428571  0.222222      2.000000
  0.142857  0.428571  0.222222      2.000000
  0.285714  0.428571  0.222222      2.000000
  0.428571  0.428571  0.222222      2.000000
 -0.428571  0.428571  0.222222      2.000000
 -0.285714  0.428571  0.222222      2.000000
 -0.142857  0.428571  0.222222      2.000000
 -0.000000 -0.428571  0.222222      2.000000
  0.142857 -0.428571  0.222222      2.000000
  0.285714 -0.428571  0.222222      2.000000
  0.428571 -0.428571  0.222222      2.000000
 -0.428571 -0.428571  0.222222      2.000000
 -0.285714 -0.428571  0.222222      2.000000
 -0.142857 -0.428571  0.222222      2.000000
 -0.000000 -0.285714  0.222222      2.000000
  0.142857 -0.285714  0.222222      2.000000
  0.285714 -0.285714  0.222222      2.000000
  0.428571 -0.285714  0.222222      2.000000
 -0.428571 -0.285714  0.222222      2.000000
 -0.285714 -0.285714  0.222222      2.000000
 -0.142857 -0.285714  0.222222      2.000000
 -0.000000 -0.142857  0.222222      2.000000
  0.142857 -0.142857  0.222222      2.000000
  0.285714 -0.142857  0.222222      2.000000
  0.428571 -0.142857  0.222222      2.000000
 -0.428571 -0.142857  0.222222      2.000000
 -0.285714 -0.142857  0.222222      2.000000
 -0.142857 -0.142857  0.222222      2.000000
  0.000000  0.000000  0.333333      2.000000
  0.142857 -0.000000  0.333333      2.000000
  0.285714 -0.000000  0.333333      2.000000
  0.428571 -0.000000  0.333333      2.000000
 -0.428571  0.000000  0.333333      2.000000
 -0.285714 -0.000000  0.333333      2.000000
 -0.142857  0.000000  0.333333      2.000000
  0.000000  0.142857  0.333333      2.000000
  0.142857  0.142857  0.333333      2.000000
  0.285714  0.142857  0.333333      2.000000
  0.428571  0.142857  0.333333      2.000000
 -0.428571  0.142857  0.333333      2.000000
 -0.285714  0.142857  0.333333      2.000000
 -0.142857  0.142857  0.333333      2.000000
  0.000000  0.285714  0.333333      2.000000
  0.142857  0.285714  0.333333      2.000000
  0.285714  0.285714  0.333333      2.000000
  0.428571  0.285714  0.333333      2.000000
 -0.428571  0.285714  0.333333      2.000000
 -0.285714  0.285714  0.333333      2.000000
 -0.142857  0.285714  0.333333      2.000000
  0.000000  0.428571  0.333333      2.000000
  0.142857  0.428571  0.333333      2.000000
  0.285714  0.428571  0.333333      2.000000
  0.428571  0.428571  0.333333      2.000000
 -0.428571  0.428571  0.333333      2.000000
 -0.285714  0.428571  0.333333      2.000000
 -0.142857  0.428571  0.333333      2.000000
 -0.000000 -0.428571  0.333333      2.000000
  0.142857 -0.428571  0.333333      2.000000
  0.285714 -0.428571  0.333333      2.000000
  0.428571 -0.428571  0.333333      2.000000
 -0.428571 -0.428571  0.333333      2.000000
 -0.285714 -0.428571  0.333333      2.000000
 -0.142857 -0.428571  0.333333      2.000000
 -0.000000 -0.285714  0.333333      2.000000
  0.142857 -0.285714  0.333333      2.000000
  0.285714 -0.285714  0.333333      2.000000
  0.428571 -0.285714  0.333333      2.000000
 -0.428571 -0.285714  0.333333      2.000000
 -0.285714 -0.285714  0.333333      2.000000
 -0.142857 -0.285714  0.333333      2.000000
 -0.000000 -0.142857  0.333333      2.000000
  0.142857 -0.142857  0.333333      2.000000
  0.285714 -0.142857  0.333333      2.000000
  0.428571 -0.142857  0.333333      2.000000
 -0.428571 -0.142857  0.333333      2.000000
 -0.285714 -0.142857  0.333333      2.000000
 -0.142857 -0.142857  0.333333      2.000000
  0.000000  0.000000  0.444444      2.000000
  0.142857  0.000000  0.444444      2.000000
  0.285714 -0.000000  0.444444      2.000000
  0.428571 -0.000000  0.444444      2.000000
 -0.428571  0.000000  0.444444      2.000000
 -0.285714  0.000000  0.444444      2.000000
 -0.142857  0.000000  0.444444      2.000000
  0.000000  0.142857  0.444444      2.000000
  0.142857  0.142857  0.444444      2.000000
  0.285714  0.142857  0.444444      2.000000
  0.428571  0.142857  0.444444      2.000000
 -0.428571  0.142857  0.444444      2.000000
 -0.285714  0.142857  0.444444      2.000000
 -0.142857  0.142857  0.444444      2.000000
 -0.000000  0.285714  0.444444      2.000000
  0.142857  0.285714  0.444444      2.000000
  0.285714  0.285714  0.444444      2.000000
  0.428571  0.285714  0.444444      2.000000
 -0.428571  0.285714  0.444444      2.000000
 -0.285714  0.285714  0.444444      2.000000
 -0.142857  0.285714  0.444444      2.000000
  0.000000  0.428571  0.444444      2.000000
  0.142857  0.428571  0.444444      2.000000
  0.285714  0.428571  0.444444      2.000000
  0.428571  0.428571  0.444444      2.000000
 -0.428571  0.428571  0.444444      2.000000
 -0.285714  0.428571  0.444444      2.000000
 -0.142857  0.428571  0.444444      2.000000
 -0.000000 -0.428571  0.444444      2.000000
  0.142857 -0.428571  0.444444      2.000000
  0.285714 -0.428571  0.444444      2.000000
  0.428571 -0.428571  0.444444      2.000000
 -0.428571 -0.428571  0.444444      2.000000
 -0.285714 -0.428571  0.444444      2.000000
 -0.142857 -0.428571  0.444444      2.000000
 -0.000000 -0.285714  0.444444      2.000000
  0.142857 -0.285714  0.444444      2.000000
  0.285714 -0.285714  0.444444      2.000000
  0.428571 -0.285714  0.444444      2.000000
 -0.428571 -0.285714  0.444444      2.000000
 -0.285714 -0.285714  0.444444      2.000000
 -0.142857 -0.285714  0.444444      2.000000
 -0.000000 -0.142857  0.444444      2.000000
  0.142857 -0.142857  0.444444      2.000000
  0.285714 -0.142857  0.444444      2.000000
  0.428571 -0.142857  0.444444      2.000000
 -0.428571 -0.142857  0.444444      2.000000
 -0.285714 -0.142857  0.444444      2.000000
 -0.142857 -0.142857  0.444444      2.000000
 
 Following cartesian coordinates:
            Coordinates               Weight
  0.000000  0.000000  0.000000      1.000000
  0.015200 -0.014147 -0.002890      2.000000
  0.030401 -0.028294 -0.005780      2.000000
  0.045601 -0.042442 -0.008670      2.000000
  0.015519  0.014814 -0.002281      2.000000
  0.030719  0.000666 -0.005171      2.000000
  0.045919 -0.013481 -0.008061      2.000000
  0.061120 -0.027628 -0.010951      2.000000
 -0.030082  0.057255  0.006389      2.000000
 -0.014882  0.043108  0.003499      2.000000
  0.000319  0.028961  0.000609      2.000000
  0.031038  0.029627 -0.004562      2.000000
  0.046238  0.015480 -0.007452      2.000000
  0.061438  0.001333 -0.010342      2.000000
  0.076638 -0.012814 -0.013232      2.000000
 -0.014563  0.072069  0.004108      2.000000
  0.000637  0.057922  0.001218      2.000000
  0.015837  0.043775 -0.001672      2.000000
  0.046556  0.044441 -0.006843      2.000000
  0.061757  0.030294 -0.009733      2.000000
  0.076957  0.016147 -0.012623      2.000000
  0.092157  0.001999 -0.015514      2.000000
  0.000956  0.086883  0.001827      2.000000
  0.016156  0.072735 -0.001063      2.000000
  0.031356  0.058588 -0.003953      2.000000
 -0.003788  0.000250  0.017756      2.000000
  0.011413 -0.013897  0.014865      2.000000
  0.026613 -0.028044  0.011975      2.000000
  0.041813 -0.042192  0.009085      2.000000
 -0.049389  0.042692  0.026426      2.000000
 -0.034188  0.028545  0.023536      2.000000
 -0.018988  0.014397  0.020646      2.000000
  0.011731  0.015064  0.015474      2.000000
  0.026931  0.000917  0.012584      2.000000
  0.042132 -0.013231  0.009694      2.000000
  0.057332 -0.027378  0.006804      2.000000
 -0.033870  0.057505  0.024145      2.000000
 -0.018669  0.043358  0.021255      2.000000
 -0.003469  0.029211  0.018365      2.000000
  0.027250  0.029877  0.013193      2.000000
  0.042450  0.015730  0.010303      2.000000
  0.057651  0.001583  0.007413      2.000000
  0.072851 -0.012564  0.004523      2.000000
 -0.018351  0.072319  0.021864      2.000000
 -0.003151  0.058172  0.018974      2.000000
  0.012050  0.044025  0.016083      2.000000
  0.042769  0.044691  0.010912      2.000000
  0.057969  0.030544  0.008022      2.000000
  0.073169  0.016397  0.005132      2.000000
  0.088370  0.002249  0.002242      2.000000
 -0.002832  0.087133  0.019583      2.000000
  0.012368  0.072986  0.016692      2.000000
  0.027568  0.058838  0.013802      2.000000
 -0.050344 -0.044191  0.024599      2.000000
 -0.035144 -0.058338  0.021709      2.000000
 -0.019943 -0.072485  0.018819      2.000000
 -0.004743 -0.086633  0.015928      2.000000
 -0.095945 -0.001749  0.033269      2.000000
 -0.080745 -0.015896  0.030379      2.000000
 -0.065544 -0.030044  0.027489      2.000000
 -0.034825 -0.029377  0.022318      2.000000
 -0.019625 -0.043524  0.019428      2.000000
 -0.004425 -0.057672  0.016538      2.000000
  0.010776 -0.071819  0.013647      2.000000
 -0.080426  0.013064  0.030988      2.000000
 -0.065226 -0.001083  0.028098      2.000000
 -0.050026 -0.015230  0.025208      2.000000
 -0.019306 -0.014564  0.020037      2.000000
 -0.004106 -0.028711  0.017147      2.000000
  0.011094 -0.042858  0.014256      2.000000
  0.026294 -0.057005  0.011366      2.000000
 -0.064907  0.027878  0.028707      2.000000
 -0.049707  0.013731  0.025817      2.000000
 -0.034507 -0.000416  0.022927      2.000000
 -0.007575  0.000500  0.035511      2.000000
  0.007625 -0.013647  0.032621      2.000000
  0.022825 -0.027794  0.029731      2.000000
  0.038026 -0.041941  0.026841      2.000000
 -0.053176  0.042942  0.044181      2.000000
 -0.037976  0.028795  0.041291      2.000000
 -0.022776  0.014647  0.038401      2.000000
  0.007943  0.015314  0.033230      2.000000
  0.023144  0.001167  0.030340      2.000000
  0.038344 -0.012981  0.027450      2.000000
  0.053544 -0.027128  0.024560      2.000000
 -0.037657  0.057756  0.041900      2.000000
 -0.022457  0.043608  0.039010      2.000000
 -0.007257  0.029461  0.036120      2.000000
  0.023462  0.030128  0.030949      2.000000
  0.038663  0.015980  0.028059      2.000000
  0.053863  0.001833  0.025169      2.000000
  0.069063 -0.012314  0.022279      2.000000
 -0.022139  0.072569  0.039619      2.000000
 -0.006938  0.058422  0.036729      2.000000
  0.008262  0.044275  0.033839      2.000000
  0.038981  0.044941  0.028668      2.000000
  0.054181  0.030794  0.025778      2.000000
  0.069382  0.016647  0.022888      2.000000
  0.084582  0.002500  0.019998      2.000000
 -0.006620  0.087383  0.037338      2.000000
  0.008580  0.073236  0.034448      2.000000
  0.023781  0.059088  0.031558      2.000000
 -0.054132 -0.043941  0.042354      2.000000
 -0.038931 -0.058088  0.039464      2.000000
 -0.023731 -0.072235  0.036574      2.000000
 -0.008531 -0.086382  0.033684      2.000000
 -0.099733 -0.001499  0.051025      2.000000
 -0.084532 -0.015646  0.048134      2.000000
 -0.069332 -0.029794  0.045244      2.000000
 -0.038613 -0.029127  0.040073      2.000000
 -0.023413 -0.043274  0.037183      2.000000
 -0.008212 -0.057422  0.034293      2.000000
  0.006988 -0.071569  0.031403      2.000000
 -0.084214  0.013315  0.048744      2.000000
 -0.069013 -0.000833  0.045853      2.000000
 -0.053813 -0.014980  0.042963      2.000000
 -0.023094 -0.014313  0.037792      2.000000
 -0.007894 -0.028461  0.034902      2.000000
  0.007306 -0.042608  0.032012      2.000000
  0.022507 -0.056755  0.029122      2.000000
 -0.068695  0.028128  0.046462      2.000000
 -0.053495  0.013981  0.043572      2.000000
 -0.038294 -0.000166  0.040682      2.000000
 -0.011363  0.000750  0.053267      2.000000
  0.003837 -0.013397  0.050377      2.000000
  0.019038 -0.027544  0.047486      2.000000
  0.034238 -0.041691  0.044596      2.000000
 -0.056964  0.043192  0.061937      2.000000
 -0.041764  0.029045  0.059047      2.000000
 -0.026563  0.014898  0.056157      2.000000
  0.004156  0.015564  0.050986      2.000000
  0.019356  0.001417  0.048095      2.000000
  0.034556 -0.012730  0.045205      2.000000
  0.049757 -0.026878  0.042315      2.000000
 -0.041445  0.058006  0.059656      2.000000
 -0.026245  0.043858  0.056766      2.000000
 -0.011044  0.029711  0.053876      2.000000
  0.019675  0.030378  0.048704      2.000000
  0.034875  0.016230  0.045814      2.000000
  0.050075  0.002083  0.042924      2.000000
  0.065276 -0.012064  0.040034      2.000000
 -0.025926  0.072819  0.057375      2.000000
 -0.010726  0.058672  0.054485      2.000000
  0.004474  0.044525  0.051595      2.000000
  0.035193  0.045191  0.046423      2.000000
  0.050394  0.031044  0.043533      2.000000
  0.065594  0.016897  0.040643      2.000000
  0.080794  0.002750  0.037753      2.000000
 -0.010407  0.087633  0.055094      2.000000
  0.004793  0.073486  0.052204      2.000000
  0.019993  0.059339  0.049313      2.000000
 -0.057919 -0.043691  0.060110      2.000000
 -0.042719 -0.057838  0.057220      2.000000
 -0.027519 -0.071985  0.054330      2.000000
 -0.012318 -0.086132  0.051440      2.000000
 -0.103520 -0.001249  0.068780      2.000000
 -0.088320 -0.015396  0.065890      2.000000
 -0.073120 -0.029544  0.063000      2.000000
 -0.042401 -0.028877  0.057829      2.000000
 -0.027200 -0.043024  0.054939      2.000000
 -0.012000 -0.057171  0.052049      2.000000
  0.003200 -0.071319  0.049158      2.000000
 -0.088001  0.013565  0.066499      2.000000
 -0.072801 -0.000583  0.063609      2.000000
 -0.057601 -0.014730  0.060719      2.000000
 -0.026882 -0.014063  0.055548      2.000000
 -0.011681 -0.028211  0.052658      2.000000
  0.003519 -0.042358  0.049768      2.000000
  0.018719 -0.056505  0.046877      2.000000
 -0.072483  0.028378  0.064218      2.000000
 -0.057282  0.014231  0.061328      2.000000
 -0.042082  0.000084  0.058438      2.000000
 -0.015151  0.001000  0.071022      2.000000
  0.000050 -0.013147  0.068132      2.000000
  0.015250 -0.027294  0.065242      2.000000
  0.030450 -0.041441  0.062352      2.000000
 -0.060751  0.043442  0.079692      2.000000
 -0.045551  0.029295  0.076802      2.000000
 -0.030351  0.015148  0.073912      2.000000
  0.000368  0.015814  0.068741      2.000000
  0.015568  0.001667  0.065851      2.000000
  0.030769 -0.012480  0.062961      2.000000
  0.045969 -0.026628  0.060071      2.000000
 -0.045233  0.058256  0.077411      2.000000
 -0.030032  0.044109  0.074521      2.000000
 -0.014832  0.029961  0.071631      2.000000
  0.015887  0.030628  0.066460      2.000000
  0.031087  0.016481  0.063570      2.000000
  0.046288  0.002333  0.060680      2.000000
  0.061488 -0.011814  0.057790      2.000000
 -0.029714  0.073069  0.075130      2.000000
 -0.014514  0.058922  0.072240      2.000000
  0.000687  0.044775  0.069350      2.000000
  0.031406  0.045441  0.064179      2.000000
  0.046606  0.031294  0.061289      2.000000
  0.061806  0.017147  0.058399      2.000000
  0.077007  0.003000  0.055509      2.000000
 -0.014195  0.087883  0.072849      2.000000
  0.001005  0.073736  0.069959      2.000000
  0.016205  0.059589  0.067069      2.000000
 -0.061707 -0.043441  0.077865      2.000000
 -0.046507 -0.057588  0.074975      2.000000
 -0.031306 -0.071735  0.072085      2.000000
 -0.016106 -0.085882  0.069195      2.000000
 -0.107308 -0.000999  0.086536      2.000000
 -0.092108 -0.015146  0.083646      2.000000
 -0.076907 -0.029293  0.080755      2.000000
 -0.046188 -0.028627  0.075584      2.000000
 -0.030988 -0.042774  0.072694      2.000000
 -0.015788 -0.056921  0.069804      2.000000
 -0.000587 -0.071069  0.066914      2.000000
 -0.091789  0.013815  0.084255      2.000000
 -0.076589 -0.000333  0.081364      2.000000
 -0.061388 -0.014480  0.078474      2.000000
 -0.030669 -0.013813  0.073303      2.000000
 -0.015469 -0.027960  0.070413      2.000000
 -0.000269 -0.042108  0.067523      2.000000
  0.014931 -0.056255  0.064633      2.000000
 -0.076270  0.028628  0.081974      2.000000
 -0.061070  0.014481  0.079083      2.000000
 -0.045870  0.000334  0.076193      2.000000
 


--------------------------------------------------------------------------------------------------------




 Dimension of arrays:
   k-points           NKPTS =    221   k-points in BZ     NKDIM =    221   number of bands    NBANDS=     96
   number of dos      NEDOS =    301   number of ions     NIONS =     16
   non local maximal  LDIM  =      6   non local SUM 2l+1 LMDIM =     18
   total plane-waves  NPLWV = 151200
   max r-space proj   IRMAX =   6501   max aug-charges    IRDMAX=  22324
   dimension x,y,z NGX =    56 NGY =   54 NGZ =   50
   dimension x,y,z NGXF=   112 NGYF=  108 NGZF=  100
   support grid    NGXF=   112 NGYF=  108 NGZF=  100
   ions per type =               8   8
   NGX,Y,Z   is equivalent  to a cutoff of  13.05, 13.15, 12.62 a.u.
   NGXF,Y,Z  is equivalent  to a cutoff of  26.11, 26.30, 25.24 a.u.

 SYSTEM =  unknown system                          
 POSCAR =  Fe8 Se8                                 

 Startparameter for this run:
   NWRITE =      2    write-flag & timer
   PREC   = accura    normal or accurate (medium, high low for compatibility)
   ISTART =      0    job   : 0-new  1-cont  2-samecut
   ICHARG =      2    charge: 1-file 2-atom 10-const
   ISPIN  =      2    spin polarized calculation?
   LNONCOLLINEAR =      F non collinear calculations
   LSORBIT =      F    spin-orbit coupling
   INIWAV =      1    electr: 0-lowe 1-rand  2-diag
   LASPH  =      T    aspherical Exc in radial PAW
 Electronic Relaxation 1
   ENCUT  =  550.0 eV  40.42 Ry    6.36 a.u.  13.64 13.06 12.60*2*pi/ulx,y,z
   ENINI  =  550.0     initial cutoff
   ENAUG  =  578.3 eV  augmentation charge cutoff
   NELM   =    100;   NELMIN=  2; NELMDL=  0     # of ELM steps 
   EDIFF  = 0.2E-03   stopping-criterion for ELM
   LREAL  =      T    real-space projection
   NLSPLINE    = F    spline interpolate recip. space projectors
   LCOMPAT=      F    compatible to vasp.4.4
   GGA_COMPAT  = T    GGA compatible to vasp.4.4-vasp.4.6
   LMAXPAW     = -100 max onsite density
   LMAXMIX     =    4 max onsite mixed and CHGCAR
   VOSKOWN=      0    Vosko Wilk Nusair interpolation
   ROPT   =   -0.00025  -0.00025
 Ionic relaxation
   EDIFFG = 0.2E-02   stopping-criterion for IOM
   NSW    =      0    number of steps for IOM
   NBLOCK =      1;   KBLOCK =      1    inner block; outer block 
   IBRION =     -1    ionic relax: 0-MD 1-quasi-New 2-CG
   NFREE  =      0    steps in history (QN), initial steepest desc. (CG)
   ISIF   =      4    stress and relaxation
   IWAVPR =     10    prediction:  0-non 1-charg 2-wave 3-comb
   ISYM   =      2    0-nonsym 1-usesym 2-fastsym
   LCORR  =      T    Harris-Foulkes like correction to forces

   POTIM  = 0.5000    time-step for ionic-motion
   TEIN   =    0.0    initial temperature
   TEBEG  =    0.0;   TEEND  =   0.0 temperature during run
   SMASS  =  -3.00    Nose mass-parameter (am)
   estimated Nose-frequenzy (Omega)   =  0.10E-29 period in steps = 0.13E+47 mass=  -0.116E-26a.u.
   SCALEE = 1.0000    scale energy and forces
   NPACO  =    256;   APACO  = 10.0  distance and # of slots for P.C.
   PSTRESS=    0.0 pullay stress

  Mass of Ions in am
   POMASS =  55.85 78.96
  Ionic Valenz
   ZVAL   =  14.00  6.00
  Atomic Wigner-Seitz radii
   RWIGS  =  -1.00 -1.00
  virtual crystal weights 
   VCA    =   1.00  1.00
   NELECT =     160.0000    total number of electrons
   NUPDOWN=      -1.0000    fix difference up-down

 DOS related values:
   EMIN   =  10.00;   EMAX   =-10.00  energy-range for DOS
   EFERMI =   0.00;   METHOD = LEGACY      
   ISMEAR =    -5;   SIGMA  =   0.05  broadening in eV -4-tet -1-fermi 0-gaus

 Electronic relaxation 2 (details)
   IALGO  =     68    algorithm
   LDIAG  =      T    sub-space diagonalisation (order eigenvalues)
   LSUBROT=      F    optimize rotation matrix (better conditioning)
   TURBO    =      0    0=normal 1=particle mesh
   IRESTART =      0    0=no restart 2=restart with 2 vectors
   NREBOOT  =      0    no. of reboots
   NMIN     =      0    reboot dimension
   EREF     =   0.00    reference energy to select bands
   IMIX   =      4    mixing-type and parameters
     AMIX     =   0.40;   BMIX     =  1.00
     AMIX_MAG =   1.60;   BMIX_MAG =  1.00
     AMIN     =   0.10
     WC   =   100.;   INIMIX=   1;  MIXPRE=   1;  MAXMIX= -45

 Intra band minimization:
   WEIMIN = 0.0000     energy-eigenvalue tresh-hold
   EBREAK =  0.52E-06  absolut break condition
   DEPER  =   0.30     relativ break condition  

   TIME   =   0.40     timestep for ELM

  volume/ion in A,a.u.               =      18.62       125.69
  Fermi-wavevector in a.u.,A,eV,Ry     =   1.330585  2.514442 24.088535  1.770457
  Thomas-Fermi vector in A             =   2.459661
 
 Write flags
   LWAVE        =      F    write WAVECAR
   LDOWNSAMPLE  =      F    k-point downsampling of WAVECAR
   LCHARG       =      T    write CHGCAR
   LVTOT        =      F    write LOCPOT, total local potential
   LVHAR        =      F    write LOCPOT, Hartree potential only
   LELF         =      F    write electronic localiz. function (ELF)
   LORBIT       =     11    0 simple, 1 ext, 2 COOP (PROOUT), +10 PAW based schemes


 Dipole corrections
   LMONO  =      F    monopole corrections only (constant potential shift)
   LDIPOL =      F    correct potential (dipole corrections)
   IDIPOL =      0    1-x, 2-y, 3-z, 4-all directions 
   EPSILON=  1.0000000 bulk dielectric constant

 Exchange correlation treatment:
   GGA     =    --    GGA type
   LEXCH   =     8    internal setting for exchange type
   LIBXC   =     F    Libxc                    
   VOSKOWN =     0    Vosko Wilk Nusair interpolation
   LHFCALC =     F    Hartree Fock is set to
   LHFONE  =     F    Hartree Fock one center treatment
   AEXX    =    0.0000 exact exchange contribution

 Linear response parameters
   LEPSILON=     F    determine dielectric tensor
   LRPA    =     F    only Hartree local field effects (RPA)
   LNABLA  =     F    use nabla operator in PAW spheres
   LVEL    =     F    velocity operator in full k-point grid
   CSHIFT  =0.1000    complex shift for real part using Kramers Kronig
   OMEGAMAX=  -1.0    maximum frequency
   DEG_THRESHOLD= 0.2000000E-02 threshold for treating states as degnerate
   RTIME   =   -0.100 relaxation time in fs
  (WPLASMAI=    0.000 imaginary part of plasma frequency in eV, 0.658/RTIME)
   DFIELD  = 0.0000000 0.0000000 0.0000000 field for delta impulse in time
 
  Optional k-point grid parameters
   LKPOINTS_OPT  =     F    use optional k-point grid
   KPOINTS_OPT_MODE=     1    mode for optional k-point grid
 
 Orbital magnetization related:
   ORBITALMAG=     F  switch on orbital magnetization
   LCHIMAG   =     F  perturbation theory with respect to B field
   DQ        =  0.001000  dq finite difference perturbation B field
   LLRAUG    =     F  two centre corrections for induced B field
   LBONE     =     F  B-component reconstruction in AE one-centre
   LVGVCALC  =     T  calculate vGv susceptibility
   LVGVAPPL  =     F  apply vGv susceptibility instead of pGv for G=0

 Random number generation:
   RANDOM_GENERATOR = DEFAULT
   PCG_SEED         = not used


--------------------------------------------------------------------------------------------------------


 Static calculation
 charge density and potential will be updated during run
 spin polarized calculation
 RMM-DIIS sequential band-by-band and
  variant of blocked Davidson during initial phase
 perform sub-space diagonalisation
    before iterative eigenvector-optimisation
 modified Broyden-mixing scheme, WC =      100.0
 initial mixing is a Kerker type mixing with AMIX =  0.4000 and BMIX =      1.0000
 Hartree-type preconditioning will be used
 using additional bands           16
 real space projection scheme for non local part
 use partial core corrections
 calculate Harris-corrections to forces 
   (improved forces if not selfconsistent)
 use gradient corrections 
 use of overlap-Matrix (Vanderbilt PP)
 Fermi weights with tetrahedron method with Bloechl corrections


--------------------------------------------------------------------------------------------------------


  energy-cutoff  :      550.00
  volume of cell :      298.00
      direct lattice vectors                 reciprocal lattice vectors
     4.948739383 -5.010867474  1.126258766     0.106402057 -0.099030541 -0.020230665
     4.702299342  4.861390940  0.934628126     0.108631558  0.103695756 -0.015967538
     1.096374194 -0.148615532  6.493802510    -0.034088865  0.002250922  0.159799851

  length of vectors
     7.132129635  6.827757370  6.587381421     0.146757370  0.151025122  0.163410862


 
 k-points in units of 2pi/SCALE and weight: KPOINTS                                 
   0.00000000  0.00000000  0.00000000       0.002
   0.01520029 -0.01414722 -0.00289010       0.005
   0.03040059 -0.02829444 -0.00578019       0.005
   0.04560088 -0.04244166 -0.00867029       0.005
   0.01551879  0.01481368 -0.00228108       0.005
   0.03071909  0.00066646 -0.00517117       0.005
   0.04591938 -0.01348076 -0.00806127       0.005
   0.06111968 -0.02762798 -0.01095136       0.005
  -0.03008209  0.05725534  0.00638921       0.005
  -0.01488179  0.04310812  0.00349911       0.005
   0.00031850  0.02896090  0.00060902       0.005
   0.03103759  0.02962736 -0.00456215       0.005
   0.04623788  0.01548014 -0.00745225       0.005
   0.06143818  0.00133292 -0.01034234       0.005
   0.07663847 -0.01281430 -0.01323244       0.005
  -0.01456329  0.07206902  0.00410813       0.005
   0.00063700  0.05792180  0.00121804       0.005
   0.01583729  0.04377458 -0.00167206       0.005
   0.04655638  0.04444104 -0.00684323       0.005
   0.06175668  0.03029382 -0.00973333       0.005
   0.07695697  0.01614660 -0.01262342       0.005
   0.09215726  0.00199938 -0.01551352       0.005
   0.00095550  0.08688270  0.00182705       0.005
   0.01615579  0.07273548 -0.00106304       0.005
   0.03135609  0.05858826 -0.00395314       0.005
  -0.00378765  0.00025010  0.01775554       0.005
   0.01141264 -0.01389712  0.01486544       0.005
   0.02661294 -0.02804434  0.01197535       0.005
   0.04181323 -0.04219156  0.00908525       0.005
  -0.04938853  0.04269176  0.02642582       0.005
  -0.03418824  0.02854454  0.02353573       0.005
  -0.01898795  0.01439732  0.02064563       0.005
   0.01173114  0.01506378  0.01547446       0.005
   0.02693144  0.00091656  0.01258437       0.005
   0.04213173 -0.01323066  0.00969427       0.005
   0.05733202 -0.02737788  0.00680418       0.005
  -0.03386974  0.05750544  0.02414475       0.005
  -0.01866945  0.04335822  0.02125465       0.005
  -0.00346915  0.02921100  0.01836456       0.005
   0.02724994  0.02987746  0.01319339       0.005
   0.04245023  0.01573024  0.01030329       0.005
   0.05765052  0.00158302  0.00741320       0.005
   0.07285082 -0.01256420  0.00452310       0.005
  -0.01835095  0.07231912  0.02186367       0.005
  -0.00315065  0.05817190  0.01897358       0.005
   0.01204964  0.04402468  0.01608348       0.005
   0.04276873  0.04469114  0.01091231       0.005
   0.05796902  0.03054392  0.00802221       0.005
   0.07316932  0.01639670  0.00513212       0.005
   0.08836961  0.00224948  0.00224202       0.005
  -0.00283215  0.08713280  0.01958259       0.005
   0.01236814  0.07298558  0.01669250       0.005
   0.02756844  0.05883836  0.01380240       0.005
  -0.05034403 -0.04419094  0.02459877       0.005
  -0.03514374 -0.05833816  0.02170867       0.005
  -0.01994345 -0.07248538  0.01881858       0.005
  -0.00474315 -0.08663260  0.01592848       0.005
  -0.09594492 -0.00174928  0.03326905       0.005
  -0.08074462 -0.01589650  0.03037896       0.005
  -0.06554433 -0.03004372  0.02748886       0.005
  -0.03482524 -0.02937726  0.02231769       0.005
  -0.01962495 -0.04352448  0.01942760       0.005
  -0.00442465 -0.05767170  0.01653750       0.005
   0.01077564 -0.07181892  0.01364741       0.005
  -0.08042612  0.01306440  0.03098798       0.005
  -0.06522583 -0.00108282  0.02809788       0.005
  -0.05002553 -0.01523004  0.02520779       0.005
  -0.01930645 -0.01456358  0.02003662       0.005
  -0.00410615 -0.02871080  0.01714652       0.005
   0.01109414 -0.04285802  0.01425643       0.005
   0.02629444 -0.05700524  0.01136633       0.005
  -0.06490733  0.02787808  0.02870690       0.005
  -0.04970703  0.01373086  0.02581681       0.005
  -0.03450674 -0.00041636  0.02292671       0.005
  -0.00757530  0.00050020  0.03551108       0.005
   0.00762499 -0.01364702  0.03262098       0.005
   0.02282528 -0.02779424  0.02973089       0.005
   0.03802558 -0.04194146  0.02684079       0.005
  -0.05317618  0.04294187  0.04418136       0.005
  -0.03797589  0.02879465  0.04129127       0.005
  -0.02277560  0.01464743  0.03840117       0.005
   0.00794349  0.01531388  0.03323000       0.005
   0.02314378  0.00116666  0.03033991       0.005
   0.03834408 -0.01298056  0.02744981       0.005
   0.05354437 -0.02712778  0.02455972       0.005
  -0.03765739  0.05775554  0.04190029       0.005
  -0.02245710  0.04360832  0.03901019       0.005
  -0.00725680  0.02946110  0.03612010       0.005
   0.02346228  0.03012756  0.03094892       0.005
   0.03866258  0.01598034  0.02805883       0.005
   0.05386287  0.00183312  0.02516873       0.005
   0.06906317 -0.01231410  0.02227864       0.005
  -0.02213860  0.07256922  0.03961921       0.005
  -0.00693830  0.05842200  0.03672911       0.005
   0.00826199  0.04427478  0.03383902       0.005
   0.03898108  0.04494124  0.02866785       0.005
   0.05418137  0.03079402  0.02577775       0.005
   0.06938167  0.01664680  0.02288766       0.005
   0.08458196  0.00249958  0.01999756       0.005
  -0.00661980  0.08738290  0.03733813       0.005
   0.00858049  0.07323568  0.03444804       0.005
   0.02378078  0.05908846  0.03155794       0.005
  -0.05413169 -0.04394083  0.04235431       0.005
  -0.03893139 -0.05808805  0.03946421       0.005
  -0.02373110 -0.07223527  0.03657412       0.005
  -0.00853080 -0.08638249  0.03368402       0.005
  -0.09973257 -0.00149917  0.05102459       0.005
  -0.08453227 -0.01564639  0.04813450       0.005
  -0.06933198 -0.02979361  0.04524440       0.005
  -0.03861289 -0.02912715  0.04007323       0.005
  -0.02341260 -0.04327437  0.03718314       0.005
  -0.00821230 -0.05742159  0.03429304       0.005
   0.00698799 -0.07156881  0.03140295       0.005
  -0.08421377  0.01331451  0.04874352       0.005
  -0.06901348 -0.00083271  0.04585342       0.005
  -0.05381319 -0.01497993  0.04296333       0.005
  -0.02309410 -0.01431347  0.03779215       0.005
  -0.00789380 -0.02846069  0.03490206       0.005
   0.00730649 -0.04260791  0.03201196       0.005
   0.02250678 -0.05675513  0.02912187       0.005
  -0.06869498  0.02812819  0.04646244       0.005
  -0.05349469  0.01398097  0.04357234       0.005
  -0.03829439 -0.00016625  0.04068225       0.005
  -0.01136296  0.00075031  0.05326662       0.005
   0.00383734 -0.01339691  0.05037652       0.005
   0.01903763 -0.02754413  0.04748643       0.005
   0.03423793 -0.04169135  0.04459633       0.005
  -0.05696384  0.04319197  0.06193690       0.005
  -0.04176354  0.02904475  0.05904681       0.005
  -0.02656325  0.01489753  0.05615671       0.005
   0.00415584  0.01556399  0.05098554       0.005
   0.01935613  0.00141677  0.04809545       0.005
   0.03455643 -0.01273045  0.04520535       0.005
   0.04975672 -0.02687767  0.04231526       0.005
  -0.04144504  0.05800565  0.05965583       0.005
  -0.02624475  0.04385843  0.05676573       0.005
  -0.01104445  0.02971121  0.05387564       0.005
   0.01967463  0.03037767  0.04870446       0.005
   0.03487493  0.01623045  0.04581437       0.005
   0.05007522  0.00208323  0.04292427       0.005
   0.06527551 -0.01206399  0.04003418       0.005
  -0.02592625  0.07281933  0.05737475       0.005
  -0.01072595  0.05867211  0.05448465       0.005
   0.00447434  0.04452489  0.05159456       0.005
   0.03519343  0.04519135  0.04642339       0.005
   0.05039372  0.03104413  0.04353329       0.005
   0.06559401  0.01689691  0.04064320       0.005
   0.08079431  0.00274969  0.03775310       0.005
  -0.01040745  0.08763301  0.05509367       0.005
   0.00479284  0.07348579  0.05220358       0.005
   0.01999313  0.05933857  0.04931348       0.005
  -0.05791934 -0.04369073  0.06010985       0.005
  -0.04271904 -0.05783795  0.05721975       0.005
  -0.02751875 -0.07198517  0.05432966       0.005
  -0.01231846 -0.08613239  0.05143956       0.005
  -0.10352022 -0.00124907  0.06878013       0.005
  -0.08831992 -0.01539629  0.06589004       0.005
  -0.07311963 -0.02954351  0.06299994       0.005
  -0.04240054 -0.02887705  0.05782877       0.005
  -0.02720025 -0.04302427  0.05493868       0.005
  -0.01199996 -0.05717149  0.05204858       0.005
   0.00320034 -0.07131871  0.04915849       0.005
  -0.08800142  0.01356461  0.06649906       0.005
  -0.07280113 -0.00058261  0.06360896       0.005
  -0.05760084 -0.01472983  0.06071887       0.005
  -0.02688175 -0.01406337  0.05554769       0.005
  -0.01168146 -0.02821059  0.05265760       0.005
   0.00351884 -0.04235781  0.04976750       0.005
   0.01871913 -0.05650503  0.04687741       0.005
  -0.07248263  0.02837829  0.06421798       0.005
  -0.05728234  0.01423107  0.06132788       0.005
  -0.04208204  0.00008385  0.05843779       0.005
  -0.01515061  0.00100041  0.07102216       0.005
   0.00004969 -0.01314681  0.06813206       0.005
   0.01524998 -0.02729403  0.06524197       0.005
   0.03045027 -0.04144125  0.06235187       0.005
  -0.06075149  0.04344207  0.07969244       0.005
  -0.04555119  0.02929485  0.07680235       0.005
  -0.03035090  0.01514763  0.07391225       0.005
   0.00036819  0.01581409  0.06874108       0.005
   0.01556848  0.00166687  0.06585098       0.005
   0.03076877 -0.01248035  0.06296089       0.005
   0.04596907 -0.02662757  0.06007079       0.005
  -0.04523269  0.05825575  0.07741136       0.005
  -0.03003240  0.04410853  0.07452127       0.005
  -0.01483211  0.02996131  0.07163117       0.005
   0.01588698  0.03062777  0.06646000       0.005
   0.03108728  0.01648055  0.06356991       0.005
   0.04628757  0.00233333  0.06067981       0.005
   0.06148786 -0.01181389  0.05778972       0.005
  -0.02971390  0.07306943  0.07513029       0.005
  -0.01451361  0.05892221  0.07224019       0.005
   0.00068669  0.04477499  0.06935010       0.005
   0.03140578  0.04544145  0.06417893       0.005
   0.04660607  0.03129423  0.06128883       0.005
   0.06180636  0.01714701  0.05839874       0.005
   0.07700666  0.00299979  0.05550864       0.005
  -0.01419511  0.08788311  0.07284921       0.005
   0.00100519  0.07373589  0.06995912       0.005
   0.01620548  0.05958867  0.06706902       0.005
  -0.06170699 -0.04344063  0.07786539       0.005
  -0.04650669 -0.05758785  0.07497529       0.005
  -0.03130640 -0.07173507  0.07208520       0.005
  -0.01610611 -0.08588229  0.06919510       0.005
  -0.10730787 -0.00099897  0.08653567       0.005
  -0.09210758 -0.01514619  0.08364558       0.005
  -0.07690728 -0.02929341  0.08075548       0.005
  -0.04618819 -0.02862695  0.07558431       0.005
  -0.03098790 -0.04277417  0.07269421       0.005
  -0.01578761 -0.05692139  0.06980412       0.005
  -0.00058731 -0.07106861  0.06691402       0.005
  -0.09178908  0.01381471  0.08425459       0.005
  -0.07658878 -0.00033251  0.08136450       0.005
  -0.06138849 -0.01447973  0.07847440       0.005
  -0.03066940 -0.01381327  0.07330323       0.005
  -0.01546911 -0.02796049  0.07041314       0.005
  -0.00026881 -0.04210771  0.06752304       0.005
   0.01493148 -0.05625493  0.06463295       0.005
  -0.07627028  0.02862839  0.08197352       0.005
  -0.06106999  0.01448117  0.07908342       0.005
  -0.04586969  0.00033395  0.07619333       0.005
 
 k-points in reciprocal lattice and weights: KPOINTS                                 
   0.00000000  0.00000000  0.00000000       0.002
   0.14285714 -0.00000000 -0.00000000       0.005
   0.28571429 -0.00000000  0.00000000       0.005
   0.42857143 -0.00000000  0.00000000       0.005
   0.00000000  0.14285714 -0.00000000       0.005
   0.14285714  0.14285714  0.00000000       0.005
   0.28571429  0.14285714  0.00000000       0.005
   0.42857143  0.14285714 -0.00000000       0.005
  -0.42857143  0.14285714  0.00000000       0.005
  -0.28571429  0.14285714  0.00000000       0.005
  -0.14285714  0.14285714 -0.00000000       0.005
   0.00000000  0.28571429  0.00000000       0.005
   0.14285714  0.28571429 -0.00000000       0.005
   0.28571429  0.28571429 -0.00000000       0.005
   0.42857143  0.28571429  0.00000000       0.005
  -0.42857143  0.28571429  0.00000000       0.005
  -0.28571429  0.28571429 -0.00000000       0.005
  -0.14285714  0.28571429  0.00000000       0.005
  -0.00000000  0.42857143 -0.00000000       0.005
   0.14285714  0.42857143 -0.00000000       0.005
   0.28571429  0.42857143  0.00000000       0.005
   0.42857143  0.42857143 -0.00000000       0.005
  -0.42857143  0.42857143 -0.00000000       0.005
  -0.28571429  0.42857143  0.00000000       0.005
  -0.14285714  0.42857143  0.00000000       0.005
  -0.00000000  0.00000000  0.11111111       0.005
   0.14285714  0.00000000  0.11111111       0.005
   0.28571429 -0.00000000  0.11111111       0.005
   0.42857143 -0.00000000  0.11111111       0.005
  -0.42857143  0.00000000  0.11111111       0.005
  -0.28571429  0.00000000  0.11111111       0.005
  -0.14285714  0.00000000  0.11111111       0.005
   0.00000000  0.14285714  0.11111111       0.005
   0.14285714  0.14285714  0.11111111       0.005
   0.28571429  0.14285714  0.11111111       0.005
   0.42857143  0.14285714  0.11111111       0.005
  -0.42857143  0.14285714  0.11111111       0.005
  -0.28571429  0.14285714  0.11111111       0.005
  -0.14285714  0.14285714  0.11111111       0.005
   0.00000000  0.28571429  0.11111111       0.005
   0.14285714  0.28571429  0.11111111       0.005
   0.28571429  0.28571429  0.11111111       0.005
   0.42857143  0.28571429  0.11111111       0.005
  -0.42857143  0.28571429  0.11111111       0.005
  -0.28571429  0.28571429  0.11111111       0.005
  -0.14285714  0.28571429  0.11111111       0.005
  -0.00000000  0.42857143  0.11111111       0.005
   0.14285714  0.42857143  0.11111111       0.005
   0.28571429  0.42857143  0.11111111       0.005
   0.42857143  0.42857143  0.11111111       0.005
  -0.42857143  0.42857143  0.11111111       0.005
  -0.28571429  0.42857143  0.11111111       0.005
  -0.14285714  0.42857143  0.11111111       0.005
   0.00000000 -0.42857143  0.11111111       0.005
   0.14285714 -0.42857143  0.11111111       0.005
   0.28571429 -0.42857143  0.11111111       0.005
   0.42857143 -0.42857143  0.11111111       0.005
  -0.42857143 -0.42857143  0.11111111       0.005
  -0.28571429 -0.42857143  0.11111111       0.005
  -0.14285714 -0.42857143  0.11111111       0.005
  -0.00000000 -0.28571429  0.11111111       0.005
   0.14285714 -0.28571429  0.11111111       0.005
   0.28571429 -0.28571429  0.11111111       0.005
   0.42857143 -0.28571429  0.11111111       0.005
  -0.42857143 -0.28571429  0.11111111       0.005
  -0.28571429 -0.28571429  0.11111111       0.005
  -0.14285714 -0.28571429  0.11111111       0.005
  -0.00000000 -0.14285714  0.11111111       0.005
   0.14285714 -0.14285714  0.11111111       0.005
   0.28571429 -0.14285714  0.11111111       0.005
   0.42857143 -0.14285714  0.11111111       0.005
  -0.42857143 -0.14285714  0.11111111       0.005
  -0.28571429 -0.14285714  0.11111111       0.005
  -0.14285714 -0.14285714  0.11111111       0.005
   0.00000000  0.00000000  0.22222222       0.005
   0.14285714 -0.00000000  0.22222222       0.005
   0.28571429 -0.00000000  0.22222222       0.005
   0.42857143 -0.00000000  0.22222222       0.005
  -0.42857143  0.00000000  0.22222222       0.005
  -0.28571429  0.00000000  0.22222222       0.005
  -0.14285714  0.00000000  0.22222222       0.005
   0.00000000  0.14285714  0.22222222       0.005
   0.14285714  0.14285714  0.22222222       0.005
   0.28571429  0.14285714  0.22222222       0.005
   0.42857143  0.14285714  0.22222222       0.005
  -0.42857143  0.14285714  0.22222222       0.005
  -0.28571429  0.14285714  0.22222222       0.005
  -0.14285714  0.14285714  0.22222222       0.005
   0.00000000  0.28571429  0.22222222       0.005
   0.14285714  0.28571429  0.22222222       0.005
   0.28571429  0.28571429  0.22222222       0.005
   0.42857143  0.28571429  0.22222222       0.005
  -0.42857143  0.28571429  0.22222222       0.005
  -0.28571429  0.28571429  0.22222222       0.005
  -0.14285714  0.28571429  0.22222222       0.005
   0.00000000  0.42857143  0.22222222       0.005
   0.14285714  0.42857143  0.22222222       0.005
   0.28571429  0.42857143  0.22222222       0.005
   0.42857143  0.42857143  0.22222222       0.005
  -0.42857143  0.42857143  0.22222222       0.005
  -0.28571429  0.42857143  0.22222222       0.005
  -0.14285714  0.42857143  0.22222222       0.005
  -0.00000000 -0.42857143  0.22222222       0.005
   0.14285714 -0.42857143  0.22222222       0.005
   0.28571429 -0.42857143  0.22222222       0.005
   0.42857143 -0.42857143  0.22222222       0.005
  -0.42857143 -0.42857143  0.22222222       0.005
  -0.28571429 -0.42857143  0.22222222       0.005
  -0.14285714 -0.42857143  0.22222222       0.005
  -0.00000000 -0.28571429  0.22222222       0.005
   0.14285714 -0.28571429  0.22222222       0.005
   0.28571429 -0.28571429  0.22222222       0.005
   0.42857143 -0.28571429  0.22222222       0.005
  -0.42857143 -0.28571429  0.22222222       0.005
  -0.28571429 -0.28571429  0.22222222       0.005
  -0.14285714 -0.28571429  0.22222222       0.005
  -0.00000000 -0.14285714  0.22222222       0.005
   0.14285714 -0.14285714  0.22222222       0.005
   0.28571429 -0.14285714  0.22222222       0.005
   0.42857143 -0.14285714  0.22222222       0.005
  -0.42857143 -0.14285714  0.22222222       0.005
  -0.28571429 -0.14285714  0.22222222       0.005
  -0.14285714 -0.14285714  0.22222222       0.005
   0.00000000  0.00000000  0.33333333       0.005
   0.14285714 -0.00000000  0.33333333       0.005
   0.28571429 -0.00000000  0.33333333       0.005
   0.42857143 -0.00000000  0.33333333       0.005
  -0.42857143  0.00000000  0.33333333       0.005
  -0.28571429 -0.00000000  0.33333333       0.005
  -0.14285714  0.00000000  0.33333333       0.005
   0.00000000  0.14285714  0.33333333       0.005
   0.14285714  0.14285714  0.33333333       0.005
   0.28571429  0.14285714  0.33333333       0.005
   0.42857143  0.14285714  0.33333333       0.005
  -0.42857143  0.14285714  0.33333333       0.005
  -0.28571429  0.14285714  0.33333333       0.005
  -0.14285714  0.14285714  0.33333333       0.005
   0.00000000  0.28571429  0.33333333       0.005
   0.14285714  0.28571429  0.33333333       0.005
   0.28571429  0.28571429  0.33333333       0.005
   0.42857143  0.28571429  0.33333333       0.005
  -0.42857143  0.28571429  0.33333333       0.005
  -0.28571429  0.28571429  0.33333333       0.005
  -0.14285714  0.28571429  0.33333333       0.005
   0.00000000  0.42857143  0.33333333       0.005
   0.14285714  0.42857143  0.33333333       0.005
   0.28571429  0.42857143  0.33333333       0.005
   0.42857143  0.42857143  0.33333333       0.005
  -0.42857143  0.42857143  0.33333333       0.005
  -0.28571429  0.42857143  0.33333333       0.005
  -0.14285714  0.42857143  0.33333333       0.005
  -0.00000000 -0.42857143  0.33333333       0.005
   0.14285714 -0.42857143  0.33333333       0.005
   0.28571429 -0.42857143  0.33333333       0.005
   0.42857143 -0.42857143  0.33333333       0.005
  -0.42857143 -0.42857143  0.33333333       0.005
  -0.28571429 -0.42857143  0.33333333       0.005
  -0.14285714 -0.42857143  0.33333333       0.005
  -0.00000000 -0.28571429  0.33333333       0.005
   0.14285714 -0.28571429  0.33333333       0.005
   0.28571429 -0.28571429  0.33333333       0.005
   0.42857143 -0.28571429  0.33333333       0.005
  -0.42857143 -0.28571429  0.33333333       0.005
  -0.28571429 -0.28571429  0.33333333       0.005
  -0.14285714 -0.28571429  0.33333333       0.005
  -0.00000000 -0.14285714  0.33333333       0.005
   0.14285714 -0.14285714  0.33333333       0.005
   0.28571429 -0.14285714  0.33333333       0.005
   0.42857143 -0.14285714  0.33333333       0.005
  -0.42857143 -0.14285714  0.33333333       0.005
  -0.28571429 -0.14285714  0.33333333       0.005
  -0.14285714 -0.14285714  0.33333333       0.005
   0.00000000  0.00000000  0.44444444       0.005
   0.14285714  0.00000000  0.44444444       0.005
   0.28571429 -0.00000000  0.44444444       0.005
   0.42857143 -0.00000000  0.44444444       0.005
  -0.42857143  0.00000000  0.44444444       0.005
  -0.28571429  0.00000000  0.44444444       0.005
  -0.14285714  0.00000000  0.44444444       0.005
   0.00000000  0.14285714  0.44444444       0.005
   0.14285714  0.14285714  0.44444444       0.005
   0.28571429  0.14285714  0.44444444       0.005
   0.42857143  0.14285714  0.44444444       0.005
  -0.42857143  0.14285714  0.44444444       0.005
  -0.28571429  0.14285714  0.44444444       0.005
  -0.14285714  0.14285714  0.44444444       0.005
  -0.00000000  0.28571429  0.44444444       0.005
   0.14285714  0.28571429  0.44444444       0.005
   0.28571429  0.28571429  0.44444444       0.005
   0.42857143  0.28571429  0.44444444       0.005
  -0.42857143  0.28571429  0.44444444       0.005
  -0.28571429  0.28571429  0.44444444       0.005
  -0.14285714  0.28571429  0.44444444       0.005
   0.00000000  0.42857143  0.44444444       0.005
   0.14285714  0.42857143  0.44444444       0.005
   0.28571429  0.42857143  0.44444444       0.005
   0.42857143  0.42857143  0.44444444       0.005
  -0.42857143  0.42857143  0.44444444       0.005
  -0.28571429  0.42857143  0.44444444       0.005
  -0.14285714  0.42857143  0.44444444       0.005
  -0.00000000 -0.42857143  0.44444444       0.005
   0.14285714 -0.42857143  0.44444444       0.005
   0.28571429 -0.42857143  0.44444444       0.005
   0.42857143 -0.42857143  0.44444444       0.005
  -0.42857143 -0.42857143  0.44444444       0.005
  -0.28571429 -0.42857143  0.44444444       0.005
  -0.14285714 -0.42857143  0.44444444       0.005
  -0.00000000 -0.28571429  0.44444444       0.005
   0.14285714 -0.28571429  0.44444444       0.005
   0.28571429 -0.28571429  0.44444444       0.005
   0.42857143 -0.28571429  0.44444444       0.005
  -0.42857143 -0.28571429  0.44444444       0.005
  -0.28571429 -0.28571429  0.44444444       0.005
  -0.14285714 -0.28571429  0.44444444       0.005
  -0.00000000 -0.14285714  0.44444444       0.005
   0.14285714 -0.14285714  0.44444444       0.005
   0.28571429 -0.14285714  0.44444444       0.005
   0.42857143 -0.14285714  0.44444444       0.005
  -0.42857143 -0.14285714  0.44444444       0.005
  -0.28571429 -0.14285714  0.44444444       0.005
  -0.14285714 -0.14285714  0.44444444       0.005
 
 position of ions in fractional coordinates (direct lattice) 
   0.95805676  0.00021274  0.99962517
   0.04194324  0.49978726  0.00037483
   0.45805676  0.00021274  0.99962517
   0.54194324  0.49978726  0.00037483
   0.25000000  0.25000000  0.00000000
   0.25000000  0.75000000  0.00000000
   0.75000000  0.25000000  0.00000000
   0.75000000  0.75000000  0.00000000
   0.26012229  0.05968993  0.73766115
   0.37937336  0.55940584  0.73827997
   0.76012229  0.05968993  0.73766115
   0.87937336  0.55940584  0.73827997
   0.23987771  0.44031007  0.26233885
   0.12062664  0.94059416  0.26172003
   0.73987771  0.44031007  0.26233885
   0.62062664  0.94059416  0.26172003
 
 position of ions in cartesian coordinates  (Angst):
   5.83813683 -4.94822108  7.57058710
   2.55812642  2.21943354  0.51678824
   3.36376714 -2.44278734  7.00745772
   5.03249611 -0.28600020  1.07991762
   2.41275968 -0.03736913  0.51522172
   4.76390935  2.39332634  0.98253579
   4.88712937 -2.54280287  1.07835111
   7.23827904 -0.11210740  1.54566517
   2.37671002 -1.12289014  5.13897872
   5.31734470  0.70878098  5.74435332
   4.85107971 -3.62832388  5.70210810
   7.79171439 -1.79665276  6.30748270
   3.54518354  0.89953634  2.38526724
   5.30684820  3.92925616  2.71452076
   6.01955323 -1.60589740  2.94839662
   7.78121789  1.42382243  3.27765015
 


--------------------------------------------------------------------------------------------------------


 k-point   1 :   0.0000 0.0000 0.0000  plane waves:    8725
 k-point   2 :   0.1429-0.0000-0.0000  plane waves:    8717
 k-point   3 :   0.2857-0.0000 0.0000  plane waves:    8718
 k-point   4 :   0.4286-0.0000 0.0000  plane waves:    8731
 k-point   5 :   0.0000 0.1429-0.0000  plane waves:    8729
 k-point   6 :   0.1429 0.1429 0.0000  plane waves:    8715
 k-point   7 :   0.2857 0.1429 0.0000  plane waves:    8722
 k-point   8 :   0.4286 0.1429-0.0000  plane waves:    8718
 k-point   9 :  -0.4286 0.1429 0.0000  plane waves:    8737
 k-point  10 :  -0.2857 0.1429 0.0000  plane waves:    8717
 k-point  11 :  -0.1429 0.1429-0.0000  plane waves:    8729
 k-point  12 :   0.0000 0.2857 0.0000  plane waves:    8737
 k-point  13 :   0.1429 0.2857-0.0000  plane waves:    8731
 k-point  14 :   0.2857 0.2857-0.0000  plane waves:    8731
 k-point  15 :   0.4286 0.2857 0.0000  plane waves:    8735
 k-point  16 :  -0.4286 0.2857 0.0000  plane waves:    8745
 k-point  17 :  -0.2857 0.2857-0.0000  plane waves:    8741
 k-point  18 :  -0.1429 0.2857 0.0000  plane waves:    8744
 k-point  19 :  -0.0000 0.4286-0.0000  plane waves:    8754
 k-point  20 :   0.1429 0.4286-0.0000  plane waves:    8746
 k-point  21 :   0.2857 0.4286 0.0000  plane waves:    8732
 k-point  22 :   0.4286 0.4286-0.0000  plane waves:    8739
 k-point  23 :  -0.4286 0.4286-0.0000  plane waves:    8741
 k-point  24 :  -0.2857 0.4286 0.0000  plane waves:    8753
 k-point  25 :  -0.1429 0.4286 0.0000  plane waves:    8752
 k-point  26 :  -0.0000 0.0000 0.1111  plane waves:    8727
 k-point  27 :   0.1429 0.0000 0.1111  plane waves:    8728
 k-point  28 :   0.2857-0.0000 0.1111  plane waves:    8731
 k-point  29 :   0.4286-0.0000 0.1111  plane waves:    8726
 k-point  30 :  -0.4286 0.0000 0.1111  plane waves:    8712
 k-point  31 :  -0.2857 0.0000 0.1111  plane waves:    8715
 k-point  32 :  -0.1429 0.0000 0.1111  plane waves:    8714
 k-point  33 :   0.0000 0.1429 0.1111  plane waves:    8743
 k-point  34 :   0.1429 0.1429 0.1111  plane waves:    8740
 k-point  35 :   0.2857 0.1429 0.1111  plane waves:    8720
 k-point  36 :   0.4286 0.1429 0.1111  plane waves:    8726
 k-point  37 :  -0.4286 0.1429 0.1111  plane waves:    8727
 k-point  38 :  -0.2857 0.1429 0.1111  plane waves:    8735
 k-point  39 :  -0.1429 0.1429 0.1111  plane waves:    8728
 k-point  40 :   0.0000 0.2857 0.1111  plane waves:    8739
 k-point  41 :   0.1429 0.2857 0.1111  plane waves:    8744
 k-point  42 :   0.2857 0.2857 0.1111  plane waves:    8727
 k-point  43 :   0.4286 0.2857 0.1111  plane waves:    8741
 k-point  44 :  -0.4286 0.2857 0.1111  plane waves:    8741
 k-point  45 :  -0.2857 0.2857 0.1111  plane waves:    8741
 k-point  46 :  -0.1429 0.2857 0.1111  plane waves:    8737
 k-point  47 :  -0.0000 0.4286 0.1111  plane waves:    8753
 k-point  48 :   0.1429 0.4286 0.1111  plane waves:    8737
 k-point  49 :   0.2857 0.4286 0.1111  plane waves:    8745
 k-point  50 :   0.4286 0.4286 0.1111  plane waves:    8727
 k-point  51 :  -0.4286 0.4286 0.1111  plane waves:    8737
 k-point  52 :  -0.2857 0.4286 0.1111  plane waves:    8746
 k-point  53 :  -0.1429 0.4286 0.1111  plane waves:    8745
 k-point  54 :   0.0000-0.4286 0.1111  plane waves:    8751
 k-point  55 :   0.1429-0.4286 0.1111  plane waves:    8747
 k-point  56 :   0.2857-0.4286 0.1111  plane waves:    8734
 k-point  57 :   0.4286-0.4286 0.1111  plane waves:    8729
 k-point  58 :  -0.4286-0.4286 0.1111  plane waves:    8743
 k-point  59 :  -0.2857-0.4286 0.1111  plane waves:    8753
 k-point  60 :  -0.1429-0.4286 0.1111  plane waves:    8738
 k-point  61 :  -0.0000-0.2857 0.1111  plane waves:    8739
 k-point  62 :   0.1429-0.2857 0.1111  plane waves:    8745
 k-point  63 :   0.2857-0.2857 0.1111  plane waves:    8732
 k-point  64 :   0.4286-0.2857 0.1111  plane waves:    8737
 k-point  65 :  -0.4286-0.2857 0.1111  plane waves:    8729
 k-point  66 :  -0.2857-0.2857 0.1111  plane waves:    8727
 k-point  67 :  -0.1429-0.2857 0.1111  plane waves:    8727
 k-point  68 :  -0.0000-0.1429 0.1111  plane waves:    8717
 k-point  69 :   0.1429-0.1429 0.1111  plane waves:    8744
 k-point  70 :   0.2857-0.1429 0.1111  plane waves:    8727
 k-point  71 :   0.4286-0.1429 0.1111  plane waves:    8735
 k-point  72 :  -0.4286-0.1429 0.1111  plane waves:    8723
 k-point  73 :  -0.2857-0.1429 0.1111  plane waves:    8719
 k-point  74 :  -0.1429-0.1429 0.1111  plane waves:    8721
 k-point  75 :   0.0000 0.0000 0.2222  plane waves:    8724
 k-point  76 :   0.1429-0.0000 0.2222  plane waves:    8726
 k-point  77 :   0.2857-0.0000 0.2222  plane waves:    8735
 k-point  78 :   0.4286-0.0000 0.2222  plane waves:    8704
 k-point  79 :  -0.4286 0.0000 0.2222  plane waves:    8705
 k-point  80 :  -0.2857 0.0000 0.2222  plane waves:    8718
 k-point  81 :  -0.1429 0.0000 0.2222  plane waves:    8717
 k-point  82 :   0.0000 0.1429 0.2222  plane waves:    8727
 k-point  83 :   0.1429 0.1429 0.2222  plane waves:    8737
 k-point  84 :   0.2857 0.1429 0.2222  plane waves:    8718
 k-point  85 :   0.4286 0.1429 0.2222  plane waves:    8727
 k-point  86 :  -0.4286 0.1429 0.2222  plane waves:    8725
 k-point  87 :  -0.2857 0.1429 0.2222  plane waves:    8717
 k-point  88 :  -0.1429 0.1429 0.2222  plane waves:    8732
 k-point  89 :   0.0000 0.2857 0.2222  plane waves:    8749
 k-point  90 :   0.1429 0.2857 0.2222  plane waves:    8749
 k-point  91 :   0.2857 0.2857 0.2222  plane waves:    8727
 k-point  92 :   0.4286 0.2857 0.2222  plane waves:    8726
 k-point  93 :  -0.4286 0.2857 0.2222  plane waves:    8726
 k-point  94 :  -0.2857 0.2857 0.2222  plane waves:    8721
 k-point  95 :  -0.1429 0.2857 0.2222  plane waves:    8727
 k-point  96 :   0.0000 0.4286 0.2222  plane waves:    8752
 k-point  97 :   0.1429 0.4286 0.2222  plane waves:    8755
 k-point  98 :   0.2857 0.4286 0.2222  plane waves:    8736
 k-point  99 :   0.4286 0.4286 0.2222  plane waves:    8719
 k-point 100 :  -0.4286 0.4286 0.2222  plane waves:    8732
 k-point 101 :  -0.2857 0.4286 0.2222  plane waves:    8736
 k-point 102 :  -0.1429 0.4286 0.2222  plane waves:    8747
 k-point 103 :  -0.0000-0.4286 0.2222  plane waves:    8752
 k-point 104 :   0.1429-0.4286 0.2222  plane waves:    8758
 k-point 105 :   0.2857-0.4286 0.2222  plane waves:    8739
 k-point 106 :   0.4286-0.4286 0.2222  plane waves:    8715
 k-point 107 :  -0.4286-0.4286 0.2222  plane waves:    8716
 k-point 108 :  -0.2857-0.4286 0.2222  plane waves:    8733
 k-point 109 :  -0.1429-0.4286 0.2222  plane waves:    8739
 k-point 110 :  -0.0000-0.2857 0.2222  plane waves:    8733
 k-point 111 :   0.1429-0.2857 0.2222  plane waves:    8737
 k-point 112 :   0.2857-0.2857 0.2222  plane waves:    8734
 k-point 113 :   0.4286-0.2857 0.2222  plane waves:    8726
 k-point 114 :  -0.4286-0.2857 0.2222  plane waves:    8727
 k-point 115 :  -0.2857-0.2857 0.2222  plane waves:    8742
 k-point 116 :  -0.1429-0.2857 0.2222  plane waves:    8731
 k-point 117 :  -0.0000-0.1429 0.2222  plane waves:    8720
 k-point 118 :   0.1429-0.1429 0.2222  plane waves:    8736
 k-point 119 :   0.2857-0.1429 0.2222  plane waves:    8726
 k-point 120 :   0.4286-0.1429 0.2222  plane waves:    8732
 k-point 121 :  -0.4286-0.1429 0.2222  plane waves:    8725
 k-point 122 :  -0.2857-0.1429 0.2222  plane waves:    8739
 k-point 123 :  -0.1429-0.1429 0.2222  plane waves:    8727
 k-point 124 :   0.0000 0.0000 0.3333  plane waves:    8715
 k-point 125 :   0.1429-0.0000 0.3333  plane waves:    8728
 k-point 126 :   0.2857-0.0000 0.3333  plane waves:    8729
 k-point 127 :   0.4286-0.0000 0.3333  plane waves:    8720
 k-point 128 :  -0.4286 0.0000 0.3333  plane waves:    8709
 k-point 129 :  -0.2857-0.0000 0.3333  plane waves:    8714
 k-point 130 :  -0.1429 0.0000 0.3333  plane waves:    8724
 k-point 131 :   0.0000 0.1429 0.3333  plane waves:    8716
 k-point 132 :   0.1429 0.1429 0.3333  plane waves:    8723
[...]
  0.000  -0.008   0.014  -0.000   0.003  -0.007   0.001   0.051
  0.032   0.008   0.029  -0.017  -0.004  -0.015   0.005  -0.010
  0.002  -0.000  -0.003  -0.001   0.000   0.002  -0.355  -0.001
  0.000  -0.002  -0.000  -0.000   0.002   0.000  -0.001  -0.350
 -0.004   0.002   0.003   0.002  -0.001  -0.002   0.007  -0.003
 -0.000   0.001  -0.003   0.000  -0.001   0.002  -0.001  -0.011
 -0.007  -0.002  -0.006   0.004   0.001   0.004  -0.001   0.002
  0.001  -0.000  -0.002  -0.000   0.000   0.000  -0.012  -0.003
 -0.000   0.000   0.000   0.000  -0.000  -0.000   0.003   0.001
 pseudopotential strength for first ion, spin component:           2
-53.841   0.013   0.061  27.324  -0.010  -0.048  -0.012  -0.002
  0.013 -53.841  -0.005  -0.010  27.326   0.003   0.000   0.012
  0.061  -0.005 -53.856  -0.048   0.003  27.335   0.013   0.000
 27.324  -0.010  -0.048  -9.412   0.006   0.031   0.006   0.001
 -0.010  27.326   0.003   0.006  -9.414  -0.002  -0.000  -0.005
 -0.048   0.003  27.335   0.031  -0.002  -9.420  -0.006  -0.000
 -0.012   0.000   0.013   0.006  -0.000  -0.006  -7.661  -0.000
 -0.002   0.012   0.000   0.001  -0.005  -0.000  -0.000  -7.663
  0.018  -0.008  -0.014  -0.009   0.004   0.007  -0.033   0.014
  0.000  -0.008   0.015  -0.000   0.003  -0.007  -0.002   0.052
  0.032   0.008   0.029  -0.016  -0.004  -0.015  -0.002  -0.012
  0.002  -0.000  -0.002  -0.002   0.000   0.002  -0.356   0.000
  0.000  -0.002  -0.000  -0.000   0.001   0.000   0.000  -0.356
 -0.004   0.002   0.003   0.002  -0.001  -0.002   0.008  -0.003
 -0.000   0.001  -0.003   0.000  -0.001   0.002   0.000  -0.011
 -0.007  -0.002  -0.006   0.004   0.001   0.004   0.001   0.003
  0.001  -0.000  -0.001  -0.000   0.000   0.000  -0.012  -0.002
 -0.000   0.000   0.000   0.000  -0.000  -0.000   0.003   0.001
 total augmentation occupancy for first ion, spin component:           1
  2.020  -0.002  -0.010   0.082  -0.005  -0.022   0.021   0.003  -0.017  -0.003  -0.044   0.002   0.000  -0.014   0.004  -0.007
 -0.002   2.013   0.002  -0.005   0.068   0.003   0.001  -0.028   0.014   0.023  -0.014   0.002  -0.011   0.007   0.008  -0.003
 -0.010   0.002   2.020  -0.022   0.003   0.082  -0.023   0.001   0.012  -0.020  -0.039  -0.003   0.002   0.013  -0.009  -0.005
  0.082  -0.005  -0.022   0.258  -0.012  -0.052   0.051   0.008  -0.039  -0.006  -0.103   0.003  -0.000  -0.025   0.010  -0.001
 -0.005   0.068   0.003  -0.012   0.230   0.007   0.003  -0.070   0.033   0.056  -0.032   0.004  -0.021   0.014   0.017  -0.004
 -0.022   0.003   0.082  -0.052   0.007   0.258  -0.056   0.002   0.026  -0.046  -0.092  -0.004   0.005   0.023  -0.013   0.002
  0.021   0.001  -0.023   0.051   0.003  -0.056   1.445   0.043   0.077  -0.062   0.010   0.126  -0.025  -0.040   0.061  -0.009
  0.003  -0.028   0.001   0.008  -0.070   0.002   0.043   1.273   0.073   0.110  -0.024  -0.025   0.216  -0.085  -0.175   0.041
 -0.017   0.014   0.012  -0.039   0.033   0.026   0.077   0.073   1.574  -0.123   0.020  -0.043  -0.086   0.127   0.045  -0.002
 -0.003   0.023  -0.020  -0.006   0.056  -0.046  -0.062   0.110  -0.123   1.317   0.036   0.062  -0.175   0.045   0.211   0.014
 -0.044  -0.014  -0.039  -0.103  -0.032  -0.092   0.010  -0.024   0.020   0.036   1.464  -0.009   0.041  -0.002   0.014   0.273
  0.002   0.002  -0.003   0.003   0.004  -0.004   0.126  -0.025  -0.043   0.062  -0.009   0.203  -0.004   0.035   0.012  -0.005
  0.000  -0.011   0.002  -0.000  -0.021   0.005  -0.025   0.216  -0.086  -0.175   0.041  -0.004   0.220  -0.038  -0.107   0.023
 -0.014   0.007   0.013  -0.025   0.014   0.023  -0.040  -0.085   0.127   0.045  -0.002   0.035  -0.038   0.138   0.035  -0.007
  0.004   0.008  -0.009   0.010   0.017  -0.013   0.061  -0.175   0.045   0.211   0.014   0.012  -0.107   0.035   0.207  -0.011
 -0.007  -0.003  -0.005  -0.001  -0.004   0.002  -0.009   0.041  -0.002   0.014   0.273  -0.005   0.023  -0.007  -0.011   0.155
  0.010  -0.002  -0.010   0.018  -0.004  -0.018   0.086   0.017  -0.055   0.019  -0.003  -0.203  -0.046  -0.037   0.018   0.001
  0.004  -0.001  -0.004   0.000  -0.000   0.000  -0.030  -0.007  -0.005   0.002  -0.000   0.024   0.005   0.002  -0.001  -0.000
 total augmentation occupancy for first ion, spin component:           2
 -0.000   0.000  -0.000  -0.000   0.000  -0.000   0.000   0.000   0.000  -0.000   0.000  -0.000  -0.000  -0.000   0.000  -0.000
  0.000  -0.000   0.000   0.000  -0.000   0.000  -0.000   0.000   0.000   0.000  -0.000  -0.000   0.000   0.000   0.000   0.000
 -0.000   0.000   0.000   0.000   0.000   0.000   0.001   0.000   0.000  -0.000  -0.000  -0.000  -0.000  -0.000   0.000   0.000
 -0.000   0.000   0.000  -0.000   0.000  -0.000   0.001   0.000   0.000  -0.000   0.000  -0.000  -0.000  -0.000   0.000  -0.000
  0.000  -0.000   0.000   0.000   0.000  -0.000  -0.000   0.000   0.000   0.000  -0.000   0.000  -0.000  -0.000  -0.000   0.000
 -0.000   0.000   0.000  -0.000  -0.000   0.000   0.001   0.000   0.000  -0.000  -0.000  -0.000  -0.000  -0.000   0.000   0.000
  0.000  -0.000   0.001   0.001  -0.000   0.001   0.002  -0.004  -0.001  -0.002  -0.005  -0.001   0.002   0.000   0.001   0.002
  0.000   0.000   0.000   0.000   0.000   0.000  -0.004   0.016  -0.000   0.000  -0.001   0.002  -0.007   0.001   0.001   0.000
  0.000   0.000   0.000   0.000   0.000   0.000  -0.001  -0.000  -0.003  -0.006   0.003   0.000  -0.000   0.001   0.003  -0.000
 -0.000   0.000  -0.000  -0.000   0.000  -0.000  -0.002   0.000  -0.006  -0.012   0.003   0.001  -0.001   0.003   0.005  -0.001
  0.000  -0.000  -0.000   0.000  -0.000  -0.000  -0.005  -0.001   0.003   0.003  -0.000   0.002   0.001  -0.001  -0.001   0.000
 -0.000  -0.000  -0.000  -0.000   0.000  -0.000  -0.001   0.002   0.000   0.001   0.002   0.000  -0.000  -0.000  -0.000  -0.000
 -0.000   0.000  -0.000  -0.000  -0.000  -0.000   0.002  -0.007  -0.000  -0.001   0.001  -0.000   0.001  -0.000   0.000  -0.000
 -0.000   0.000  -0.000  -0.000  -0.000  -0.000   0.000   0.001   0.001   0.003  -0.001  -0.000  -0.000  -0.000  -0.001   0.000
  0.000   0.000   0.000   0.000  -0.000   0.000   0.001   0.001   0.003   0.005  -0.001  -0.000   0.000  -0.001  -0.001   0.000
 -0.000   0.000   0.000  -0.000   0.000   0.000   0.002   0.000  -0.000  -0.001   0.000  -0.000  -0.000   0.000   0.000  -0.000
  0.000   0.000   0.000   0.000   0.000   0.000   0.000  -0.000  -0.000  -0.000  -0.002  -0.000   0.000  -0.000  -0.000  -0.000
  0.000   0.000   0.000   0.000   0.000   0.000   0.000  -0.000  -0.000  -0.001  -0.003   0.000   0.000  -0.000  -0.000  -0.001


------------------------ aborting loop because EDIFF is reached ----------------------------------------





 total charge

# of ion       s       p       d       tot
------------------------------------------
    1        0.356   6.381   6.217  12.953
    2        0.356   6.381   6.217  12.953
    3        0.356   6.381   6.217  12.953
    4        0.356   6.381   6.217  12.953
    5        0.350   6.401   6.206  12.957
    6        0.349   6.400   6.205  12.955
    7        0.350   6.401   6.206  12.957
    8        0.349   6.400   6.205  12.955
    9        1.473   2.299   0.072   3.845
   10        1.474   2.299   0.073   3.846
   11        1.473   2.299   0.072   3.845
   12        1.474   2.299   0.073   3.846
   13        1.473   2.299   0.072   3.845
   14        1.474   2.299   0.073   3.846
   15        1.473   2.299   0.072   3.845
   16        1.474   2.299   0.073   3.846
--------------------------------------------------
tot         14.611  69.519  50.267 134.398



 magnetization (x)

# of ion       s       p       d       tot
------------------------------------------
    1        0.000   0.000   0.003   0.003
    2       -0.000  -0.000  -0.003  -0.003
    3       -0.000  -0.000  -0.003  -0.003
    4        0.000   0.000   0.003   0.003
    5        0.000   0.000   0.033   0.033
    6       -0.000   0.000  -0.026  -0.026
    7       -0.000  -0.000  -0.033  -0.033
    8        0.000  -0.000   0.026   0.026
    9        0.000  -0.000   0.000  -0.000
   10        0.000  -0.000  -0.000  -0.000
   11       -0.000   0.000  -0.000   0.000
   12       -0.000   0.000   0.000   0.000
   13        0.000  -0.000   0.000  -0.000
   14        0.000  -0.000  -0.000  -0.000
   15       -0.000   0.000  -0.000   0.000
   16       -0.000   0.000   0.000   0.000
--------------------------------------------------
tot          0.000   0.000   0.000   0.000
 
    CHARGE:  cpu time      2.3712: real time      2.3900
    FORLOC:  cpu time      0.0026: real time      0.0026
    FORNL :  cpu time     15.1147: real time     15.2315
    STRESS:  cpu time     45.3145: real time     45.6773
    FORCOR:  cpu time      0.0393: real time      0.0395
    FORHAR:  cpu time      0.0053: real time      0.0054
    MIXING:  cpu time      0.0019: real time      0.0019
    OFIELD:  cpu time      0.0000: real time      0.0000
    FORVDW:  cpu time      0.9310: real time      0.9351

  FORCE on cell =-STRESS in cart. coord.  units (eV):
  Direction    XX          YY          ZZ          XY          YZ          ZX
  --------------------------------------------------------------------------------------
  Alpha Z   852.18653   852.18653   852.18653
  Ewald     554.09005  1112.91938-11208.09145   126.02979  -148.01570  2627.62449
  Hartree  6802.49596  7287.04159 -3412.71031   103.49275  -131.96313  2281.78302
  E(xc)    -896.97294  -896.89957  -898.28800     0.00303    -0.00929     0.26080
  Local   -9266.67361-10309.49375 12697.82841  -233.78730   278.99796 -4906.52508
  n-local  -270.13400  -270.53775  -261.08545     0.56826     0.33267    -1.84552
  augment   517.57085   517.38806   520.62376     0.21333    -0.00557    -0.75803
  Kinetic  1710.91841  1710.82747  1712.81529     3.46522     0.62470    -0.57813
  Fock        0.00000     0.00000     0.00000     0.00000     0.00000     0.00000
  vdW        -5.49946    -5.50554    -5.17795     0.00448     0.01916    -0.07456
  -------------------------------------------------------------------------------------
  Total      -2.01823    -2.07359    -1.89920    -0.01044    -0.01921    -0.11301
  in kB     -10.85086   -11.14850   -10.21093    -0.05613    -0.10327    -0.60757
  external pressure =      -10.74 kB  Pullay stress =        0.00 kB


 VOLUME and BASIS-vectors are now :
 -----------------------------------------------------------------------------
  energy-cutoff  :      550.00
  volume of cell :      298.00
      direct lattice vectors                 reciprocal lattice vectors
     4.948739383 -5.010867474  1.126258766     0.106402057 -0.099030541 -0.020230665
     4.702299342  4.861390940  0.934628126     0.108631558  0.103695756 -0.015967538
     1.096374194 -0.148615532  6.493802510    -0.034088865  0.002250922  0.159799851

  length of vectors
     7.132129635  6.827757370  6.587381421     0.146757370  0.151025122  0.163410862


 FORCES acting on ions
    electron-ion (+dipol)            ewald-force                    non-local-force                 convergence-correction
 -----------------------------------------------------------------------------------------------
   -.868E+02 0.890E+02 -.180E+02   0.879E+02 -.901E+02 0.182E+02   -.116E+01 0.114E+01 -.240E+00   -.291E-02 -.773E-02 -.224E-03
   0.868E+02 -.890E+02 0.180E+02   -.879E+02 0.901E+02 -.182E+02   0.116E+01 -.114E+01 0.240E+00   0.291E-02 0.773E-02 0.224E-03
   -.868E+02 0.890E+02 -.180E+02   0.879E+02 -.901E+02 0.182E+02   -.116E+01 0.114E+01 -.240E+00   -.291E-02 -.773E-02 -.224E-03
   0.868E+02 -.890E+02 0.180E+02   -.879E+02 0.901E+02 -.182E+02   0.116E+01 -.114E+01 0.240E+00   0.291E-02 0.773E-02 0.224E-03
   0.283E-10 -.185E-10 -.200E-10   0.176E-10 0.396E-10 0.129E-10   -.166E-22 -.134E-21 -.336E-22   -.162E-12 0.519E-12 0.138E-11
   0.150E-10 -.179E-10 -.227E-10   0.230E-10 0.164E-11 0.726E-11   0.596E-22 0.464E-21 0.139E-21   -.432E-12 -.712E-13 0.118E-11
   0.115E-10 -.331E-10 -.959E-10   0.177E-10 0.397E-10 0.131E-10   -.334E-21 0.749E-22 0.917E-22   -.124E-12 0.382E-12 0.186E-11
   0.369E-10 -.109E-10 -.882E-10   0.229E-10 0.158E-11 0.733E-11   0.298E-21 -.270E-21 -.265E-21   -.554E-12 0.179E-13 0.170E-11
   -.980E+02 -.103E+01 0.502E+03   0.979E+02 0.155E+01 -.504E+03   0.365E-01 -.532E+00 0.235E+01   -.138E-02 -.224E-02 0.226E-02
   -.115E+03 0.148E+02 0.498E+03   0.116E+03 -.154E+02 -.500E+03   -.103E+01 0.570E+00 0.209E+01   0.405E-03 0.235E-02 0.244E-02
   -.980E+02 -.103E+01 0.502E+03   0.979E+02 0.155E+01 -.504E+03   0.365E-01 -.532E+00 0.235E+01   -.138E-02 -.224E-02 0.226E-02
   -.115E+03 0.148E+02 0.498E+03   0.116E+03 -.154E+02 -.500E+03   -.103E+01 0.570E+00 0.209E+01   0.405E-03 0.235E-02 0.244E-02
   0.980E+02 0.103E+01 -.502E+03   -.979E+02 -.155E+01 0.504E+03   -.365E-01 0.532E+00 -.235E+01   0.138E-02 0.224E-02 -.226E-02
   0.115E+03 -.148E+02 -.498E+03   -.116E+03 0.154E+02 0.500E+03   0.103E+01 -.570E+00 -.209E+01   -.405E-03 -.235E-02 -.244E-02
   0.980E+02 0.103E+01 -.502E+03   -.979E+02 -.155E+01 0.504E+03   -.365E-01 0.532E+00 -.235E+01   0.138E-02 0.224E-02 -.226E-02
   0.115E+03 -.148E+02 -.498E+03   -.116E+03 0.154E+02 0.500E+03   0.103E+01 -.570E+00 -.209E+01   -.405E-03 -.235E-02 -.244E-02
 -----------------------------------------------------------------------------------------------
   0.364E-09 -.480E-10 -.508E-09   0.000E+00 0.231E-13 0.000E+00   -.222E-15 -.222E-15 0.444E-15   -.211E-11 0.101E-11 0.117E-10
 
 
 POSITION                                       TOTAL-FORCE (eV/Angst)
 -----------------------------------------------------------------------------------
      5.83814     -4.94822      7.57059        -0.017798      0.018837     -0.007045
      2.55813      2.21943      0.51679         0.017798     -0.018837      0.007045
      3.36377     -2.44279      7.00746        -0.017798      0.018837     -0.007045
      5.03250     -0.28600      1.07992         0.017798     -0.018837      0.007045
      2.41276     -0.03737      0.51522        -0.000000      0.000000     -0.000000
      4.76391      2.39333      0.98254        -0.000000      0.000000     -0.000000
      4.88713     -2.54280      1.07835        -0.000000      0.000000     -0.000000
      7.23828     -0.11211      1.54567        -0.000000      0.000000     -0.000000
      2.37671     -1.12289      5.13898        -0.029306     -0.016188      0.002324
      5.31734      0.70878      5.74435        -0.040057     -0.004155     -0.005524
      4.85108     -3.62832      5.70211        -0.029306     -0.016188      0.002324
      7.79171     -1.79665      6.30748        -0.040057     -0.004155     -0.005524
      3.54518      0.89954      2.38527         0.029306      0.016188     -0.002324
      5.30685      3.92926      2.71452         0.040057      0.004155      0.005524
      6.01955     -1.60590      2.94840         0.029306      0.016188     -0.002324
      7.78122      1.42382      3.27765         0.040057      0.004155      0.005524
 -----------------------------------------------------------------------------------
    total drift:                                0.000000     -0.000000     -0.000000


--------------------------------------------------------------------------------------------------------



  FREE ENERGIE OF THE ION-ELECTRON SYSTEM (eV)
  ---------------------------------------------------
  free  energy   TOTEN  =      -101.64357897 eV

  energy  without entropy=     -101.64357897  energy(sigma->0) =     -101.64357897
 


--------------------------------------------------------------------------------------------------------


    POTLOK:  cpu time      0.3198: real time      0.3326


--------------------------------------------------------------------------------------------------------


     LOOP+:  cpu time   1455.7007: real time   1466.6377
 -----------------------------------------------------------------------------
|                                                                             |
|           W    W    AA    RRRRR   N    N  II  N    N   GGGG   !!!           |
|           W    W   A  A   R    R  NN   N  II  NN   N  G    G  !!!           |
|           W    W  A    A  R    R  N N  N  II  N N  N  G       !!!           |
|           W WW W  AAAAAA  RRRRR   N  N N  II  N  N N  G  GGG   !            |
|           WW  WW  A    A  R   R   N   NN  II  N   NN  G    G                |
|           W    W  A    A  R    R  N    N  II  N    N   GGGG   !!!           |
|                                                                             |
|     Tetrahedron method does not include variations of the Fermi             |
|     occupations, so forces and stress will be inaccurate. We suggest        |
|     using a different smearing scheme ISMEAR = 1 or 2 for metals in         |
|     relaxations.                                                            |
|                                                                             |
 -----------------------------------------------------------------------------

    4ORBIT:  cpu time      0.0000: real time      0.0000



 total charge

# of ion       s       p       d       tot
------------------------------------------
    1        0.356   6.381   6.217  12.953
    2        0.356   6.381   6.217  12.953
    3        0.356   6.381   6.217  12.953
    4        0.356   6.381   6.217  12.953
    5        0.350   6.401   6.206  12.957
    6        0.349   6.400   6.205  12.955
    7        0.350   6.401   6.206  12.957
    8        0.349   6.400   6.205  12.955
    9        1.473   2.299   0.072   3.845
   10        1.474   2.299   0.073   3.846
   11        1.473   2.299   0.072   3.845
   12        1.474   2.299   0.073   3.846
   13        1.473   2.299   0.072   3.845
   14        1.474   2.299   0.073   3.846
   15        1.473   2.299   0.072   3.845
   16        1.474   2.299   0.073   3.846
--------------------------------------------------
tot         14.611  69.519  50.267 134.398



 magnetization (x)

# of ion       s       p       d       tot
------------------------------------------
    1        0.000   0.000   0.003   0.003
    2       -0.000  -0.000  -0.003  -0.003
    3       -0.000  -0.000  -0.003  -0.003
    4        0.000   0.000   0.003   0.003
    5        0.000   0.000   0.033   0.033
    6       -0.000   0.000  -0.026  -0.026
    7       -0.000  -0.000  -0.033  -0.033
    8        0.000  -0.000   0.026   0.026
    9        0.000  -0.000   0.000  -0.000
   10        0.000  -0.000  -0.000  -0.000
   11       -0.000   0.000  -0.000   0.000
   12       -0.000   0.000   0.000   0.000
   13        0.000  -0.000   0.000  -0.000
   14        0.000  -0.000  -0.000  -0.000
   15       -0.000   0.000  -0.000   0.000
   16       -0.000   0.000   0.000   0.000
--------------------------------------------------
tot          0.000   0.000   0.000   0.000
 
 BZINTS: Fermi energy:    3.916167;  160.000000 electrons
         Band energy:-0.239201E+04;  BLOECHL correction:   -0.007624

 total amount of memory used by VASP MPI-rank0   317597. kBytes
=======================================================================

   base      :      30000. kBytes
   nonlr-proj:      12791. kBytes
   fftplans  :       2458. kBytes
   grid      :      16581. kBytes
   one-center:        497. kBytes
   wavefun   :     255270. kBytes
 
  
  
 General timing and accounting informations for this job:
 ========================================================
  
                  Total CPU time used (sec):     1495.138
                            User time (sec):     1492.796
                          System time (sec):        2.342
                         Elapsed time (sec):     1506.996
  
                   Maximum memory used (kb):      690092.
                   Average memory used (kb):          N/A
  
                          Minor page faults:       352511
                          Major page faults:           78
                 Voluntary context switches:         3200
