       N       E                     dE             d eps       ncg     rms          rms(c)
DAV:   1    -0.143068657761E+02   -0.14307E+02   -0.45791E+03 19840   0.713E+01
DAV:   2    -0.150710283837E+02   -0.76416E+00   -0.76099E+00 22144   0.278E+00
DAV:   3    -0.150711372179E+02   -0.10883E-03   -0.10861E-03 14848   0.372E-02
DAV:   4    -0.150711372214E+02   -0.35278E-08   -0.22264E-08 28160   0.152E-04
DAV:   5    -0.150711372208E+02    0.60271E-09    0.25484E-12 14848   0.145E-08    0.261E+00
DAV:   6    -0.150192192412E+02    0.51918E-01   -0.67007E-03 17280   0.487E-02    0.152E+00
DAV:   7    -0.149816614115E+02    0.37558E-01   -0.19105E-02 19840   0.769E-02    0.269E-01
DAV:   8    -0.149815635988E+02    0.97813E-04   -0.28976E-05 18688   0.315E-03    0.409E-02
DAV:   9    -0.149815610164E+02    0.25824E-05   -0.42613E-06 22656   0.122E-03    0.126E-03
DAV:  10    -0.149815600263E+02    0.99014E-06   -0.62348E-09 18816   0.629E-05
   1 F= -.14981560E+02 E0= -.14981560E+02  d E =0.000000E+00
