       N       E                     dE             d eps       ncg     rms          rms(c)
DAV:   1    -0.143114097758E+02   -0.14311E+02   -0.46727E+03 29824   0.719E+01
DAV:   2    -0.150707373917E+02   -0.75933E+00   -0.75435E+00 33408   0.277E+00
DAV:   3    -0.150708527510E+02   -0.11536E-03   -0.11435E-03 23936   0.379E-02
DAV:   4    -0.150708527537E+02   -0.27471E-08   -0.21007E-08 40448   0.139E-04
DAV:   5    -0.150708527528E+02    0.94855E-09    0.78477E-13 23808   0.206E-08    0.261E+00
DAV:   6    -0.150184087203E+02    0.52444E-01   -0.68156E-03 27136   0.491E-02    0.152E+00
DAV:   7    -0.149805214261E+02    0.37887E-01   -0.19395E-02 30976   0.774E-02    0.270E-01
DAV:   8    -0.149804325945E+02    0.88832E-04   -0.28766E-05 26496   0.311E-03    0.408E-02
DAV:   9    -0.149804296753E+02    0.29192E-05   -0.43353E-06 35968   0.122E-03    0.126E-03
DAV:  10    -0.149804286845E+02    0.99079E-06   -0.61588E-09 25728   0.612E-05
   1 F= -.14980429E+02 E0= -.14980429E+02  d E =0.000000E+00
