       N       E                     dE             d eps       ncg     rms          rms(c)
DAV:   1    -0.143923420665E+02   -0.14392E+02   -0.46793E+03 30336   0.718E+01
DAV:   2    -0.150772776458E+02   -0.68494E+00   -0.67914E+00 33536   0.271E+00
DAV:   3    -0.150773734506E+02   -0.95805E-04   -0.94953E-04 23552   0.349E-02
DAV:   4    -0.150773734528E+02   -0.22189E-08   -0.15845E-08 40704   0.126E-04
DAV:   5    -0.150773734522E+02    0.67416E-09   -0.96875E-14 23552   0.202E-08    0.260E+00
DAV:   6    -0.150252394198E+02    0.52134E-01   -0.67425E-03 27648   0.488E-02    0.151E+00
DAV:   7    -0.149875143419E+02    0.37725E-01   -0.19203E-02 30848   0.770E-02    0.269E-01
DAV:   8    -0.149874096120E+02    0.10473E-03   -0.29089E-05 27904   0.310E-03    0.409E-02
DAV:   9    -0.149874057600E+02    0.38520E-05   -0.42563E-06 35072   0.121E-03    0.126E-03
DAV:  10    -0.149874047708E+02    0.98922E-06   -0.60249E-09 26496   0.607E-05
   1 F= -.14987405E+02 E0= -.14987405E+02  d E =0.000000E+00
