       N       E                     dE             d eps       ncg     rms          rms(c)
DAV:   1    -0.140258996474E+02   -0.14026E+02   -0.46635E+03  6528   0.718E+01
DAV:   2    -0.150806330504E+02   -0.10547E+01   -0.10341E+01  7808   0.308E+00
DAV:   3    -0.150808123765E+02   -0.17933E-03   -0.17607E-03  5376   0.491E-02
DAV:   4    -0.150808123797E+02   -0.32156E-08   -0.39116E-08  9984   0.211E-04
DAV:   5    -0.150808123799E+02   -0.15586E-09    0.16466E-12  5376   0.148E-08    0.262E+00
DAV:   6    -0.150290986659E+02    0.51714E-01   -0.63767E-03  6272   0.482E-02    0.153E+00
DAV:   7    -0.149909036568E+02    0.38195E-01   -0.18403E-02  7040   0.764E-02    0.271E-01
DAV:   8    -0.149908277769E+02    0.75880E-04   -0.27438E-05  6272   0.310E-03    0.420E-02
DAV:   9    -0.149908095677E+02    0.18209E-04   -0.43730E-06  7680   0.124E-03    0.128E-03
DAV:  10    -0.149908086428E+02    0.92496E-06   -0.60183E-09  7296   0.614E-05
   1 F= -.14990809E+02 E0= -.14990809E+02  d E =0.000000E+00
