       N       E                     dE             d eps       ncg     rms          rms(c)
DAV:   1    -0.143356250295E+02   -0.14336E+02   -0.47084E+03 20224   0.723E+01
DAV:   2    -0.150622728029E+02   -0.72665E+00   -0.72443E+00 22144   0.275E+00
DAV:   3    -0.150623798972E+02   -0.10709E-03   -0.10648E-03 15872   0.369E-02
DAV:   4    -0.150623798991E+02   -0.18885E-08   -0.19542E-08 26880   0.139E-04
DAV:   5    -0.150623798982E+02    0.84503E-09    0.44577E-12 15872   0.211E-08    0.260E+00
DAV:   6    -0.150104416646E+02    0.51938E-01   -0.67726E-03 17408   0.488E-02    0.151E+00
DAV:   7    -0.149731596890E+02    0.37282E-01   -0.19224E-02 19968   0.769E-02    0.269E-01
DAV:   8    -0.149730595676E+02    0.10012E-03   -0.29630E-05 18688   0.313E-03    0.404E-02
DAV:   9    -0.149730588714E+02    0.69626E-06   -0.41447E-06 22528   0.120E-03
   1 F= -.14973059E+02 E0= -.14973059E+02  d E =0.000000E+00
