 vasp.6.4.3 19Mar24 (build Mar 26 2024 14:05:37) complex                        
  
 executed on             LinuxIFC date 2025.01.02  08:52:05
 running  128 mpi-ranks, on    1 nodes
 distrk:  each k-point on  128 cores,    1 groups
 distr:  one band on NCORE=   1 cores,  128 groups


--------------------------------------------------------------------------------------------------------


 INCAR:
   EDIFF = 1e-06
   EDIFFG = -0.01
   ENCUT = 520
   GGA = Pe
   IBRION = -1
   ISIF = 2
   ISMEAR = -5
   LCHARG = False
   LREAL = False
   LWAVE = False
   NELM = 200
   NSW = 0
   PREC = Accurate
   SIGMA = 0.2

 POTCAR:    PAW_PBE Al 04Jan2001                  
 -----------------------------------------------------------------------------
|                                                                             |
|           W    W    AA    RRRRR   N    N  II  N    N   GGGG   !!!           |
|           W    W   A  A   R    R  NN   N  II  NN   N  G    G  !!!           |
|           W    W  A    A  R    R  N N  N  II  N N  N  G       !!!           |
|           W WW W  AAAAAA  RRRRR   N  N N  II  N  N N  G  GGG   !            |
|           WW  WW  A    A  R   R   N   NN  II  N   NN  G    G                |
|           W    W  A    A  R    R  N    N  II  N    N   GGGG   !!!           |
|                                                                             |
|     For optimal performance we recommend to set                             |
|       NCORE = 2 up to number-of-cores-per-socket                            |
|     NCORE specifies how many cores store one orbital (NPAR=cpu/NCORE).      |
|     This setting can greatly improve the performance of VASP for DFT.       |
|     The default, NCORE=1 might be grossly inefficient on modern             |
|     multi-core architectures or massively parallel machines. Do your        |
|     own testing! More info at https://www.vasp.at/wiki/index.php/NCORE      |
|     Unfortunately you need to use the default for GW and RPA                |
|     calculations (for HF NCORE is supported but not extensively tested      |
|     yet).                                                                   |
|                                                                             |
 -----------------------------------------------------------------------------

 POTCAR:    PAW_PBE Al 04Jan2001                  
   SHA256 =  17880443556af62b473fe41b62a467bd001ad55d2cabe504a3f22e34d4e9db96 Al/POTCAR             
   COPYR  = (c) Copyright 04Jan2001 Georg Kresse                                                    
   COPYR  = This file is part of the software VASP. Any use, copying, and all other rights are regul
   COPYR  = If you do not have a valid VASP license, you may not use, copy or distribute this file. 
   VRHFIN =Al: s2p1                                                                                 
   LEXCH  = PE                                                                                      
   EATOM  =    53.5387 eV,    3.9350 Ry                                                             
                                                                                                    
   TITEL  = PAW_PBE Al 04Jan2001                                                                    
   LULTRA =        F    use ultrasoft PP ?                                                          
   IUNSCR =        1    unscreen: 0-lin 1-nonlin 2-no                                               
   RPACOR =    1.500    partial core radius                                                         
   POMASS =   26.981; ZVAL   =    3.000    mass and valenz                                          
   RCORE  =    1.900    outmost cutoff radius                                                       
   RWIGS  =    2.650; RWIGS  =    1.402    wigner-seitz radius (au A)                               
   ENMAX  =  240.300; ENMIN  =  180.225 eV                                                          
   ICORE  =        2    local potential                                                             
   LCOR   =        T    correct aug charges                                                         
   LPAW   =        T    paw PP                                                                      
   EAUG   =  291.052                                                                                
   DEXC   =    0.000                                                                                
   RMAX   =    1.939    core radius for proj-oper                                                   
   RAUG   =    1.300    factor for augmentation sphere                                              
   RDEP   =    1.966    radius for radial grids                                                     
   RDEPT  =    1.856    core radius for aug-charge                                                  
                                                                                                    
   Atomic configuration                                                                             
    6 entries                                                                                       
     n  l   j            E        occ.                                                              
     1  0  0.50     -1511.1048   2.0000                                                             
     2  0  0.50      -108.1629   2.0000                                                             
     2  1  1.50       -69.6402   6.0000                                                             
     3  0  0.50        -7.7528   2.0000                                                             
     3  1  1.50        -2.7121   1.0000                                                             
     3  2  2.50        -2.7212   0.0000                                                             
   Description                                                                                      
     l       E           TYP  RCUT    TYP  RCUT                                                     
     0     -7.7528455     23  1.900                                                                 
     0     -3.3096929     23  1.900                                                                 
     1     -2.7120682     23  1.900                                                                 
     1     13.6058260     23  1.900                                                                 
     2     -2.7211652      7  1.900                                                                 
  local pseudopotential read in
  partial core-charges read in
  partial kinetic energy density read in
  atomic valenz-charges read in
  non local Contribution for L=           0  read in
    real space projection operators read in
  non local Contribution for L=           0  read in
    real space projection operators read in
  non local Contribution for L=           1  read in
    real space projection operators read in
  non local Contribution for L=           1  read in
    real space projection operators read in
    PAW grid and wavefunctions read in
 
   number of l-projection  operators is LMAX  =           4
   number of lm-projection operators is LMMAX =           8
 
  PAW_PBE Al 04Jan2001                  :
 energy of atom  1       EATOM=  -53.5387
 kinetic energy error for atom=    0.0002 (will be added to EATOM!!)
 
 
 POSCAR: Al4
  positions in direct lattice
  velocities in cartesian coordinates


 exchange-correlation table for PE
   RHO(1)=    0.500       N(1)  =     2000
   RHO(2)=  100.500       N(2)  =     4000
 


--------------------------------------------------------------------------------------------------------


 ion  position               nearest neighbor table
   1  0.000  0.000  0.000-   2 2.86   3 2.86   2 2.86   3 2.86   2 2.86   4 2.86   2 2.86   3 2.86
                             4 2.86   3 2.86   4 2.86   4 2.86
   2  0.000  0.500  0.500-   1 2.86   4 2.86   1 2.86   4 2.86   1 2.86   3 2.86   1 2.86   3 2.86
                             4 2.86   4 2.86   3 2.86   3 2.86
   3  0.500  0.000  0.500-   1 2.86   4 2.86   1 2.86   4 2.86   2 2.86   4 2.86   4 2.86   1 2.86
                             2 2.86   1 2.86   2 2.86   2 2.86
   4  0.500  0.500  0.000-   2 2.86   3 2.86   2 2.86   3 2.86   1 2.86   3 2.86   3 2.86   1 2.86
                             2 2.86   2 2.86   1 2.86   1 2.86
 
  LATTYP: Found a simple cubic cell.
 ALAT       =     4.0436897231
  
  Lattice vectors:
  
 A1 = (   4.0436897231,   0.0000000000,   0.0000000000)
 A2 = (   0.0000000000,   4.0436897231,   0.0000000000)
 A3 = (   0.0000000000,   0.0000000000,   4.0436897231)


Analysis of symmetry for initial positions (statically):
=====================================================================
 Subroutine PRICEL returns following result:
 
  LATTYP: Found a face centered cubic cell.
 ALAT       =     4.0436897231
  
  Lattice vectors:
  
 A1 = (   2.0218448615,  -2.0218448615,   0.0000000000)
 A2 = (   2.0218448615,   0.0000000000,   2.0218448615)
 A3 = (  -0.0000000000,  -2.0218448615,   2.0218448615)
 
   4 primitive cells build up your supercell.
 

 Routine SETGRP: Setting up the symmetry group for a 
 simple cubic supercell.


 Subroutine GETGRP returns: Found 48 space group operations
 (whereof 48 operations were pure point group operations)
 out of a pool of 48 trial point group operations.


The static configuration has the point symmetry O_h .


Analysis of symmetry for dynamics (positions and initial velocities):
=====================================================================
 Subroutine PRICEL returns following result:
 
  LATTYP: Found a face centered cubic cell.
 ALAT       =     4.0436897231
  
  Lattice vectors:
  
 A1 = (   2.0218448615,  -2.0218448615,   0.0000000000)
 A2 = (   2.0218448615,   0.0000000000,   2.0218448615)
 A3 = (  -0.0000000000,  -2.0218448615,   2.0218448615)
 
   4 primitive cells build up your supercell.
 

 Routine SETGRP: Setting up the symmetry group for a 
 simple cubic supercell.


 Subroutine GETGRP returns: Found 48 space group operations
 (whereof 48 operations were pure point group operations)
 out of a pool of 48 trial point group operations.


The dynamic configuration has the point symmetry O_h .


 Subroutine INISYM returns: Found 48 space group operations
 (whereof 48 operations are pure point group operations),
 and found     4 'primitive' translations


----------------------------------------------------------------------------------------

                                     Primitive cell                                     

  volume of cell :      16.5300

  direct lattice vectors                    reciprocal lattice vectors
     2.021844862 -2.021844862  0.000000000     0.247298895 -0.247298895 -0.247298895
     2.021844862  0.000000000  2.021844862     0.247298895  0.247298895  0.247298895
    -0.000000000 -2.021844862  2.021844862    -0.247298895 -0.247298895  0.247298895

  length of vectors
     2.859320424  2.859320424  2.859320424     0.428334251  0.428334251  0.428334251

  position of ions in fractional coordinates (direct lattice)
     0.000000000  0.000000000  0.000000000

  ion indices of the primitive-cell ions
   primitive index   ion index
                 1           1

----------------------------------------------------------------------------------------

 
 
 KPOINTS: pymatgen with grid density = 1000 / numb

Automatic generation of k-mesh.
 Grid dimensions read from file:
 generate k-points for:    6    6    6

 Generating k-lattice:

  Cartesian coordinates                     Fractional coordinates (reciprocal lattice)
     0.041216482 -0.000000000  0.000000000     0.166666667 -0.000000000  0.000000000
     0.000000000  0.041216482  0.000000000     0.000000000  0.166666667  0.000000000
    -0.000000000 -0.000000000  0.041216482     0.000000000  0.000000000  0.166666667

  Length of vectors
     0.041216482  0.041216482  0.041216482

  Shift w.r.t. Gamma in fractional coordinates (k-lattice)
     0.000000000  0.000000000  0.000000000

 TETIRR: Found    104 inequivalent tetrahedra from     1296
 
 Subroutine IBZKPT returns following result:
 ===========================================
 
 Found     20 irreducible k-points:
 
 Following reciprocal coordinates:
            Coordinates               Weight
  0.000000  0.000000  0.000000      1.000000
  0.166667  0.000000  0.000000      6.000000
  0.333333  0.000000  0.000000      6.000000
  0.500000  0.000000  0.000000      3.000000
  0.166667  0.166667  0.000000     12.000000
  0.333333  0.166667  0.000000     24.000000
  0.500000  0.166667  0.000000     12.000000
  0.333333  0.333333  0.000000     12.000000
  0.500000  0.333333  0.000000     12.000000
  0.500000  0.500000  0.000000      3.000000
  0.166667  0.166667  0.166667      8.000000
  0.333333  0.166667  0.166667     24.000000
  0.500000  0.166667  0.166667     12.000000
  0.333333  0.333333  0.166667     24.000000
  0.500000  0.333333  0.166667     24.000000
  0.500000  0.500000  0.166667      6.000000
  0.333333  0.333333  0.333333      8.000000
  0.500000  0.333333  0.333333     12.000000
  0.500000  0.500000  0.333333      6.000000
  0.500000  0.500000  0.500000      1.000000
 
 Following cartesian coordinates:
            Coordinates               Weight
  0.000000  0.000000  0.000000      1.000000
  0.041216  0.000000  0.000000      6.000000
  0.082433  0.000000  0.000000      6.000000
  0.123649  0.000000  0.000000      3.000000
  0.041216  0.041216  0.000000     12.000000
  0.082433  0.041216  0.000000     24.000000
  0.123649  0.041216  0.000000     12.000000
  0.082433  0.082433  0.000000     12.000000
  0.123649  0.082433  0.000000     12.000000
  0.123649  0.123649  0.000000      3.000000
  0.041216  0.041216  0.041216      8.000000
  0.082433  0.041216  0.041216     24.000000
  0.123649  0.041216  0.041216     12.000000
  0.082433  0.082433  0.041216     24.000000
  0.123649  0.082433  0.041216     24.000000
  0.123649  0.123649  0.041216      6.000000
  0.082433  0.082433  0.082433      8.000000
  0.123649  0.082433  0.082433     12.000000
  0.123649  0.123649  0.082433      6.000000
  0.123649  0.123649  0.123649      1.000000
 


--------------------------------------------------------------------------------------------------------




 Dimension of arrays:
   k-points           NKPTS =     20   k-points in BZ     NKDIM =     20   number of bands    NBANDS=    128
   number of dos      NEDOS =    301   number of ions     NIONS =      4
   non local maximal  LDIM  =      4   non local SUM 2l+1 LMDIM =      8
   total plane-waves  NPLWV =  27000
   max r-space proj   IRMAX =      1   max aug-charges    IRDMAX=  16090
   dimension x,y,z NGX =    30 NGY =   30 NGZ =   30
   dimension x,y,z NGXF=    60 NGYF=   60 NGZF=   60
   support grid    NGXF=    60 NGYF=   60 NGZF=   60
   ions per type =               4
   NGX,Y,Z   is equivalent  to a cutoff of  12.33, 12.33, 12.33 a.u.
   NGXF,Y,Z  is equivalent  to a cutoff of  24.67, 24.67, 24.67 a.u.

 SYSTEM =  unknown system                          
 POSCAR =  Al4                                     

 Startparameter for this run:
   NWRITE =      2    write-flag & timer
   PREC   = accura    normal or accurate (medium, high low for compatibility)
   ISTART =      0    job   : 0-new  1-cont  2-samecut
   ICHARG =      2    charge: 1-file 2-atom 10-const
   ISPIN  =      1    spin polarized calculation?
   LNONCOLLINEAR =      F non collinear calculations
   LSORBIT =      F    spin-orbit coupling
   INIWAV =      1    electr: 0-lowe 1-rand  2-diag
   LASPH  =      F    aspherical Exc in radial PAW
 Electronic Relaxation 1
   ENCUT  =  520.0 eV  38.22 Ry    6.18 a.u.   7.52  7.52  7.52*2*pi/ulx,y,z
   ENINI  =  520.0     initial cutoff
   ENAUG  =  291.1 eV  augmentation charge cutoff
   NELM   =    200;   NELMIN=  2; NELMDL= -5     # of ELM steps 
   EDIFF  = 0.1E-05   stopping-criterion for ELM
   LREAL  =      F    real-space projection
   NLSPLINE    = F    spline interpolate recip. space projectors
   LCOMPAT=      F    compatible to vasp.4.4
   GGA_COMPAT  = T    GGA compatible to vasp.4.4-vasp.4.6
   LMAXPAW     = -100 max onsite density
   LMAXMIX     =    2 max onsite mixed and CHGCAR
   VOSKOWN=      0    Vosko Wilk Nusair interpolation
   ROPT   =    0.00000
 Ionic relaxation
   EDIFFG = -.1E-01   stopping-criterion for IOM
   NSW    =      0    number of steps for IOM
   NBLOCK =      1;   KBLOCK =      1    inner block; outer block 
   IBRION =     -1    ionic relax: 0-MD 1-quasi-New 2-CG
   NFREE  =      0    steps in history (QN), initial steepest desc. (CG)
   ISIF   =      2    stress and relaxation
   IWAVPR =     10    prediction:  0-non 1-charg 2-wave 3-comb
   ISYM   =      2    0-nonsym 1-usesym 2-fastsym
   LCORR  =      T    Harris-Foulkes like correction to forces

   POTIM  = 0.5000    time-step for ionic-motion
   TEIN   =    0.0    initial temperature
   TEBEG  =    0.0;   TEEND  =   0.0 temperature during run
   SMASS  =  -3.00    Nose mass-parameter (am)
   estimated Nose-frequenzy (Omega)   =  0.10E-29 period in steps = 0.13E+47 mass=  -0.374E-27a.u.
   SCALEE = 1.0000    scale energy and forces
   NPACO  =    256;   APACO  = 10.0  distance and # of slots for P.C.
   PSTRESS=    0.0 pullay stress

  Mass of Ions in am
   POMASS =  26.98
  Ionic Valenz
   ZVAL   =   3.00
  Atomic Wigner-Seitz radii
   RWIGS  =  -1.00
  virtual crystal weights 
   VCA    =   1.00
   NELECT =      12.0000    total number of electrons
   NUPDOWN=      -1.0000    fix difference up-down

 DOS related values:
   EMIN   =  10.00;   EMAX   =-10.00  energy-range for DOS
   EFERMI =   0.00;   METHOD = LEGACY      
   ISMEAR =    -5;   SIGMA  =   0.20  broadening in eV -4-tet -1-fermi 0-gaus

 Electronic relaxation 2 (details)
   IALGO  =     38    algorithm
   LDIAG  =      T    sub-space diagonalisation (order eigenvalues)
   LSUBROT=      F    optimize rotation matrix (better conditioning)
   TURBO    =      0    0=normal 1=particle mesh
   IRESTART =      0    0=no restart 2=restart with 2 vectors
   NREBOOT  =      0    no. of reboots
   NMIN     =      0    reboot dimension
   EREF     =   0.00    reference energy to select bands
   IMIX   =      4    mixing-type and parameters
     AMIX     =   0.40;   BMIX     =  1.00
     AMIX_MAG =   1.60;   BMIX_MAG =  1.00
     AMIN     =   0.10
     WC   =   100.;   INIMIX=   1;  MIXPRE=   1;  MAXMIX= -45

 Intra band minimization:
   WEIMIN = 0.0000     energy-eigenvalue tresh-hold
   EBREAK =  0.20E-08  absolut break condition
   DEPER  =   0.30     relativ break condition  

   TIME   =   0.40     timestep for ELM

  volume/ion in A,a.u.               =      16.53       111.55
  Fermi-wavevector in a.u.,A,eV,Ry     =   0.926881  1.751552 11.688885  0.859109
  Thomas-Fermi vector in A             =   2.052891
 
 Write flags
   LWAVE        =      F    write WAVECAR
   LDOWNSAMPLE  =      F    k-point downsampling of WAVECAR
   LCHARG       =      F    write CHGCAR
   LVTOT        =      F    write LOCPOT, total local potential
   LVHAR        =      F    write LOCPOT, Hartree potential only
   WRT_POTENTIAL= false  ! write potential to hdf5 file
   LELF         =      F    write electronic localiz. function (ELF)
   LORBIT       =      0    0 simple, 1 ext, 2 COOP (PROOUT), +10 PAW based schemes


 Dipole corrections
   LMONO      =      F    monopole corrections only (constant potential shift)
   LDIPOL     =      F    correct potential (dipole corrections)
   IDIPOL     =      0    1-x, 2-y, 3-z, 4-all directions 
   EPSILON    =  1.0000000 bulk dielectric constant
   LVACPOTAV  =      F  vacuum potentials using an averaging scheme for the charge density
   VACPOTFLAT =  0.1000000 required flatness to determine vacuum potential
 Exchange correlation treatment:
   GGA     = PE    functional components
   XC_C    = 1    coefficients multiplying the functional components
   LIBXC   =     F    Libxc                    
   VOSKOWN =     0    Vosko Wilk Nusair interpolation
   LHFCALC =     F    Hartree Fock is set to
   LHFONE  =     F    Hartree Fock one center treatment
   AEXX    =    0.0000 exact exchange contribution

 Parameters of functionals:
   PE:
     No parameter
 
 Van der Waals corrections
   IVDW    =     0    specifies the selected vdW correction

 Linear response parameters
   LEPSILON=     F    determine dielectric tensor
   LRPA    =     F    only Hartree local field effects (RPA)
   LNABLA  =     F    use nabla operator in PAW spheres
   LVEL    =     F    velocity operator in full k-point grid
   CSHIFT  =0.1000    complex shift for real part using Kramers Kronig
   OMEGAMAX=  -1.0    maximum frequency
   DEG_THRESHOLD= 0.2000000E-02 threshold for treating states as degnerate
   RTIME   =   -0.100 relaxation time in fs
  (WPLASMAI=    0.000 imaginary part of plasma frequency in eV, 0.658/RTIME)
   DFIELD  = 0.0000000 0.0000000 0.0000000 field for delta impulse in time
 
  Optional k-point grid parameters
   LKPOINTS_OPT  =     F    use optional k-point grid
   KPOINTS_OPT_MODE=     1    mode for optional k-point grid
 
 Orbital magnetization related:
   ORBITALMAG=     F  switch on orbital magnetization
   LCHIMAG   =     F  perturbation theory with respect to B field
   DQ        =  0.001000  dq finite difference perturbation B field
   LLRAUG    =     F  two centre corrections for induced B field
   LBONE     =     F  B-component reconstruction in AE one-centre
   LVGVCALC  =     T  calculate vGv susceptibility
   LVGVAPPL  =     F  apply vGv susceptibility instead of pGv for G=0

 Random number generation:
   RANDOM_GENERATOR = DEFAULT
   PCG_SEED         = not used


--------------------------------------------------------------------------------------------------------


 Static calculation
 charge density and potential will be updated during run
 non-spin polarized calculation
 Variant of blocked Davidson
 Davidson routine will perform the subspace rotation
 perform sub-space diagonalisation
    after iterative eigenvector-optimisation
 modified Broyden-mixing scheme, WC =      100.0
 initial mixing is a Kerker type mixing with AMIX =  0.4000 and BMIX =      1.0000
 Hartree-type preconditioning will be used
 using additional bands          122
 reciprocal scheme for non local part
 use partial core corrections
 calculate Harris-corrections to forces 
   (improved forces if not selfconsistent)
 use gradient corrections 
 use of overlap-Matrix (Vanderbilt PP)
 Fermi weights with tetrahedron method with Bloechl corrections


--------------------------------------------------------------------------------------------------------


  energy-cutoff  :      520.00
  volume of cell :       66.12
      direct lattice vectors                 reciprocal lattice vectors
     4.043689723  0.000000000  0.000000000     0.247298895 -0.000000000  0.000000000
     0.000000000  4.043689723  0.000000000     0.000000000  0.247298895  0.000000000
     0.000000000  0.000000000  4.043689723    -0.000000000 -0.000000000  0.247298895

  length of vectors
     4.043689723  4.043689723  4.043689723     0.247298895  0.247298895  0.247298895


 
 k-points in units of 2pi/SCALE and weight: pymatgen with grid density = 1000 / numb
   0.00000000  0.00000000  0.00000000       0.005
   0.04121648  0.00000000  0.00000000       0.028
   0.08243296  0.00000000  0.00000000       0.028
   0.12364945  0.00000000  0.00000000       0.014
   0.04121648  0.04121648  0.00000000       0.056
   0.08243296  0.04121648  0.00000000       0.111
   0.12364945  0.04121648  0.00000000       0.056
   0.08243296  0.08243296  0.00000000       0.056
   0.12364945  0.08243296  0.00000000       0.056
   0.12364945  0.12364945  0.00000000       0.014
   0.04121648  0.04121648  0.04121648       0.037
   0.08243296  0.04121648  0.04121648       0.111
   0.12364945  0.04121648  0.04121648       0.056
   0.08243296  0.08243296  0.04121648       0.111
   0.12364945  0.08243296  0.04121648       0.111
   0.12364945  0.12364945  0.04121648       0.028
   0.08243296  0.08243296  0.08243296       0.037
   0.12364945  0.08243296  0.08243296       0.056
   0.12364945  0.12364945  0.08243296       0.028
   0.12364945  0.12364945  0.12364945       0.005
 
 k-points in reciprocal lattice and weights: pymatgen with grid density = 1000 / numb
   0.00000000  0.00000000  0.00000000       0.005
   0.16666667  0.00000000  0.00000000       0.028
   0.33333333  0.00000000  0.00000000       0.028
   0.50000000  0.00000000  0.00000000       0.014
   0.16666667  0.16666667  0.00000000       0.056
   0.33333333  0.16666667  0.00000000       0.111
   0.50000000  0.16666667  0.00000000       0.056
   0.33333333  0.33333333  0.00000000       0.056
   0.50000000  0.33333333  0.00000000       0.056
   0.50000000  0.50000000  0.00000000       0.014
   0.16666667  0.16666667  0.16666667       0.037
   0.33333333  0.16666667  0.16666667       0.111
   0.50000000  0.16666667  0.16666667       0.056
   0.33333333  0.33333333  0.16666667       0.111
   0.50000000  0.33333333  0.16666667       0.111
   0.50000000  0.50000000  0.16666667       0.028
   0.33333333  0.33333333  0.33333333       0.037
   0.50000000  0.33333333  0.33333333       0.056
   0.50000000  0.50000000  0.33333333       0.028
   0.50000000  0.50000000  0.50000000       0.005
 
 position of ions in fractional coordinates (direct lattice) 
   0.00000000  0.00000000  0.00000000
   0.00000000  0.50000000  0.50000000
   0.50000000  0.00000000  0.50000000
   0.50000000  0.50000000  0.00000000
 
 position of ions in cartesian coordinates  (Angst):
   0.00000000  0.00000000  0.00000000
   0.00000000  2.02184486  2.02184486
   2.02184486  0.00000000  2.02184486
   2.02184486  2.02184486  0.00000000
 


--------------------------------------------------------------------------------------------------------


 k-point     1 :   0.0000 0.0000 0.0000  plane waves:    1791
 k-point     2 :   0.1667 0.0000 0.0000  plane waves:    1795
 k-point     3 :   0.3333 0.0000 0.0000  plane waves:    1783
 k-point     4 :   0.5000 0.0000 0.0000  plane waves:    1800
 k-point     5 :   0.1667 0.1667 0.0000  plane waves:    1789
 k-point     6 :   0.3333 0.1667 0.0000  plane waves:    1789
 k-point     7 :   0.5000 0.1667 0.0000  plane waves:    1786
 k-point     8 :   0.3333 0.3333 0.0000  plane waves:    1774
 k-point     9 :   0.5000 0.3333 0.0000  plane waves:    1772
 k-point    10 :   0.5000 0.5000 0.0000  plane waves:    1772
 k-point    11 :   0.1667 0.1667 0.1667  plane waves:    1791
 k-point    12 :   0.3333 0.1667 0.1667  plane waves:    1790
 k-point    13 :   0.5000 0.1667 0.1667  plane waves:    1774
 k-point    14 :   0.3333 0.3333 0.1667  plane waves:    1774
 k-point    15 :   0.5000 0.3333 0.1667  plane waves:    1766
 k-point    16 :   0.5000 0.5000 0.1667  plane waves:    1784
 k-point    17 :   0.3333 0.3333 0.3333  plane waves:    1770
 k-point    18 :   0.5000 0.3333 0.3333  plane waves:    1784
 k-point    19 :   0.5000 0.5000 0.3333  plane waves:    1780
 k-point    20 :   0.5000 0.5000 0.5000  plane waves:    1736

 maximum and minimum number of plane-waves per node :      1800     1736

 maximum number of plane-waves:      1800
 maximum index in each direction: 
   IXMAX=    7   IYMAX=    7   IZMAX=    7
   IXMIN=   -8   IYMIN=   -8   IZMIN=   -7


 serial   3D FFT for wavefunctions
 parallel 3D FFT for charge:
    minimum data exchange during FFTs selected (reduces bandwidth)


 total amount of memory used by VASP MPI-rank0    34774. kBytes
=======================================================================

   base      :      30000. kBytes
   nonl-proj :       2580. kBytes
   fftplans  :        256. kBytes
   grid      :       1271. kBytes
   one-center:         12. kBytes
   wavefun   :        655. kBytes
 
     INWAV:  cpu time      0.0000: real time      0.0000
 Broyden mixing: mesh for mixing (old mesh)
   NGX = 15   NGY = 15   NGZ = 15
  (NGX  = 60   NGY  = 60   NGZ  = 60)
  gives a total of   3375 points

 initial charge density was supplied:
 charge density of overlapping atoms calculated
 number of electron      12.0000000 magnetization 
 keeping initial charge density in first step


--------------------------------------------------------------------------------------------------------


 Maximum index for augmentation-charges          749 (set IRDMAX)


--------------------------------------------------------------------------------------------------------


 First call to EWALD:  gamma=   0.438
 Maximum number of real-space cells 3x 3x 3
 Maximum number of reciprocal cells 3x 3x 3

    FEWALD:  cpu time      0.0037: real time      0.0037


--------------------------------------- Ionic step        1  -------------------------------------------




--------------------------------------- Iteration      1(   1)  ---------------------------------------


    POTLOK:  cpu time      0.0197: real time      0.0222
    SETDIJ:  cpu time      0.0063: real time      0.0065
     EDDAV:  cpu time     11.4505: real time     11.5019
 BZINTS: Fermi energy:    7.981118;   12.000000 electrons
         Band energy: 0.437199E+02;  BLOECHL correction:   -0.542857
       DOS:  cpu time      0.0127: real time      0.0135
    --------------------------------------------
      LOOP:  cpu time     11.4897: real time     11.5446

 eigenvalue-minimisations  :  7168
 total energy-change (2. order) :-0.1438604E+02  (-0.4976880E+03)
 number of electron      12.0000000 magnetization 
 augmentation part       12.0000000 magnetization 

 Free energy of the ion-electron system (eV)
  ---------------------------------------------------
  alpha Z        PSCENC =        -0.81277799
  Ewald energy   TEWEN  =      -293.88473869
  -Hartree energ DENC   =        -0.40832449
  -exchange      EXHF   =         0.00000000
  -V(xc)+E(xc)   XCENC  =      -104.97206531
  PAW double counting   =       264.80062850     -136.98248303
  entropy T*S    EENTRO =         0.00000000
  eigenvalues    EBANDS =        43.71989029
  atomic energy  EATOM  =       214.15382826
  Solvation  Ediel_sol  =         0.00000000
  ---------------------------------------------------
  free energy    TOTEN  =       -14.38604245 eV

  energy without entropy =      -14.38604245  energy(sigma->0) =      -14.38604245


--------------------------------------------------------------------------------------------------------




--------------------------------------- Iteration      1(   2)  ---------------------------------------


     EDDAV:  cpu time     13.4340: real time     13.5036
 BZINTS: Fermi energy:    7.843250;   12.000000 electrons
         Band energy: 0.429591E+02;  BLOECHL correction:   -0.539842
       DOS:  cpu time      0.0094: real time      0.0095
    --------------------------------------------
      LOOP:  cpu time     13.4430: real time     13.5126

 eigenvalue-minimisations  :  7552
 total energy-change (2. order) :-0.7607405E+00  (-0.7499375E+00)
 number of electron      12.0000000 magnetization 
 augmentation part       12.0000000 magnetization 

 Free energy of the ion-electron system (eV)
  ---------------------------------------------------
  alpha Z        PSCENC =        -0.81277799
  Ewald energy   TEWEN  =      -293.88473869
  -Hartree energ DENC   =        -0.40832449
  -exchange      EXHF   =         0.00000000
  -V(xc)+E(xc)   XCENC  =      -104.97206531
  PAW double counting   =       264.80062850     -136.98248303
  entropy T*S    EENTRO =         0.00000000
  eigenvalues    EBANDS =        42.95914982
  atomic energy  EATOM  =       214.15382826
  Solvation  Ediel_sol  =         0.00000000
  ---------------------------------------------------
  free energy    TOTEN  =       -15.14678293 eV

  energy without entropy =      -15.14678293  energy(sigma->0) =      -15.14678293


--------------------------------------------------------------------------------------------------------




--------------------------------------- Iteration      1(   3)  ---------------------------------------


     EDDAV:  cpu time      8.9700: real time      9.0183
 BZINTS: Fermi energy:    7.843226;   12.000000 electrons
         Band energy: 0.429590E+02;  BLOECHL correction:   -0.539843
       DOS:  cpu time      0.0077: real time      0.0077
    --------------------------------------------
      LOOP:  cpu time      8.9776: real time      9.0260

 eigenvalue-minimisations  :  5888
 total energy-change (2. order) :-0.1266651E-03  (-0.1240784E-03)
 number of electron      12.0000000 magnetization 
 augmentation part       12.0000000 magnetization 

 Free energy of the ion-electron system (eV)
  ---------------------------------------------------
  alpha Z        PSCENC =        -0.81277799
  Ewald energy   TEWEN  =      -293.88473869
  -Hartree energ DENC   =        -0.40832449
  -exchange      EXHF   =         0.00000000
  -V(xc)+E(xc)   XCENC  =      -104.97206531
  PAW double counting   =       264.80062850     -136.98248303
  entropy T*S    EENTRO =         0.00000000
  eigenvalues    EBANDS =        42.95902315
  atomic energy  EATOM  =       214.15382826
  Solvation  Ediel_sol  =         0.00000000
  ---------------------------------------------------
  free energy    TOTEN  =       -15.14690960 eV

  energy without entropy =      -15.14690960  energy(sigma->0) =      -15.14690960


--------------------------------------------------------------------------------------------------------




--------------------------------------- Iteration      1(   4)  ---------------------------------------


     EDDAV:  cpu time     23.6898: real time     23.8015
 BZINTS: Fermi energy:    7.843226;   12.000000 electrons
         Band energy: 0.429590E+02;  BLOECHL correction:   -0.539843
       DOS:  cpu time      0.0076: real time      0.0077
    --------------------------------------------
      LOOP:  cpu time     23.6975: real time     23.8092

 eigenvalue-minimisations  :  9472
 total energy-change (2. order) :-0.2364743E-08  (-0.1988723E-08)
 number of electron      12.0000000 magnetization 
 augmentation part       12.0000000 magnetization 

 Free energy of the ion-electron system (eV)
  ---------------------------------------------------
  alpha Z        PSCENC =        -0.81277799
  Ewald energy   TEWEN  =      -293.88473869
  -Hartree energ DENC   =        -0.40832449
  -exchange      EXHF   =         0.00000000
  -V(xc)+E(xc)   XCENC  =      -104.97206531
  PAW double counting   =       264.80062850     -136.98248303
  entropy T*S    EENTRO =         0.00000000
  eigenvalues    EBANDS =        42.95902315
  atomic energy  EATOM  =       214.15382826
  Solvation  Ediel_sol  =         0.00000000
  ---------------------------------------------------
  free energy    TOTEN  =       -15.14690960 eV

  energy without entropy =      -15.14690960  energy(sigma->0) =      -15.14690960


--------------------------------------------------------------------------------------------------------




--------------------------------------- Iteration      1(   5)  ---------------------------------------


     EDDAV:  cpu time      9.7255: real time      9.7763
 BZINTS: Fermi energy:    7.843226;   12.000000 electrons
         Band energy: 0.429590E+02;  BLOECHL correction:   -0.539843
       DOS:  cpu time      0.0077: real time      0.0078
    CHARGE:  cpu time      0.0261: real time      0.0268
    MIXING:  cpu time      0.0078: real time      0.0083
    --------------------------------------------
      LOOP:  cpu time      9.7672: real time      9.8193

 eigenvalue-minimisations  :  5888
 total energy-change (2. order) : 0.4012577E-09  (-0.3259978E-12)
 number of electron      12.0000000 magnetization 
 augmentation part       -0.1490908 magnetization 

 Broyden mixing:
  rms(total) = 0.26009E+00    rms(broyden)= 0.26009E+00
  rms(prec ) = 0.46902E+00
  weight for this iteration     100.00

 Free energy of the ion-electron system (eV)
  ---------------------------------------------------
  alpha Z        PSCENC =        -0.81277799
  Ewald energy   TEWEN  =      -293.88473869
  -Hartree energ DENC   =        -0.40832449
  -exchange      EXHF   =         0.00000000
  -V(xc)+E(xc)   XCENC  =      -104.97206531
  PAW double counting   =       264.80062850     -136.98248303
  entropy T*S    EENTRO =         0.00000000
  eigenvalues    EBANDS =        42.95902315
  atomic energy  EATOM  =       214.15382826
  Solvation  Ediel_sol  =         0.00000000
  ---------------------------------------------------
  free energy    TOTEN  =       -15.14690960 eV

  energy without entropy =      -15.14690960  energy(sigma->0) =      -15.14690960


--------------------------------------------------------------------------------------------------------




--------------------------------------- Iteration      1(   6)  ---------------------------------------


    POTLOK:  cpu time      0.0213: real time      0.0263
    SETDIJ:  cpu time      0.0011: real time      0.0011
     EDDAV:  cpu time      9.7616: real time      9.8073
 BZINTS: Fermi energy:    7.829963;   12.000000 electrons
         Band energy: 0.428182E+02;  BLOECHL correction:   -0.539980
       DOS:  cpu time      0.0076: real time      0.0077
    CHARGE:  cpu time      0.0148: real time      0.0149
    MIXING:  cpu time      0.0037: real time      0.0038
    --------------------------------------------
      LOOP:  cpu time      9.8101: real time      9.8610

 eigenvalue-minimisations  :  6016
 total energy-change (2. order) : 0.5106166E-01  (-0.6425696E-03)
 number of electron      12.0000000 magnetization 
 augmentation part       -0.1512010 magnetization 

 Broyden mixing:
  rms(total) = 0.15135E+00    rms(broyden)= 0.15135E+00
  rms(prec ) = 0.28740E+00
  weight for this iteration     100.00

 eigenvalues of (default mixing * dielectric matrix)
  average eigenvalue GAMMA=   2.3372
  2.3372

 Free energy of the ion-electron system (eV)
  ---------------------------------------------------
  alpha Z        PSCENC =        -0.81277799
  Ewald energy   TEWEN  =      -293.88473869
  -Hartree energ DENC   =        -0.34457996
  -exchange      EXHF   =         0.00000000
  -V(xc)+E(xc)   XCENC  =      -104.83132803
  PAW double counting   =       378.98255614     -251.17703758
  entropy T*S    EENTRO =         0.00000000
  eigenvalues    EBANDS =        42.81822991
  atomic energy  EATOM  =       214.15382826
  Solvation  Ediel_sol  =         0.00000000
  ---------------------------------------------------
  free energy    TOTEN  =       -15.09584794 eV

  energy without entropy =      -15.09584794  energy(sigma->0) =      -15.09584794


--------------------------------------------------------------------------------------------------------




--------------------------------------- Iteration      1(   7)  ---------------------------------------


    POTLOK:  cpu time      0.0203: real time      0.0263
    SETDIJ:  cpu time      0.0010: real time      0.0011
     EDDAV:  cpu time     11.1558: real time     11.2071
 BZINTS: Fermi energy:    7.814770;   12.000000 electrons
         Band energy: 0.426711E+02;  BLOECHL correction:   -0.540310
       DOS:  cpu time      0.0076: real time      0.0077
    CHARGE:  cpu time      0.0145: real time      0.0146
    MIXING:  cpu time      0.0024: real time      0.0026
    --------------------------------------------
      LOOP:  cpu time     11.2016: real time     11.2593

 eigenvalue-minimisations  :  6528
 total energy-change (2. order) : 0.3727128E-01  (-0.1837121E-02)
 number of electron      12.0000000 magnetization 
 augmentation part       -0.1551795 magnetization 

 Broyden mixing:
  rms(total) = 0.26881E-01    rms(broyden)= 0.26881E-01
  rms(prec ) = 0.29070E-01
  weight for this iteration     100.00

 eigenvalues of (default mixing * dielectric matrix)
  average eigenvalue GAMMA=   2.8560
  2.8560  2.8560

 Free energy of the ion-electron system (eV)
  ---------------------------------------------------
  alpha Z        PSCENC =        -0.81277799
  Ewald energy   TEWEN  =      -293.88473869
  -Hartree energ DENC   =        -0.40858050
  -exchange      EXHF   =         0.00000000
  -V(xc)+E(xc)   XCENC  =      -104.55634963
  PAW double counting   =       605.88495353     -478.10596951
  entropy T*S    EENTRO =         0.00000000
  eigenvalues    EBANDS =        42.67105788
  atomic energy  EATOM  =       214.15382826
  Solvation  Ediel_sol  =         0.00000000
  ---------------------------------------------------
  free energy    TOTEN  =       -15.05857666 eV

  energy without entropy =      -15.05857666  energy(sigma->0) =      -15.05857666


--------------------------------------------------------------------------------------------------------




--------------------------------------- Iteration      1(   8)  ---------------------------------------


    POTLOK:  cpu time      0.0201: real time      0.0264
    SETDIJ:  cpu time      0.0010: real time      0.0010
     EDDAV:  cpu time      9.2532: real time      9.2968
 BZINTS: Fermi energy:    7.815141;   12.000000 electrons
         Band energy: 0.426776E+02;  BLOECHL correction:   -0.540326
       DOS:  cpu time      0.0076: real time      0.0077
    CHARGE:  cpu time      0.0144: real time      0.0145
    MIXING:  cpu time      0.0004: real time      0.0004
    --------------------------------------------
      LOOP:  cpu time      9.2968: real time      9.3468

 eigenvalue-minimisations  :  6016
 total energy-change (2. order) : 0.1079700E-03  (-0.3072700E-05)
 number of electron      12.0000000 magnetization 
 augmentation part       -0.1554567 magnetization 

 Broyden mixing:
  rms(total) = 0.37897E-02    rms(broyden)= 0.37897E-02
  rms(prec ) = 0.49462E-02
  weight for this iteration     100.00

 eigenvalues of (default mixing * dielectric matrix)
  average eigenvalue GAMMA=   2.1070
  1.0487  2.5456  2.7266

 Free energy of the ion-electron system (eV)
  ---------------------------------------------------
  alpha Z        PSCENC =        -0.81277799
  Ewald energy   TEWEN  =      -293.88473869
  -Hartree energ DENC   =        -0.42227599
  -exchange      EXHF   =         0.00000000
  -V(xc)+E(xc)   XCENC  =      -104.53786669
  PAW double counting   =       554.19373803     -426.42595901
  entropy T*S    EENTRO =         0.00000000
  eigenvalues    EBANDS =        42.67758340
  atomic energy  EATOM  =       214.15382826
  Solvation  Ediel_sol  =         0.00000000
  ---------------------------------------------------
  free energy    TOTEN  =       -15.05846869 eV

  energy without entropy =      -15.05846869  energy(sigma->0) =      -15.05846869


--------------------------------------------------------------------------------------------------------




--------------------------------------- Iteration      1(   9)  ---------------------------------------


    POTLOK:  cpu time      0.0199: real time      0.0265
    SETDIJ:  cpu time      0.0010: real time      0.0011
     EDDAV:  cpu time     20.1367: real time     20.2257
 BZINTS: Fermi energy:    7.814920;   12.000000 electrons
         Band energy: 0.426754E+02;  BLOECHL correction:   -0.540330
       DOS:  cpu time      0.0077: real time      0.0077
    CHARGE:  cpu time      0.0146: real time      0.0147
    MIXING:  cpu time      0.0004: real time      0.0004
    --------------------------------------------
      LOOP:  cpu time     20.1802: real time     20.2760

 eigenvalue-minimisations  :  8576
 total energy-change (2. order) : 0.6536326E-05  (-0.3751489E-06)
 number of electron      12.0000000 magnetization 
 augmentation part       -0.1555048 magnetization 

 Broyden mixing:
  rms(total) = 0.12935E-03    rms(broyden)= 0.12934E-03
  rms(prec ) = 0.16604E-03
  weight for this iteration     100.00

 eigenvalues of (default mixing * dielectric matrix)
  average eigenvalue GAMMA=   2.2449
  1.0014  2.7315  2.7315  2.5150

 Free energy of the ion-electron system (eV)
  ---------------------------------------------------
  alpha Z        PSCENC =        -0.81277799
  Ewald energy   TEWEN  =      -293.88473869
  -Hartree energ DENC   =        -0.42410028
  -exchange      EXHF   =         0.00000000
  -V(xc)+E(xc)   XCENC  =      -104.53426396
  PAW double counting   =       560.74029006     -432.97209392
  entropy T*S    EENTRO =         0.00000000
  eigenvalues    EBANDS =        42.67539438
  atomic energy  EATOM  =       214.15382826
  Solvation  Ediel_sol  =         0.00000000
  ---------------------------------------------------
  free energy    TOTEN  =       -15.05846216 eV

  energy without entropy =      -15.05846216  energy(sigma->0) =      -15.05846216


--------------------------------------------------------------------------------------------------------




--------------------------------------- Iteration      1(  10)  ---------------------------------------


    POTLOK:  cpu time      0.0216: real time      0.0269
    SETDIJ:  cpu time      0.0011: real time      0.0011
     EDDAV:  cpu time     11.2048: real time     11.2570
 BZINTS: Fermi energy:    7.814901;   12.000000 electrons
         Band energy: 0.426751E+02;  BLOECHL correction:   -0.540331
       DOS:  cpu time      0.0074: real time      0.0074
    --------------------------------------------
      LOOP:  cpu time     11.2348: real time     11.2924

 eigenvalue-minimisations  :  6016
 total energy-change (2. order) : 0.9716661E-06  (-0.6068327E-09)
 number of electron      12.0000000 magnetization 
 augmentation part       -0.1555048 magnetization 

 Free energy of the ion-electron system (eV)
  ---------------------------------------------------
  alpha Z        PSCENC =        -0.81277799
  Ewald energy   TEWEN  =      -293.88473869
  -Hartree energ DENC   =        -0.42408609
  -exchange      EXHF   =         0.00000000
  -V(xc)+E(xc)   XCENC  =      -104.53432530
  PAW double counting   =       560.75748166     -432.98899162
  entropy T*S    EENTRO =         0.00000000
  eigenvalues    EBANDS =        42.67514860
  atomic energy  EATOM  =       214.15382826
  Solvation  Ediel_sol  =         0.00000000
  ---------------------------------------------------
  free energy    TOTEN  =       -15.05846118 eV

  energy without entropy =      -15.05846118  energy(sigma->0) =      -15.05846118


--------------------------------------------------------------------------------------------------------




 average (electrostatic) potential at core
  the test charge radii are     1.0406
  (the norm of the test charge is              1.0000)
       1 -72.6437       2 -72.6437       3 -72.6437       4 -72.6437
 
 
 
 E-fermi :   7.8149     XC(G=0): -10.1895     alpha+bet :-14.8493

 val. band max:        8.0628777766   @ k =   0.5000   0.3333   0.0000
 cond. band min:       7.2793986919   @ k =   0.5000   0.5000   0.1667
 fundamental gap:     -0.7834790848
 Fermi energy:         7.8149005456

 k-point     1 :       0.0000    0.0000    0.0000
  band No.  band energies     occupation 
      1      -3.1402      2.00000
      2       5.0625      2.00000
      3       5.0625      2.00000
      4       5.0625      2.00000
      5       6.3811      2.04860
      6       6.3811      2.11170
      7       6.3811      1.33347
      8      13.2394      0.00000
      9      13.2394      0.00000
     10      13.2394      0.00000
     11      13.5678      0.00000
     12      13.5678      0.00000
     13      13.5678      0.00000
     14      13.5678      0.00000
     15      13.5678      0.00000
     16      13.5678      0.00000
     17      17.0331      0.00000
     18      17.0331      0.00000
     19      17.0331      0.00000
     20      20.5909      0.00000
     21      20.5909      0.00000
     22      20.5909      0.00000
     23      22.0694      0.00000
     24      22.0694      0.00000
     25      22.0694      0.00000
     26      24.4346      0.00000
     27      27.3802      0.00000
     28      27.3802      0.00000
     29      30.2395      0.00000
     30      32.5920      0.00000
     31      32.5920      0.00000
     32      32.5920      0.00000
     33      33.3604      0.00000
     34      33.3604      0.00000
     35      33.3604      0.00000
     36      34.8696      0.00000
     37      34.8696      0.00000
     38      34.8696      0.00000
     39      34.8696      0.00000
     40      34.8696      0.00000
     41      34.8696      0.00000
     42      40.5328      0.00000
     43      40.5328      0.00000
     44      40.5328      0.00000
     45      41.1884      0.00000
     46      41.3361      0.00000
     47      41.3361      0.00000
     48      41.3361      0.00000
     49      41.3361      0.00000
     50      41.3361      0.00000
     51      41.3361      0.00000
     52      41.7474      0.00000
     53      41.7474      0.00000
     54      41.7474      0.00000
     55      42.6780      0.00000
     56      42.6780      0.00000
     57      42.6780      0.00000
     58      48.4094      0.00000
     59      48.4094      0.00000
     60      48.4094      0.00000
     61      48.4094      0.00000
     62      48.4094      0.00000
     63      48.4094      0.00000
     64      49.0208      0.00000
     65      49.0208      0.00000
     66      49.0208      0.00000
     67      49.4084      0.00000
     68      49.4084      0.00000
     69      49.4084      0.00000
     70      49.4084      0.00000
     71      49.4084      0.00000
     72      49.4084      0.00000
     73      50.3775      0.00000
     74      50.3775      0.00000
     75      50.3775      0.00000
     76      50.5668      0.00000
     77      50.5668      0.00000
     78      50.5668      0.00000
     79      52.5826      0.00000
     80      52.5826      0.00000
     81      52.5826      0.00000
     82      56.0746      0.00000
     83      56.0746      0.00000
     84      56.0746      0.00000
     85      56.1124      0.00000
     86      57.0625      0.00000
     87      57.0625      0.00000
     88      57.0625      0.00000
     89      57.0625      0.00000
     90      57.0625      0.00000
     91      57.0625      0.00000
     92      59.3543      0.00000
     93      59.3543      0.00000
     94      59.3543      0.00000
     95      59.5333      0.00000
     96      59.5333      0.00000
     97      59.5333      0.00000
     98      59.7987      0.00000
     99      59.7987      0.00000
    100      59.7987      0.00000
    101      62.9804      0.00000
    102      62.9804      0.00000
    103      63.9553      0.00000
    104      63.9553      0.00000
    105      63.9553      0.00000
    106      65.2208      0.00000
    107      65.2208      0.00000
    108      65.2208      0.00000
    109      72.1724      0.00000
    110      72.1724      0.00000
    111      72.1724      0.00000
    112      73.3538      0.00000
    113      73.3538      0.00000
    114      73.3538      0.00000
    115      75.2738      0.00000
    116      75.2738      0.00000
    117      75.2738      0.00000
    118      75.4163      0.00000
    119      75.4163      0.00000
    120      75.4163      0.00000
    121      75.4163      0.00000
    122      75.4163      0.00000
    123      75.4163      0.00000
    124      76.2588      0.00000
    125      76.2588      0.00000
    126      76.2588      0.00000
    127      77.0506      0.00000
    128      77.0506      0.00000

 k-point     2 :       0.1667    0.0000    0.0000
  band No.  band energies     occupation 
      1      -2.8889      2.00000
      2       2.9913      2.00000
      3       5.2927      2.00000
      4       5.2927      2.00000
      5       6.6234      2.02575
      6       6.6234      1.98297
      7       8.8876      0.00873
      8      10.8428      0.00000
      9      10.8428      0.00000
     10      12.2323      0.00000
     11      12.2323      0.00000
     12      13.4874      0.00000
     13      13.7813      0.00000
     14      13.7813      0.00000
     15      16.4289      0.00000
     16      16.4289      0.00000
     17      17.2623      0.00000
     18      18.7429      0.00000
     19      18.7429      0.00000
     20      18.8719      0.00000
     21      18.8719      0.00000
     22      19.1669      0.00000
     23      21.4976      0.00000
     24      24.1540      0.00000
     25      24.1540      0.00000
     26      24.7288      0.00000
     27      26.3609      0.00000
     28      27.6128      0.00000
     29      30.5587      0.00000
     30      32.0614      0.00000
     31      32.0614      0.00000
     32      32.2775      0.00000
     33      32.2775      0.00000
     34      32.5045      0.00000
     35      32.8814      0.00000
     36      32.8814      0.00000
     37      34.0771      0.00000
     38      34.0771      0.00000
     39      34.9215      0.00000
     40      34.9215      0.00000
     41      35.3408      0.00000
     42      39.6277      0.00000
     43      40.2287      0.00000
     44      40.2287      0.00000
     45      41.3080      0.00000
     46      41.3080      0.00000
     47      41.4277      0.00000
     48      41.4277      0.00000
     49      41.4693      0.00000
     50      41.4693      0.00000
     51      41.8817      0.00000
     52      42.2775      0.00000
     53      42.7260      0.00000
     54      42.7260      0.00000
     55      43.5335      0.00000
     56      44.0018      0.00000
     57      44.0503      0.00000
     58      44.0503      0.00000
     59      44.9244      0.00000
     60      44.9244      0.00000
     61      46.7975      0.00000
     62      46.7975      0.00000
     63      46.9283      0.00000
     64      46.9283      0.00000
     65      48.3059      0.00000
     66      48.3059      0.00000
     67      50.4118      0.00000
     68      50.4118      0.00000
     69      50.9616      0.00000
     70      51.9403      0.00000
     71      51.9403      0.00000
     72      52.5001      0.00000
     73      52.5001      0.00000
     74      52.5472      0.00000
     75      52.5472      0.00000
     76      52.9760      0.00000
     77      52.9760      0.00000
     78      53.4454      0.00000
     79      54.3709      0.00000
     80      54.3709      0.00000
     81      55.4596      0.00000
     82      55.4596      0.00000
     83      55.5443      0.00000
     84      55.6509      0.00000
     85      56.5004      0.00000
     86      56.5004      0.00000
     87      56.5649      0.00000
     88      56.6696      0.00000
     89      56.6696      0.00000
     90      57.1662      0.00000
     91      57.1662      0.00000
     92      57.7203      0.00000
     93      57.7203      0.00000
     94      58.4603      0.00000
     95      58.5639      0.00000
     96      59.5017      0.00000
     97      59.5017      0.00000
     98      59.5203      0.00000
     99      60.2324      0.00000
    100      60.7598      0.00000
    101      60.7598      0.00000
    102      62.9238      0.00000
    103      63.5164      0.00000
    104      63.5164      0.00000
    105      63.8090      0.00000
    106      67.3422      0.00000
    107      67.3422      0.00000
    108      67.7649      0.00000
    109      70.0669      0.00000
    110      70.0914      0.00000
    111      70.0914      0.00000
    112      70.7566      0.00000
    113      70.7566      0.00000
    114      70.9042      0.00000
    115      72.2631      0.00000
    116      72.2631      0.00000
    117      72.4904      0.00000
    118      72.4904      0.00000
    119      73.5754      0.00000
    120      73.5754      0.00000
    121      74.5364      0.00000
    122      74.5364      0.00000
    123      76.9934      0.00000
    124      77.2255      0.00000
    125      77.7307      0.00000
    126      77.7307      0.00000
    127      78.0610      0.00000
    128      78.1648      0.00000

 k-point     3 :       0.3333    0.0000    0.0000
  band No.  band energies     occupation 
      1      -2.1377      2.00000
      2       0.8258      2.00000
      3       5.9840      2.00000
      4       5.9840      2.00000
      5       7.3308      1.94184
      6       7.3308      1.81670
      7       8.7574      0.00000
      8       8.7574      0.00000
      9      10.3298      0.00000
     10      10.3298      0.00000
     11      12.3560      0.00000
     12      14.2292      0.00000
     13      14.4223      0.00000
     14      14.4223      0.00000
     15      16.9839      0.00000
     16      16.9839      0.00000
     17      17.1411      0.00000
     18      17.9312      0.00000
     19      19.8990      0.00000
     20      19.8990      0.00000
     21      20.2520      0.00000
     22      20.4467      0.00000
     23      21.7421      0.00000
     24      21.7421      0.00000
     25      27.0552      0.00000
     26      27.0552      0.00000
     27      28.0147      0.00000
     28      28.0147      0.00000
     29      28.3038      0.00000
     30      29.0518      0.00000
     31      29.0518      0.00000
     32      29.8919      0.00000
     33      30.9097      0.00000
     34      32.2216      0.00000
     35      32.2948      0.00000
     36      32.2948      0.00000
     37      33.8217      0.00000
     38      33.8217      0.00000
     39      35.0301      0.00000
     40      35.0301      0.00000
     41      36.9487      0.00000
     42      38.4266      0.00000
     43      38.6179      0.00000
     44      38.6179      0.00000
     45      38.8024      0.00000
     46      39.8642      0.00000
     47      39.8642      0.00000
     48      41.8604      0.00000
     49      41.8604      0.00000
     50      42.0739      0.00000
     51      42.0739      0.00000
     52      42.6673      0.00000
     53      43.1124      0.00000
     54      43.1124      0.00000
     55      44.2266      0.00000
     56      44.2266      0.00000
     57      44.8033      0.00000
     58      44.8033      0.00000
     59      44.9540      0.00000
     60      45.5350      0.00000
     61      45.5350      0.00000
     62      45.7883      0.00000
     63      45.9928      0.00000
     64      45.9928      0.00000
     65      50.0984      0.00000
     66      50.0984      0.00000
     67      52.4536      0.00000
     68      52.5084      0.00000
     69      52.5084      0.00000
     70      53.4338      0.00000
     71      53.5349      0.00000
     72      53.5349      0.00000
     73      54.1042      0.00000
     74      54.1042      0.00000
     75      54.1321      0.00000
     76      54.1321      0.00000
     77      54.8092      0.00000
     78      55.3304      0.00000
     79      55.7968      0.00000
     80      55.7968      0.00000
     81      56.0509      0.00000
     82      56.0509      0.00000
     83      56.0805      0.00000
     84      56.0805      0.00000
     85      56.3002      0.00000
     86      56.5571      0.00000
     87      56.5571      0.00000
     88      56.7917      0.00000
     89      56.7917      0.00000
     90      56.9432      0.00000
     91      56.9557      0.00000
     92      56.9557      0.00000
     93      59.1665      0.00000
     94      59.4686      0.00000
     95      59.4686      0.00000
     96      59.9791      0.00000
     97      60.2305      0.00000
     98      60.8840      0.00000
     99      60.8840      0.00000
    100      62.0658      0.00000
    101      62.0658      0.00000
    102      62.1512      0.00000
    103      62.8791      0.00000
    104      62.8791      0.00000
    105      64.8792      0.00000
    106      64.8792      0.00000
    107      64.9833      0.00000
    108      65.4072      0.00000
    109      66.6239      0.00000
    110      66.6239      0.00000
    111      66.8760      0.00000
    112      66.8760      0.00000
    113      67.4692      0.00000
    114      69.9952      0.00000
    115      69.9952      0.00000
    116      70.5162      0.00000
    117      70.5162      0.00000
    118      72.8108      0.00000
    119      72.8108      0.00000
    120      73.1757      0.00000
    121      73.1757      0.00000
    122      73.2746      0.00000
    123      73.2746      0.00000
    124      75.5918      0.00000
    125      76.1947      0.00000
    126      76.1947      0.00000
    127      77.3631      0.00000
    128      77.7047      0.00000

 k-point     4 :       0.5000    0.0000    0.0000
  band No.  band energies     occupation 
      1      -0.8946      2.00000
      2      -0.8946      2.00000
      3       7.1382      2.00000
      4       7.1382      2.00000
      5       7.1382      2.00000
      6       7.1382      2.00000
      7       8.1540      0.00000
      8       8.1540      0.00000
      9       9.0791      0.00000
     10       9.0791      0.00000
     11      15.4561      0.00000
     12      15.4561      0.00000
     13      15.4912      0.00000
     14      15.4912      0.00000
     15      15.4912      0.00000
     16      15.4912      0.00000
     17      16.2319      0.00000
     18      16.2319      0.00000
     19      18.9774      0.00000
     20      18.9774      0.00000
     21      23.7901      0.00000
     22      23.7901      0.00000
     23      23.7901      0.00000
     24      23.7901      0.00000
     25      24.3308      0.00000
     26      24.3308      0.00000
     27      26.3659      0.00000
     28      26.3659      0.00000
     29      29.4274      0.00000
     30      29.4274      0.00000
     31      29.9115      0.00000
     32      29.9115      0.00000
     33      29.9115      0.00000
     34      29.9115      0.00000
     35      34.0812      0.00000
     36      34.0812      0.00000
     37      34.4345      0.00000
     38      34.4345      0.00000
     39      35.0871      0.00000
     40      35.0871      0.00000
     41      35.6612      0.00000
     42      35.6612      0.00000
     43      35.6612      0.00000
     44      35.6612      0.00000
     45      39.8937      0.00000
     46      39.8937      0.00000
     47      40.7564      0.00000
     48      40.7564      0.00000
     49      42.4511      0.00000
     50      42.4511      0.00000
     51      42.4511      0.00000
     52      42.4511      0.00000
     53      43.2582      0.00000
     54      43.2582      0.00000
     55      43.2582      0.00000
     56      43.2582      0.00000
     57      43.9945      0.00000
     58      43.9945      0.00000
     59      45.0354      0.00000
     60      45.0354      0.00000
     61      48.8914      0.00000
     62      48.8914      0.00000
     63      49.0162      0.00000
     64      49.0162      0.00000
     65      49.0162      0.00000
     66      49.0162      0.00000
     67      50.9699      0.00000
     68      50.9699      0.00000
     69      52.6204      0.00000
     70      52.6204      0.00000
     71      52.6204      0.00000
     72      52.6204      0.00000
     73      53.8519      0.00000
     74      53.8519      0.00000
     75      54.2554      0.00000
     76      54.2554      0.00000
     77      54.8699      0.00000
     78      54.8699      0.00000
     79      56.8539      0.00000
     80      56.8539      0.00000
     81      56.8539      0.00000
     82      56.8539      0.00000
     83      57.1134      0.00000
     84      57.1134      0.00000
     85      57.7927      0.00000
     86      57.7927      0.00000
     87      57.7927      0.00000
     88      57.7927      0.00000
     89      59.0689      0.00000
     90      59.0689      0.00000
     91      59.4290      0.00000
     92      59.4290      0.00000
     93      59.7921      0.00000
     94      59.7921      0.00000
     95      60.0076      0.00000
     96      60.0076      0.00000
     97      60.3653      0.00000
     98      60.3653      0.00000
     99      60.5672      0.00000
    100      60.5672      0.00000
    101      62.2592      0.00000
    102      62.2592      0.00000
    103      62.2592      0.00000
    104      62.2592      0.00000
    105      64.7647      0.00000
    106      64.7647      0.00000
    107      64.7647      0.00000
    108      64.7647      0.00000
    109      65.0744      0.00000
    110      65.0744      0.00000
    111      65.8473      0.00000
    112      65.8473      0.00000
    113      67.2125      0.00000
    114      67.2125      0.00000
    115      67.2125      0.00000
    116      67.2125      0.00000
    117      70.7156      0.00000
    118      70.7156      0.00000
    119      72.1598      0.00000
    120      72.1598      0.00000
    121      72.1598      0.00000
    122      72.1598      0.00000
    123      73.2080      0.00000
    124      73.2080      0.00000
    125      74.9957      0.00000
    126      74.9957      0.00000
    127      77.2024      0.00000
    128      77.2024      0.00000

 k-point     5 :       0.1667    0.1667    0.0000
  band No.  band energies     occupation 
      1      -2.6381      2.00000
      2       3.2313      2.00000
      3       3.2313      2.00000
      4       5.5230      2.00000
      5       6.8553      1.99252
      6       8.9218     -0.14216
      7       9.1142     -0.00370
      8       9.1142      0.00000
      9      11.0750      0.00000
     10      11.0750      0.00000
     11      12.4627      0.00000
     12      12.4627      0.00000
     13      13.9983      0.00000
     14      15.4783      0.00000
     15      16.5896      0.00000
     16      16.6570      0.00000
     17      16.6570      0.00000
     18      17.5380      0.00000
     19      18.9578      0.00000
     20      18.9578      0.00000
     21      20.6874      0.00000
     22      21.0797      0.00000
     23      22.3498      0.00000
     24      23.3493      0.00000
     25      24.3487      0.00000
     26      24.4895      0.00000
     27      25.7967      0.00000
     28      28.3541      0.00000
     29      30.2019      0.00000
     30      30.2019      0.00000
     31      30.2370      0.00000
     32      31.3411      0.00000
     33      32.1284      0.00000
     34      32.7579      0.00000
     35      33.2196      0.00000
     36      33.4879      0.00000
     37      33.4879      0.00000
     38      34.0488      0.00000
     39      34.0488      0.00000
     40      35.3414      0.00000
     41      36.5049      0.00000
     42      37.9012      0.00000
     43      38.3598      0.00000
     44      38.3598      0.00000
     45      40.8429      0.00000
     46      40.8429      0.00000
     47      40.9633      0.00000
     48      40.9633      0.00000
     49      41.9170      0.00000
     50      42.8431      0.00000
     51      42.8906      0.00000
     52      42.8906      0.00000
     53      43.1202      0.00000
     54      43.1405      0.00000
     55      43.3532      0.00000
     56      43.3532      0.00000
     57      44.0606      0.00000
     58      45.0946      0.00000
     59      45.0946      0.00000
     60      46.8031      0.00000
     61      46.8031      0.00000
     62      46.9369      0.00000
     63      46.9369      0.00000
     64      47.1104      0.00000
     65      47.4714      0.00000
     66      49.9869      0.00000
     67      50.3428      0.00000
     68      50.9503      0.00000
     69      50.9503      0.00000
     70      51.0070      0.00000
     71      52.5625      0.00000
     72      52.5901      0.00000
     73      52.5901      0.00000
     74      52.9925      0.00000
     75      53.1315      0.00000
     76      53.1315      0.00000
     77      54.2441      0.00000
     78      55.0729      0.00000
     79      55.3847      0.00000
     80      55.6680      0.00000
     81      55.8084      0.00000
     82      55.8450      0.00000
     83      55.9355      0.00000
     84      55.9355      0.00000
     85      56.2073      0.00000
     86      56.6820      0.00000
     87      56.6820      0.00000
     88      56.7918      0.00000
     89      56.7918      0.00000
     90      57.0121      0.00000
     91      57.0322      0.00000
     92      57.6917      0.00000
     93      57.6917      0.00000
     94      58.8202      0.00000
     95      58.8202      0.00000
     96      59.4027      0.00000
     97      59.4352      0.00000
     98      60.2588      0.00000
     99      61.0628      0.00000
    100      61.0628      0.00000
    101      61.1320      0.00000
    102      61.2646      0.00000
    103      63.0236      0.00000
    104      63.5099      0.00000
    105      63.5099      0.00000
    106      65.2988      0.00000
    107      67.3604      0.00000
    108      67.3604      0.00000
    109      68.4281      0.00000
    110      69.1589      0.00000
    111      69.4886      0.00000
    112      70.3518      0.00000
    113      70.7321      0.00000
    114      70.7321      0.00000
    115      71.0714      0.00000
    116      71.0714      0.00000
    117      72.0858      0.00000
    118      72.5905      0.00000
    119      73.2293      0.00000
    120      73.3563      0.00000
    121      73.6693      0.00000
    122      73.7594      0.00000
    123      73.7594      0.00000
    124      75.8777      0.00000
    125      76.1071      0.00000
    126      77.5752      0.00000
    127      77.5752      0.00000
    128      78.4447      0.00000

 k-point     6 :       0.3333    0.1667    0.0000
  band No.  band energies     occupation 
      1      -1.8882      2.00000
      2       1.0701      2.00000
      3       3.9488      2.00000
      4       6.2146      2.00000
      5       6.7324      2.01437
      6       7.6933      1.50381
      7       8.9890     -0.00006
      8       9.6970      0.00000
      9      10.6653      0.00000
     10      11.7708      0.00000
     11      12.4910      0.00000
     12      12.6306      0.00000
     13      13.2177      0.00000
     14      14.5400      0.00000
     15      15.7129      0.00000
     16      17.3391      0.00000
     17      18.2739      0.00000
     18      19.5862      0.00000
     19      19.9673      0.00000
     20      20.1231      0.00000
     21      20.5611      0.00000
     22      21.8206      0.00000
     23      21.9276      0.00000
     24      23.7531      0.00000
     25      25.6963      0.00000
     26      25.7373      0.00000
     27      26.2328      0.00000
     28      27.1139      0.00000
     29      28.1964      0.00000
     30      28.3574      0.00000
     31      28.9793      0.00000
     32      30.8890      0.00000
     33      31.2553      0.00000
     34      31.3577      0.00000
     35      31.9673      0.00000
     36      32.8571      0.00000
     37      32.9127      0.00000
     38      33.8745      0.00000
     39      34.4478      0.00000
     40      35.1610      0.00000
     41      36.8118      0.00000
     42      37.1141      0.00000
     43      37.1598      0.00000
     44      37.5094      0.00000
     45      39.5342      0.00000
     46      40.0343      0.00000
     47      40.3430      0.00000
     48      40.7713      0.00000
     49      41.2597      0.00000
     50      41.7752      0.00000
     51      42.0097      0.00000
     52      42.1585      0.00000
     53      43.3352      0.00000
     54      43.4167      0.00000
     55      43.7773      0.00000
     56      44.0018      0.00000
     57      45.7882      0.00000
     58      46.1590      0.00000
     59      46.1800      0.00000
     60      46.6637      0.00000
     61      47.1066      0.00000
     62      48.3757      0.00000
     63      48.3771      0.00000
     64      48.9560      0.00000
     65      49.7133      0.00000
     66      50.1025      0.00000
     67      50.4948      0.00000
     68      51.0526      0.00000
     69      51.9856      0.00000
     70      52.1584      0.00000
     71      52.5745      0.00000
     72      53.2506      0.00000
     73      53.6645      0.00000
     74      54.0756      0.00000
     75      54.6267      0.00000
     76      54.7377      0.00000
     77      54.7854      0.00000
     78      55.1952      0.00000
     79      55.2825      0.00000
     80      55.5592      0.00000
     81      55.8429      0.00000
     82      55.8846      0.00000
     83      56.1628      0.00000
     84      56.2404      0.00000
     85      56.2569      0.00000
     86      56.4216      0.00000
     87      56.5303      0.00000
     88      57.1220      0.00000
     89      57.5958      0.00000
     90      57.6045      0.00000
     91      58.2831      0.00000
     92      58.6568      0.00000
     93      59.1389      0.00000
     94      59.5418      0.00000
     95      59.6576      0.00000
     96      60.0851      0.00000
     97      60.4733      0.00000
     98      60.6173      0.00000
     99      61.6873      0.00000
    100      61.8784      0.00000
    101      62.0540      0.00000
    102      62.1710      0.00000
    103      62.2768      0.00000
    104      62.4914      0.00000
    105      63.9043      0.00000
    106      65.2012      0.00000
    107      65.2929      0.00000
    108      65.5687      0.00000
    109      65.8888      0.00000
    110      65.9000      0.00000
    111      66.3323      0.00000
    112      67.3781      0.00000
    113      69.5660      0.00000
    114      70.3004      0.00000
    115      70.6686      0.00000
    116      70.8962      0.00000
    117      71.0696      0.00000
    118      71.1464      0.00000
    119      71.4524      0.00000
    120      72.0410      0.00000
    121      72.0703      0.00000
    122      72.5698      0.00000
    123      73.0144      0.00000
    124      73.5854      0.00000
    125      75.0419      0.00000
    126      76.1940      0.00000
    127      76.2266      0.00000
    128      76.6982      0.00000

 k-point     7 :       0.5000    0.1667    0.0000
  band No.  band energies     occupation 
      1      -0.6473      2.00000
      2      -0.6473      2.00000
      3       5.1345      2.00000
      4       5.1345      2.00000
      5       7.3692      1.99212
      6       7.3692      1.99557
      7       8.8111      0.00009
      8       8.8111      0.00000
      9      11.0906      0.00000
     10      11.0906      0.00000
     11      12.9279      0.00000
     12      12.9279      0.00000
     13      14.1866      0.00000
     14      14.1866      0.00000
     15      16.4858      0.00000
     16      16.4858      0.00000
     17      18.4633      0.00000
     18      18.4633      0.00000
     19      20.5726      0.00000
     20      20.5726      0.00000
     21      21.9970      0.00000
     22      21.9970      0.00000
     23      24.0034      0.00000
     24      24.0034      0.00000
     25      25.2438      0.00000
     26      25.2438      0.00000
     27      26.8432      0.00000
     28      26.8432      0.00000
     29      27.6485      0.00000
     30      27.6485      0.00000
     31      29.0280      0.00000
     32      29.0280      0.00000
     33      30.2692      0.00000
     34      30.2692      0.00000
     35      32.7732      0.00000
     36      32.7732      0.00000
     37      33.4479      0.00000
     38      33.4479      0.00000
     39      34.0972      0.00000
     40      34.0972      0.00000
     41      36.9961      0.00000
     42      36.9961      0.00000
     43      37.2355      0.00000
     44      37.2355      0.00000
     45      39.4626      0.00000
     46      39.4626      0.00000
     47      40.0014      0.00000
     48      40.0014      0.00000
     49      40.6565      0.00000
     50      40.6565      0.00000
     51      41.6555      0.00000
     52      41.6555      0.00000
     53      43.7304      0.00000
     54      43.7304      0.00000
     55      45.1285      0.00000
     56      45.1285      0.00000
     57      45.2284      0.00000
     58      45.2284      0.00000
     59      46.9077      0.00000
     60      46.9077      0.00000
     61      49.1078      0.00000
     62      49.1078      0.00000
     63      49.2631      0.00000
     64      49.2631      0.00000
     65      51.1517      0.00000
     66      51.1517      0.00000
     67      51.6917      0.00000
     68      51.6917      0.00000
     69      51.6983      0.00000
     70      51.6983      0.00000
     71      51.9885      0.00000
     72      51.9885      0.00000
     73      54.6278      0.00000
     74      54.6278      0.00000
     75      54.6387      0.00000
     76      54.6387      0.00000
     77      54.9492      0.00000
     78      54.9492      0.00000
     79      55.1439      0.00000
     80      55.1439      0.00000
     81      56.0735      0.00000
     82      56.0735      0.00000
     83      56.1505      0.00000
     84      56.1505      0.00000
     85      57.1758      0.00000
     86      57.1758      0.00000
     87      57.2181      0.00000
     88      57.2181      0.00000
     89      57.8121      0.00000
     90      57.8121      0.00000
     91      59.5423      0.00000
     92      59.5423      0.00000
     93      59.6550      0.00000
     94      59.6550      0.00000
     95      60.1122      0.00000
     96      60.1122      0.00000
     97      60.6408      0.00000
     98      60.6408      0.00000
     99      60.8780      0.00000
    100      60.8780      0.00000
    101      63.1755      0.00000
    102      63.1755      0.00000
    103      64.1339      0.00000
    104      64.1339      0.00000
    105      64.5571      0.00000
    106      64.5571      0.00000
    107      64.5645      0.00000
    108      64.5645      0.00000
    109      65.5839      0.00000
    110      65.5839      0.00000
    111      66.4436      0.00000
    112      66.4436      0.00000
    113      67.4918      0.00000
    114      67.4918      0.00000
    115      68.7933      0.00000
    116      68.7933      0.00000
    117      69.4389      0.00000
    118      69.4389      0.00000
    119      70.7422      0.00000
    120      70.7422      0.00000
    121      72.2685      0.00000
    122      72.2685      0.00000
    123      73.4599      0.00000
    124      73.4599      0.00000
    125      74.3663      0.00000
    126      74.3663      0.00000
    127      76.2098      0.00000
    128      76.2098      0.00000

 k-point     8 :       0.3333    0.3333    0.0000
  band No.  band energies     occupation 
      1      -1.1423      2.00000
      2       1.8006      2.00000
      3       1.8006      2.00000
      4       4.6794      2.00000
      5       6.9071      1.99710
      6       8.3725      0.38624
      7       9.6838     -0.02283
      8       9.6838     -0.00515
      9      11.1439      0.00000
     10      11.1439      0.00000
     11      12.4622      0.00000
     12      13.3497      0.00000
     13      13.3497      0.00000
     14      13.8743      0.00000
     15      15.2920      0.00000
     16      17.0561      0.00000
     17      20.4274      0.00000
     18      20.7875      0.00000
     19      20.7875      0.00000
     20      22.4307      0.00000
     21      22.4307      0.00000
     22      22.4474      0.00000
     23      22.5393      0.00000
     24      23.7626      0.00000
     25      24.3943      0.00000
     26      24.3943      0.00000
     27      24.6566      0.00000
     28      26.6508      0.00000
     29      26.8068      0.00000
     30      28.2217      0.00000
     31      28.2269      0.00000
     32      29.4958      0.00000
     33      31.0398      0.00000
     34      31.0398      0.00000
     35      31.8716      0.00000
     36      31.8716      0.00000
     37      31.9919      0.00000
     38      33.1001      0.00000
     39      34.1053      0.00000
     40      34.3338      0.00000
     41      34.3338      0.00000
     42      36.7456      0.00000
     43      36.7765      0.00000
     44      36.7765      0.00000
     45      38.8115      0.00000
     46      39.4493      0.00000
     47      39.4493      0.00000
     48      40.0096      0.00000
     49      40.0535      0.00000
     50      42.9406      0.00000
[...]
     56      46.3724      0.00000
     57      47.3683      0.00000
     58      47.3683      0.00000
     59      48.2314      0.00000
     60      48.2314      0.00000
     61      48.9834      0.00000
     62      48.9834      0.00000
     63      49.3522      0.00000
     64      49.3522      0.00000
     65      49.6815      0.00000
     66      49.6815      0.00000
     67      51.0800      0.00000
     68      51.0800      0.00000
     69      53.7299      0.00000
     70      53.7299      0.00000
     71      54.0764      0.00000
     72      54.0764      0.00000
     73      55.1553      0.00000
     74      55.1553      0.00000
     75      55.4341      0.00000
     76      55.4341      0.00000
     77      55.6136      0.00000
     78      55.6136      0.00000
     79      55.7262      0.00000
     80      55.7262      0.00000
     81      55.8927      0.00000
     82      55.8927      0.00000
     83      56.3407      0.00000
     84      56.3407      0.00000
     85      57.2584      0.00000
     86      57.2584      0.00000
     87      57.3848      0.00000
     88      57.3848      0.00000
     89      57.3990      0.00000
     90      57.3990      0.00000
     91      59.4679      0.00000
     92      59.4679      0.00000
     93      59.5805      0.00000
     94      59.5805      0.00000
     95      59.7522      0.00000
     96      59.7522      0.00000
     97      59.8981      0.00000
     98      59.8981      0.00000
     99      61.9141      0.00000
    100      61.9141      0.00000
    101      63.1271      0.00000
    102      63.1271      0.00000
    103      63.8578      0.00000
    104      63.8578      0.00000
    105      64.0682      0.00000
    106      64.0682      0.00000
    107      64.3068      0.00000
    108      64.3068      0.00000
    109      64.6702      0.00000
    110      64.6702      0.00000
    111      65.9852      0.00000
    112      65.9852      0.00000
    113      68.5610      0.00000
    114      68.5610      0.00000
    115      69.0718      0.00000
    116      69.0718      0.00000
    117      70.1624      0.00000
    118      70.1624      0.00000
    119      70.5113      0.00000
    120      70.5113      0.00000
    121      71.1365      0.00000
    122      71.1365      0.00000
    123      71.4867      0.00000
    124      71.4867      0.00000
    125      74.6072      0.00000
    126      74.6072      0.00000
    127      75.5147      0.00000
    128      75.5147      0.00000

 k-point    19 :       0.5000    0.5000    0.3333
  band No.  band energies     occupation 
      1       2.2878      2.00000
      2       2.2878      2.00000
      3       2.2878      2.00000
      4       2.2878      2.00000
      5       5.1780      2.00000
      6       5.1780      2.00000
      7       5.1780      2.16050
      8       5.1780      2.17347
      9      16.3595      0.00000
     10      16.3595      0.00000
     11      16.3595      0.00000
     12      16.3595      0.00000
     13      18.3172      0.00000
     14      18.3172      0.00000
     15      18.3172      0.00000
     16      18.3172      0.00000
     17      20.0088      0.00000
     18      20.0088      0.00000
     19      20.0088      0.00000
     20      20.0088      0.00000
     21      20.9247      0.00000
     22      20.9247      0.00000
     23      20.9247      0.00000
     24      20.9247      0.00000
     25      23.8938      0.00000
     26      23.8938      0.00000
     27      23.8938      0.00000
     28      23.8938      0.00000
     29      25.6218      0.00000
     30      25.6218      0.00000
     31      25.6218      0.00000
     32      25.6218      0.00000
     33      30.9551      0.00000
     34      30.9551      0.00000
     35      30.9551      0.00000
     36      30.9551      0.00000
     37      32.1337      0.00000
     38      32.1337      0.00000
     39      32.1337      0.00000
     40      32.1337      0.00000
     41      38.1118      0.00000
     42      38.1118      0.00000
     43      38.1118      0.00000
     44      38.1118      0.00000
     45      39.9304      0.00000
     46      39.9304      0.00000
     47      39.9304      0.00000
     48      39.9304      0.00000
     49      40.9540      0.00000
     50      40.9540      0.00000
     51      40.9540      0.00000
     52      40.9540      0.00000
     53      46.7302      0.00000
     54      46.7302      0.00000
     55      46.7302      0.00000
     56      46.7302      0.00000
     57      48.0336      0.00000
     58      48.0336      0.00000
     59      48.0336      0.00000
     60      48.0336      0.00000
     61      49.6299      0.00000
     62      49.6299      0.00000
     63      49.6299      0.00000
     64      49.6299      0.00000
     65      51.3404      0.00000
     66      51.3404      0.00000
     67      51.3404      0.00000
     68      51.3404      0.00000
     69      54.3677      0.00000
     70      54.3677      0.00000
     71      54.3677      0.00000
     72      54.3677      0.00000
     73      55.1290      0.00000
     74      55.1290      0.00000
     75      55.1290      0.00000
     76      55.1290      0.00000
     77      55.5209      0.00000
     78      55.5209      0.00000
     79      55.5209      0.00000
     80      55.5209      0.00000
     81      56.0009      0.00000
     82      56.0009      0.00000
     83      56.0009      0.00000
     84      56.0009      0.00000
     85      57.5873      0.00000
     86      57.5873      0.00000
     87      57.5873      0.00000
     88      57.5873      0.00000
     89      57.6928      0.00000
     90      57.6928      0.00000
     91      57.6928      0.00000
     92      57.6928      0.00000
     93      59.2296      0.00000
     94      59.2296      0.00000
     95      59.2296      0.00000
     96      59.2296      0.00000
     97      61.8134      0.00000
     98      61.8134      0.00000
     99      61.8134      0.00000
    100      61.8134      0.00000
    101      61.9400      0.00000
    102      61.9400      0.00000
    103      61.9400      0.00000
    104      61.9400      0.00000
    105      64.0827      0.00000
    106      64.0827      0.00000
    107      64.0827      0.00000
    108      64.0827      0.00000
    109      65.7604      0.00000
    110      65.7604      0.00000
    111      65.7604      0.00000
    112      65.7604      0.00000
    113      69.8070      0.00000
    114      69.8070      0.00000
    115      69.8070      0.00000
    116      69.8070      0.00000
    117      69.9109      0.00000
    118      69.9109      0.00000
    119      69.9109      0.00000
    120      69.9109      0.00000
    121      71.7031      0.00000
    122      71.7031      0.00000
    123      71.7031      0.00000
    124      71.7031      0.00000
    125      75.0168      0.00000
    126      75.0168      0.00000
    127      75.0168      0.00000
    128      75.0168      0.00000

 k-point    20 :       0.5000    0.5000    0.5000
  band No.  band energies     occupation 
      1       3.3958      2.00000
      2       3.3958      2.00000
      3       3.3958      2.00000
      4       3.3958      2.00000
      5       3.6047      2.00000
      6       3.6047      2.00000
      7       3.6047      2.00000
      8       3.6047      2.04665
      9      19.3728      0.00000
     10      19.3728      0.00000
     11      19.3728      0.00000
     12      19.3728      0.00000
     13      19.3728      0.00000
     14      19.3728      0.00000
     15      19.3728      0.00000
     16      19.3728      0.00000
     17      19.4339      0.00000
     18      19.4339      0.00000
     19      19.4339      0.00000
     20      19.4339      0.00000
     21      19.4339      0.00000
     22      19.4339      0.00000
     23      19.4339      0.00000
     24      19.4339      0.00000
     25      23.0963      0.00000
     26      23.0963      0.00000
     27      23.0963      0.00000
     28      23.0963      0.00000
     29      23.2397      0.00000
     30      23.2397      0.00000
     31      23.2397      0.00000
     32      23.2397      0.00000
     33      32.7493      0.00000
     34      32.7493      0.00000
     35      32.7493      0.00000
     36      32.7493      0.00000
     37      32.7493      0.00000
     38      32.7493      0.00000
     39      32.7493      0.00000
     40      32.7493      0.00000
     41      38.7857      0.00000
     42      38.7857      0.00000
     43      38.7857      0.00000
     44      38.7857      0.00000
     45      38.7857      0.00000
     46      38.7857      0.00000
     47      38.7857      0.00000
     48      38.7857      0.00000
     49      39.5896      0.00000
     50      39.5896      0.00000
     51      39.5896      0.00000
     52      39.5896      0.00000
     53      45.5158      0.00000
     54      45.5158      0.00000
     55      45.5158      0.00000
     56      45.5158      0.00000
     57      50.6829      0.00000
     58      50.6829      0.00000
     59      50.6829      0.00000
     60      50.6829      0.00000
     61      51.6536      0.00000
     62      51.6536      0.00000
     63      51.6536      0.00000
     64      51.6536      0.00000
     65      51.6536      0.00000
     66      51.6536      0.00000
     67      51.6536      0.00000
     68      51.6536      0.00000
     69      53.5894      0.00000
     70      53.5894      0.00000
     71      53.5894      0.00000
     72      53.5894      0.00000
     73      54.7438      0.00000
     74      54.7438      0.00000
     75      54.7438      0.00000
     76      54.7438      0.00000
     77      54.7438      0.00000
     78      54.7438      0.00000
     79      54.7438      0.00000
     80      54.7438      0.00000
     81      56.3190      0.00000
     82      56.3190      0.00000
     83      56.3190      0.00000
     84      56.3190      0.00000
     85      57.5921      0.00000
     86      57.5921      0.00000
     87      57.5921      0.00000
     88      57.5921      0.00000
     89      57.5921      0.00000
     90      57.5921      0.00000
     91      57.5921      0.00000
     92      57.5921      0.00000
     93      58.5435      0.00000
     94      58.5435      0.00000
     95      58.5435      0.00000
     96      58.5435      0.00000
     97      60.7467      0.00000
     98      60.7467      0.00000
     99      60.7467      0.00000
    100      60.7467      0.00000
    101      62.7655      0.00000
    102      62.7655      0.00000
    103      62.7655      0.00000
    104      62.7655      0.00000
    105      64.4268      0.00000
    106      64.4268      0.00000
    107      64.4268      0.00000
    108      64.4268      0.00000
    109      64.4268      0.00000
    110      64.4268      0.00000
    111      64.4268      0.00000
    112      64.4268      0.00000
    113      69.2752      0.00000
    114      69.2752      0.00000
    115      69.2752      0.00000
    116      69.2752      0.00000
    117      73.7443      0.00000
    118      73.7443      0.00000
    119      73.7443      0.00000
    120      73.7443      0.00000
    121      73.7443      0.00000
    122      73.7443      0.00000
    123      73.7443      0.00000
    124      73.7443      0.00000
    125      75.4985      0.00000
    126      75.4985      0.00000
    127      75.4985      0.00000
    128      75.4985      0.00000


--------------------------------------------------------------------------------------------------------


 soft charge-density along one line, spin component           1
         0         1         2         3         4         5         6         7         8         9
 total charge-density along one line
 
 pseudopotential strength for first ion, spin component:           1
  8.444  14.392   0.000  -0.000  -0.000   0.000  -0.000  -0.000
 14.392  24.529   0.000  -0.000  -0.000   0.000  -0.000  -0.000
  0.000   0.000   1.988   0.000   0.000   5.731   0.000   0.000
 -0.000  -0.000   0.000   1.988   0.000   0.000   5.731   0.000
 -0.000  -0.000   0.000   0.000   1.988   0.000   0.000   5.731
  0.000   0.000   5.731   0.000   0.000  16.437   0.000   0.000
 -0.000  -0.000   0.000   5.731   0.000   0.000  16.437   0.000
 -0.000  -0.000   0.000   0.000   5.731   0.000   0.000  16.437
 total augmentation occupancy for first ion, spin component:           1
  3.353  -0.823   0.000  -0.000  -0.000  -0.000   0.000  -0.000
 -0.823   0.270   0.000   0.000   0.000   0.000   0.000  -0.000
  0.000   0.000   1.099   0.000   0.000  -0.070  -0.000  -0.000
 -0.000   0.000   0.000   1.099   0.000  -0.000  -0.070  -0.000
 -0.000   0.000   0.000   0.000   1.099  -0.000  -0.000  -0.070
 -0.000   0.000  -0.070  -0.000  -0.000   0.005   0.000   0.000
  0.000   0.000  -0.000  -0.070  -0.000   0.000   0.005   0.000
 -0.000  -0.000  -0.000  -0.000  -0.070   0.000   0.000   0.005


------------------------ aborting loop because EDIFF is reached ----------------------------------------


    CHARGE:  cpu time      0.0160: real time      0.0161
    FORLOC:  cpu time      0.0011: real time      0.0012
    FORNL :  cpu time      0.0167: real time      0.0174
    STRESS:  cpu time      0.1461: real time      0.1471
    FORCOR:  cpu time      0.0069: real time      0.0070
    FORHAR:  cpu time      0.0030: real time      0.0032
    MIXING:  cpu time      0.0004: real time      0.0005
    OFIELD:  cpu time      0.0012: real time      0.0017

  FORCE on cell =-STRESS in cart. coord.  units (eV):
  Direction    XX          YY          ZZ          XY          YZ          ZX
  --------------------------------------------------------------------------------------
  Alpha Z    -0.81278    -0.81278    -0.81278
  Ewald     -97.96162   -97.96162   -97.96162    -0.00000     0.00000     0.00000
  Hartree     0.14137     0.14137     0.14137    -0.00000    -0.00000    -0.00000
  E(xc)     -34.24204   -34.24204   -34.24204     0.00000    -0.00000     0.00000
  Local       1.33960     1.33960     1.33960     0.00000    -0.00000     0.00000
  n-local    74.44460    75.31156    77.22935     0.05757     0.84723     0.19445
  augment    -4.14776    -4.14776    -4.14776     0.00000    -0.00000     0.00000
  Kinetic    56.99330    58.40170    64.41792     1.34409    -7.78196    -0.31478
  Fock        0.00000     0.00000     0.00000     0.00000     0.00000     0.00000
  -------------------------------------------------------------------------------------
  Total      -0.08375    -0.08375    -0.08375     0.00000     0.00000    -0.00000
  in kB      -2.02930    -2.02930    -2.02930     0.00000     0.00000    -0.00000
  external pressure =       -2.03 kB  Pullay stress =        0.00 kB


 VOLUME and BASIS-vectors are now :
 -----------------------------------------------------------------------------
  energy-cutoff  :      520.00
  volume of cell :       66.12
      direct lattice vectors                 reciprocal lattice vectors
     4.043689723  0.000000000  0.000000000     0.247298895 -0.000000000  0.000000000
     0.000000000  4.043689723  0.000000000     0.000000000  0.247298895  0.000000000
     0.000000000  0.000000000  4.043689723    -0.000000000 -0.000000000  0.247298895

  length of vectors
     4.043689723  4.043689723  4.043689723     0.247298895  0.247298895  0.247298895


 FORCES acting on ions
    electron-ion (+dipol)            ewald-force                    non-local-force                 convergence-correction
 -----------------------------------------------------------------------------------------------
   -.112E-14 -.367E-15 -.649E-15   0.489E-15 0.764E-15 -.890E-15   -.276E-18 0.106E-18 0.142E-18   0.304E-15 0.573E-16 0.786E-16
   -.179E-14 -.333E-14 -.182E-14   0.516E-15 -.538E-15 0.377E-15   -.587E-20 -.177E-18 -.198E-18   0.277E-15 -.473E-16 -.798E-16
   -.369E-14 0.659E-15 0.221E-13   -.475E-15 0.591E-15 0.377E-15   0.204E-18 -.177E-18 0.166E-21   -.361E-15 0.392E-16 -.769E-16
   -.257E-14 -.813E-14 -.193E-13   -.448E-15 -.707E-15 0.305E-15   0.324E-18 -.261E-18 0.165E-18   -.336E-15 -.449E-16 0.794E-16
 -----------------------------------------------------------------------------------------------
   -.918E-14 -.112E-13 0.346E-15   0.811E-16 0.111E-15 0.169E-15   0.246E-18 -.509E-18 0.109E-18   -.116E-15 0.432E-17 0.124E-17
 
 
 POSITION                                       TOTAL-FORCE (eV/Angst)
 -----------------------------------------------------------------------------------
      0.00000      0.00000      0.00000         0.000000      0.000000     -0.000000
      0.00000      2.02184      2.02184         0.000000      0.000000      0.000000
      2.02184      0.00000      2.02184        -0.000000     -0.000000     -0.000000
      2.02184      2.02184      0.00000         0.000000     -0.000000      0.000000
 -----------------------------------------------------------------------------------
    total drift:                               -0.000000     -0.000000      0.000000


--------------------------------------------------------------------------------------------------------



  FREE ENERGIE OF THE ION-ELECTRON SYSTEM (eV)
  ---------------------------------------------------
  free  energy   TOTEN  =       -15.05846118 eV

  energy  without entropy=      -15.05846118  energy(sigma->0) =      -15.05846118
 


--------------------------------------------------------------------------------------------------------


    POTLOK:  cpu time      0.0098: real time      0.0100


--------------------------------------------------------------------------------------------------------


     LOOP+:  cpu time    129.3346: real time    129.9919
 -----------------------------------------------------------------------------
|                                                                             |
|           W    W    AA    RRRRR   N    N  II  N    N   GGGG   !!!           |
|           W    W   A  A   R    R  NN   N  II  NN   N  G    G  !!!           |
|           W    W  A    A  R    R  N N  N  II  N N  N  G       !!!           |
|           W WW W  AAAAAA  RRRRR   N  N N  II  N  N N  G  GGG   !            |
|           WW  WW  A    A  R   R   N   NN  II  N   NN  G    G                |
|           W    W  A    A  R    R  N    N  II  N    N   GGGG   !!!           |
|                                                                             |
|     Tetrahedron method does not include variations of the Fermi             |
|     occupations, so forces and stress will be inaccurate. We suggest        |
|     using a different smearing scheme ISMEAR = 1 or 2 for metals in         |
|     relaxations.                                                            |
|                                                                             |
 -----------------------------------------------------------------------------

    4ORBIT:  cpu time      0.0000: real time      0.0000
 BZINTS: Fermi energy:    7.814901;   12.000000 electrons
         Band energy: 0.426751E+02;  BLOECHL correction:   -0.540331

 total amount of memory used by VASP MPI-rank0    34774. kBytes
=======================================================================

   base      :      30000. kBytes
   nonl-proj :       2580. kBytes
   fftplans  :        256. kBytes
   grid      :       1271. kBytes
   one-center:         12. kBytes
   wavefun   :        655. kBytes
 
  
  
 General timing and accounting informations for this job:
 ========================================================
  
                  Total CPU time used (sec):      136.229
                            User time (sec):      131.221
                          System time (sec):        5.008
                         Elapsed time (sec):      142.392
  
                   Maximum memory used (kb):      803000.
                   Average memory used (kb):          N/A
  
                          Minor page faults:       155930
                          Major page faults:          122
                 Voluntary context switches:         7181
