 vasp.6.4.3 19Mar24 (build Mar 26 2024 14:05:37) complex                        
  
 executed on             LinuxIFC date 2025.01.02  09:38:56
 running  128 mpi-ranks, on    1 nodes
 distrk:  each k-point on  128 cores,    1 groups
 distr:  one band on NCORE=   1 cores,  128 groups


--------------------------------------------------------------------------------------------------------


 INCAR:
   EDIFF = 1e-06
   EDIFFG = -0.01
   ENCUT = 520
   GGA = Pe
   IBRION = -1
   ISIF = 2
   ISMEAR = -5
   LCHARG = False
   LREAL = False
   LWAVE = False
   NELM = 200
   NSW = 0
   PREC = Accurate
   SIGMA = 0.2

 POTCAR:    PAW_PBE Al 04Jan2001                  
 -----------------------------------------------------------------------------
|                                                                             |
|           W    W    AA    RRRRR   N    N  II  N    N   GGGG   !!!           |
|           W    W   A  A   R    R  NN   N  II  NN   N  G    G  !!!           |
|           W    W  A    A  R    R  N N  N  II  N N  N  G       !!!           |
|           W WW W  AAAAAA  RRRRR   N  N N  II  N  N N  G  GGG   !            |
|           WW  WW  A    A  R   R   N   NN  II  N   NN  G    G                |
|           W    W  A    A  R    R  N    N  II  N    N   GGGG   !!!           |
|                                                                             |
|     For optimal performance we recommend to set                             |
|       NCORE = 2 up to number-of-cores-per-socket                            |
|     NCORE specifies how many cores store one orbital (NPAR=cpu/NCORE).      |
|     This setting can greatly improve the performance of VASP for DFT.       |
|     The default, NCORE=1 might be grossly inefficient on modern             |
|     multi-core architectures or massively parallel machines. Do your        |
|     own testing! More info at https://www.vasp.at/wiki/index.php/NCORE      |
|     Unfortunately you need to use the default for GW and RPA                |
|     calculations (for HF NCORE is supported but not extensively tested      |
|     yet).                                                                   |
|                                                                             |
 -----------------------------------------------------------------------------

 POTCAR:    PAW_PBE Al 04Jan2001                  
   SHA256 =  17880443556af62b473fe41b62a467bd001ad55d2cabe504a3f22e34d4e9db96 Al/POTCAR             
   COPYR  = (c) Copyright 04Jan2001 Georg Kresse                                                    
   COPYR  = This file is part of the software VASP. Any use, copying, and all other rights are regul
   COPYR  = If you do not have a valid VASP license, you may not use, copy or distribute this file. 
   VRHFIN =Al: s2p1                                                                                 
   LEXCH  = PE                                                                                      
   EATOM  =    53.5387 eV,    3.9350 Ry                                                             
                                                                                                    
   TITEL  = PAW_PBE Al 04Jan2001                                                                    
   LULTRA =        F    use ultrasoft PP ?                                                          
   IUNSCR =        1    unscreen: 0-lin 1-nonlin 2-no                                               
   RPACOR =    1.500    partial core radius                                                         
   POMASS =   26.981; ZVAL   =    3.000    mass and valenz                                          
   RCORE  =    1.900    outmost cutoff radius                                                       
   RWIGS  =    2.650; RWIGS  =    1.402    wigner-seitz radius (au A)                               
   ENMAX  =  240.300; ENMIN  =  180.225 eV                                                          
   ICORE  =        2    local potential                                                             
   LCOR   =        T    correct aug charges                                                         
   LPAW   =        T    paw PP                                                                      
   EAUG   =  291.052                                                                                
   DEXC   =    0.000                                                                                
   RMAX   =    1.939    core radius for proj-oper                                                   
   RAUG   =    1.300    factor for augmentation sphere                                              
   RDEP   =    1.966    radius for radial grids                                                     
   RDEPT  =    1.856    core radius for aug-charge                                                  
                                                                                                    
   Atomic configuration                                                                             
    6 entries                                                                                       
     n  l   j            E        occ.                                                              
     1  0  0.50     -1511.1048   2.0000                                                             
     2  0  0.50      -108.1629   2.0000                                                             
     2  1  1.50       -69.6402   6.0000                                                             
     3  0  0.50        -7.7528   2.0000                                                             
     3  1  1.50        -2.7121   1.0000                                                             
     3  2  2.50        -2.7212   0.0000                                                             
   Description                                                                                      
     l       E           TYP  RCUT    TYP  RCUT                                                     
     0     -7.7528455     23  1.900                                                                 
     0     -3.3096929     23  1.900                                                                 
     1     -2.7120682     23  1.900                                                                 
     1     13.6058260     23  1.900                                                                 
     2     -2.7211652      7  1.900                                                                 
  local pseudopotential read in
  partial core-charges read in
  partial kinetic energy density read in
  atomic valenz-charges read in
  non local Contribution for L=           0  read in
    real space projection operators read in
  non local Contribution for L=           0  read in
    real space projection operators read in
  non local Contribution for L=           1  read in
    real space projection operators read in
  non local Contribution for L=           1  read in
    real space projection operators read in
    PAW grid and wavefunctions read in
 
   number of l-projection  operators is LMAX  =           4
   number of lm-projection operators is LMMAX =           8
 
  PAW_PBE Al 04Jan2001                  :
 energy of atom  1       EATOM=  -53.5387
 kinetic energy error for atom=    0.0002 (will be added to EATOM!!)
 
 
 POSCAR: Al4
  positions in direct lattice
  velocities in cartesian coordinates


 exchange-correlation table for PE
   RHO(1)=    0.500       N(1)  =     2000
   RHO(2)=  100.500       N(2)  =     4000
 


--------------------------------------------------------------------------------------------------------


 ion  position               nearest neighbor table
   1  0.000  0.000  0.000-   2 2.86   3 2.86   2 2.86   3 2.86   2 2.86   4 2.86   2 2.86   3 2.86
                             4 2.86   3 2.86   4 2.86   4 2.86
   2  0.000  0.500  0.500-   1 2.86   4 2.86   1 2.86   4 2.86   1 2.86   3 2.86   1 2.86   3 2.86
                             4 2.86   4 2.86   3 2.86   3 2.86
   3  0.500  0.000  0.500-   1 2.86   4 2.86   1 2.86   4 2.86   2 2.86   4 2.86   4 2.86   1 2.86
                             2 2.86   1 2.86   2 2.86   2 2.86
   4  0.500  0.500  0.000-   2 2.86   3 2.86   2 2.86   3 2.86   1 2.86   3 2.86   3 2.86   1 2.86
                             2 2.86   2 2.86   1 2.86   1 2.86
 
  LATTYP: Found a simple cubic cell.
 ALAT       =     4.0436897231
  
  Lattice vectors:
  
 A1 = (   4.0436897231,   0.0000000000,   0.0000000000)
 A2 = (   0.0000000000,   4.0436897231,   0.0000000000)
 A3 = (   0.0000000000,   0.0000000000,   4.0436897231)


Analysis of symmetry for initial positions (statically):
=====================================================================
 Subroutine PRICEL returns following result:
 
  LATTYP: Found a face centered cubic cell.
 ALAT       =     4.0436897231
  
  Lattice vectors:
  
 A1 = (   2.0218448615,  -2.0218448615,   0.0000000000)
 A2 = (   2.0218448615,   0.0000000000,   2.0218448615)
 A3 = (  -0.0000000000,  -2.0218448615,   2.0218448615)
 
   4 primitive cells build up your supercell.
 

 Routine SETGRP: Setting up the symmetry group for a 
 simple cubic supercell.


 Subroutine GETGRP returns: Found 48 space group operations
 (whereof 48 operations were pure point group operations)
 out of a pool of 48 trial point group operations.


The static configuration has the point symmetry O_h .


Analysis of symmetry for dynamics (positions and initial velocities):
=====================================================================
 Subroutine PRICEL returns following result:
 
  LATTYP: Found a face centered cubic cell.
 ALAT       =     4.0436897231
  
  Lattice vectors:
  
 A1 = (   2.0218448615,  -2.0218448615,   0.0000000000)
 A2 = (   2.0218448615,   0.0000000000,   2.0218448615)
 A3 = (  -0.0000000000,  -2.0218448615,   2.0218448615)
 
   4 primitive cells build up your supercell.
 

 Routine SETGRP: Setting up the symmetry group for a 
 simple cubic supercell.


 Subroutine GETGRP returns: Found 48 space group operations
 (whereof 48 operations were pure point group operations)
 out of a pool of 48 trial point group operations.


The dynamic configuration has the point symmetry O_h .


 Subroutine INISYM returns: Found 48 space group operations
 (whereof 48 operations are pure point group operations),
 and found     4 'primitive' translations


----------------------------------------------------------------------------------------

                                     Primitive cell                                     

  volume of cell :      16.5300

  direct lattice vectors                    reciprocal lattice vectors
     2.021844862 -2.021844862  0.000000000     0.247298895 -0.247298895 -0.247298895
     2.021844862  0.000000000  2.021844862     0.247298895  0.247298895  0.247298895
    -0.000000000 -2.021844862  2.021844862    -0.247298895 -0.247298895  0.247298895

  length of vectors
     2.859320424  2.859320424  2.859320424     0.428334251  0.428334251  0.428334251

  position of ions in fractional coordinates (direct lattice)
     0.000000000  0.000000000  0.000000000

  ion indices of the primitive-cell ions
   primitive index   ion index
                 1           1

----------------------------------------------------------------------------------------

 
 
 KPOINTS: pymatgen with grid density = 9000 / numb

Automatic generation of k-mesh.
 Grid dimensions read from file:
 generate k-points for:   13   13   13

 Generating k-lattice:

  Cartesian coordinates                     Fractional coordinates (reciprocal lattice)
     0.019022992 -0.000000000  0.000000000     0.076923077  0.000000000  0.000000000
     0.000000000  0.019022992  0.000000000     0.000000000  0.076923077  0.000000000
    -0.000000000 -0.000000000  0.019022992     0.000000000  0.000000000  0.076923077

  Length of vectors
     0.019022992  0.019022992  0.019022992

  Shift w.r.t. Gamma in fractional coordinates (k-lattice)
     0.000000000  0.000000000  0.000000000

 TETIRR: Found   1081 inequivalent tetrahedra from    13182
 
 Subroutine IBZKPT returns following result:
 ===========================================
 
 Found     84 irreducible k-points:
 
 Following reciprocal coordinates:
            Coordinates               Weight
  0.000000  0.000000  0.000000      1.000000
  0.076923  0.000000  0.000000      6.000000
  0.153846  0.000000  0.000000      6.000000
  0.230769  0.000000  0.000000      6.000000
  0.307692  0.000000  0.000000      6.000000
  0.384615  0.000000  0.000000      6.000000
  0.461538  0.000000  0.000000      6.000000
  0.076923  0.076923  0.000000     12.000000
  0.153846  0.076923  0.000000     24.000000
  0.230769  0.076923  0.000000     24.000000
  0.307692  0.076923  0.000000     24.000000
  0.384615  0.076923  0.000000     24.000000
  0.461538  0.076923  0.000000     24.000000
  0.153846  0.153846  0.000000     12.000000
  0.230769  0.153846  0.000000     24.000000
  0.307692  0.153846  0.000000     24.000000
  0.384615  0.153846  0.000000     24.000000
  0.461538  0.153846  0.000000     24.000000
  0.230769  0.230769  0.000000     12.000000
  0.307692  0.230769  0.000000     24.000000
  0.384615  0.230769  0.000000     24.000000
  0.461538  0.230769  0.000000     24.000000
  0.307692  0.307692  0.000000     12.000000
  0.384615  0.307692  0.000000     24.000000
  0.461538  0.307692  0.000000     24.000000
  0.384615  0.384615  0.000000     12.000000
  0.461538  0.384615  0.000000     24.000000
  0.461538  0.461538  0.000000     12.000000
  0.076923  0.076923  0.076923      8.000000
  0.153846  0.076923  0.076923     24.000000
  0.230769  0.076923  0.076923     24.000000
  0.307692  0.076923  0.076923     24.000000
  0.384615  0.076923  0.076923     24.000000
  0.461538  0.076923  0.076923     24.000000
  0.153846  0.153846  0.076923     24.000000
  0.230769  0.153846  0.076923     48.000000
  0.307692  0.153846  0.076923     48.000000
  0.384615  0.153846  0.076923     48.000000
  0.461538  0.153846  0.076923     48.000000
  0.230769  0.230769  0.076923     24.000000
  0.307692  0.230769  0.076923     48.000000
  0.384615  0.230769  0.076923     48.000000
  0.461538  0.230769  0.076923     48.000000
  0.307692  0.307692  0.076923     24.000000
  0.384615  0.307692  0.076923     48.000000
  0.461538  0.307692  0.076923     48.000000
  0.384615  0.384615  0.076923     24.000000
  0.461538  0.384615  0.076923     48.000000
  0.461538  0.461538  0.076923     24.000000
  0.153846  0.153846  0.153846      8.000000
  0.230769  0.153846  0.153846     24.000000
  0.307692  0.153846  0.153846     24.000000
  0.384615  0.153846  0.153846     24.000000
  0.461538  0.153846  0.153846     24.000000
  0.230769  0.230769  0.153846     24.000000
  0.307692  0.230769  0.153846     48.000000
  0.384615  0.230769  0.153846     48.000000
  0.461538  0.230769  0.153846     48.000000
  0.307692  0.307692  0.153846     24.000000
  0.384615  0.307692  0.153846     48.000000
  0.461538  0.307692  0.153846     48.000000
  0.384615  0.384615  0.153846     24.000000
  0.461538  0.384615  0.153846     48.000000
  0.461538  0.461538  0.153846     24.000000
  0.230769  0.230769  0.230769      8.000000
  0.307692  0.230769  0.230769     24.000000
  0.384615  0.230769  0.230769     24.000000
  0.461538  0.230769  0.230769     24.000000
  0.307692  0.307692  0.230769     24.000000
  0.384615  0.307692  0.230769     48.000000
  0.461538  0.307692  0.230769     48.000000
  0.384615  0.384615  0.230769     24.000000
  0.461538  0.384615  0.230769     48.000000
  0.461538  0.461538  0.230769     24.000000
  0.307692  0.307692  0.307692      8.000000
  0.384615  0.307692  0.307692     24.000000
  0.461538  0.307692  0.307692     24.000000
  0.384615  0.384615  0.307692     24.000000
  0.461538  0.384615  0.307692     48.000000
  0.461538  0.461538  0.307692     24.000000
  0.384615  0.384615  0.384615      8.000000
  0.461538  0.384615  0.384615     24.000000
  0.461538  0.461538  0.384615     24.000000
  0.461538  0.461538  0.461538      8.000000
 
 Following cartesian coordinates:
            Coordinates               Weight
  0.000000  0.000000  0.000000      1.000000
  0.019023  0.000000  0.000000      6.000000
  0.038046  0.000000  0.000000      6.000000
  0.057069  0.000000  0.000000      6.000000
  0.076092  0.000000  0.000000      6.000000
  0.095115  0.000000  0.000000      6.000000
  0.114138  0.000000  0.000000      6.000000
  0.019023  0.019023  0.000000     12.000000
  0.038046  0.019023  0.000000     24.000000
  0.057069  0.019023  0.000000     24.000000
  0.076092  0.019023  0.000000     24.000000
  0.095115  0.019023  0.000000     24.000000
  0.114138  0.019023  0.000000     24.000000
  0.038046  0.038046  0.000000     12.000000
  0.057069  0.038046  0.000000     24.000000
  0.076092  0.038046  0.000000     24.000000
  0.095115  0.038046  0.000000     24.000000
  0.114138  0.038046  0.000000     24.000000
  0.057069  0.057069  0.000000     12.000000
  0.076092  0.057069  0.000000     24.000000
  0.095115  0.057069  0.000000     24.000000
  0.114138  0.057069  0.000000     24.000000
  0.076092  0.076092  0.000000     12.000000
  0.095115  0.076092  0.000000     24.000000
  0.114138  0.076092  0.000000     24.000000
  0.095115  0.095115  0.000000     12.000000
  0.114138  0.095115  0.000000     24.000000
  0.114138  0.114138  0.000000     12.000000
  0.019023  0.019023  0.019023      8.000000
  0.038046  0.019023  0.019023     24.000000
  0.057069  0.019023  0.019023     24.000000
  0.076092  0.019023  0.019023     24.000000
  0.095115  0.019023  0.019023     24.000000
  0.114138  0.019023  0.019023     24.000000
  0.038046  0.038046  0.019023     24.000000
  0.057069  0.038046  0.019023     48.000000
  0.076092  0.038046  0.019023     48.000000
  0.095115  0.038046  0.019023     48.000000
  0.114138  0.038046  0.019023     48.000000
  0.057069  0.057069  0.019023     24.000000
  0.076092  0.057069  0.019023     48.000000
  0.095115  0.057069  0.019023     48.000000
  0.114138  0.057069  0.019023     48.000000
  0.076092  0.076092  0.019023     24.000000
  0.095115  0.076092  0.019023     48.000000
  0.114138  0.076092  0.019023     48.000000
  0.095115  0.095115  0.019023     24.000000
  0.114138  0.095115  0.019023     48.000000
  0.114138  0.114138  0.019023     24.000000
  0.038046  0.038046  0.038046      8.000000
  0.057069  0.038046  0.038046     24.000000
  0.076092  0.038046  0.038046     24.000000
  0.095115  0.038046  0.038046     24.000000
  0.114138  0.038046  0.038046     24.000000
  0.057069  0.057069  0.038046     24.000000
  0.076092  0.057069  0.038046     48.000000
  0.095115  0.057069  0.038046     48.000000
  0.114138  0.057069  0.038046     48.000000
  0.076092  0.076092  0.038046     24.000000
  0.095115  0.076092  0.038046     48.000000
  0.114138  0.076092  0.038046     48.000000
  0.095115  0.095115  0.038046     24.000000
  0.114138  0.095115  0.038046     48.000000
  0.114138  0.114138  0.038046     24.000000
  0.057069  0.057069  0.057069      8.000000
  0.076092  0.057069  0.057069     24.000000
  0.095115  0.057069  0.057069     24.000000
  0.114138  0.057069  0.057069     24.000000
  0.076092  0.076092  0.057069     24.000000
  0.095115  0.076092  0.057069     48.000000
  0.114138  0.076092  0.057069     48.000000
  0.095115  0.095115  0.057069     24.000000
  0.114138  0.095115  0.057069     48.000000
  0.114138  0.114138  0.057069     24.000000
  0.076092  0.076092  0.076092      8.000000
  0.095115  0.076092  0.076092     24.000000
  0.114138  0.076092  0.076092     24.000000
  0.095115  0.095115  0.076092     24.000000
  0.114138  0.095115  0.076092     48.000000
  0.114138  0.114138  0.076092     24.000000
  0.095115  0.095115  0.095115      8.000000
  0.114138  0.095115  0.095115     24.000000
  0.114138  0.114138  0.095115     24.000000
  0.114138  0.114138  0.114138      8.000000
 


--------------------------------------------------------------------------------------------------------




 Dimension of arrays:
   k-points           NKPTS =     84   k-points in BZ     NKDIM =     84   number of bands    NBANDS=    128
   number of dos      NEDOS =    301   number of ions     NIONS =      4
   non local maximal  LDIM  =      4   non local SUM 2l+1 LMDIM =      8
   total plane-waves  NPLWV =  27000
   max r-space proj   IRMAX =      1   max aug-charges    IRDMAX=  16090
   dimension x,y,z NGX =    30 NGY =   30 NGZ =   30
   dimension x,y,z NGXF=    60 NGYF=   60 NGZF=   60
   support grid    NGXF=    60 NGYF=   60 NGZF=   60
   ions per type =               4
   NGX,Y,Z   is equivalent  to a cutoff of  12.33, 12.33, 12.33 a.u.
   NGXF,Y,Z  is equivalent  to a cutoff of  24.67, 24.67, 24.67 a.u.

 SYSTEM =  unknown system                          
 POSCAR =  Al4                                     

 Startparameter for this run:
   NWRITE =      2    write-flag & timer
   PREC   = accura    normal or accurate (medium, high low for compatibility)
   ISTART =      0    job   : 0-new  1-cont  2-samecut
   ICHARG =      2    charge: 1-file 2-atom 10-const
   ISPIN  =      1    spin polarized calculation?
   LNONCOLLINEAR =      F non collinear calculations
   LSORBIT =      F    spin-orbit coupling
   INIWAV =      1    electr: 0-lowe 1-rand  2-diag
   LASPH  =      F    aspherical Exc in radial PAW
 Electronic Relaxation 1
   ENCUT  =  520.0 eV  38.22 Ry    6.18 a.u.   7.52  7.52  7.52*2*pi/ulx,y,z
   ENINI  =  520.0     initial cutoff
   ENAUG  =  291.1 eV  augmentation charge cutoff
   NELM   =    200;   NELMIN=  2; NELMDL=  0     # of ELM steps 
   EDIFF  = 0.1E-05   stopping-criterion for ELM
   LREAL  =      F    real-space projection
   NLSPLINE    = F    spline interpolate recip. space projectors
   LCOMPAT=      F    compatible to vasp.4.4
   GGA_COMPAT  = T    GGA compatible to vasp.4.4-vasp.4.6
   LMAXPAW     = -100 max onsite density
   LMAXMIX     =    2 max onsite mixed and CHGCAR
   VOSKOWN=      0    Vosko Wilk Nusair interpolation
   ROPT   =    0.00000
 Ionic relaxation
   EDIFFG = -.1E-01   stopping-criterion for IOM
   NSW    =      0    number of steps for IOM
   NBLOCK =      1;   KBLOCK =      1    inner block; outer block 
   IBRION =     -1    ionic relax: 0-MD 1-quasi-New 2-CG
   NFREE  =      0    steps in history (QN), initial steepest desc. (CG)
   ISIF   =      2    stress and relaxation
   IWAVPR =     10    prediction:  0-non 1-charg 2-wave 3-comb
   ISYM   =      2    0-nonsym 1-usesym 2-fastsym
   LCORR  =      T    Harris-Foulkes like correction to forces

   POTIM  = 0.5000    time-step for ionic-motion
   TEIN   =    0.0    initial temperature
   TEBEG  =    0.0;   TEEND  =   0.0 temperature during run
   SMASS  =  -3.00    Nose mass-parameter (am)
   estimated Nose-frequenzy (Omega)   =  0.10E-29 period in steps = 0.13E+47 mass=  -0.374E-27a.u.
   SCALEE = 1.0000    scale energy and forces
   NPACO  =    256;   APACO  = 10.0  distance and # of slots for P.C.
   PSTRESS=    0.0 pullay stress

  Mass of Ions in am
   POMASS =  26.98
  Ionic Valenz
   ZVAL   =   3.00
  Atomic Wigner-Seitz radii
   RWIGS  =  -1.00
  virtual crystal weights 
   VCA    =   1.00
   NELECT =      12.0000    total number of electrons
   NUPDOWN=      -1.0000    fix difference up-down

 DOS related values:
   EMIN   =  10.00;   EMAX   =-10.00  energy-range for DOS
   EFERMI =   0.00;   METHOD = LEGACY      
   ISMEAR =    -5;   SIGMA  =   0.20  broadening in eV -4-tet -1-fermi 0-gaus

 Electronic relaxation 2 (details)
   IALGO  =     38    algorithm
   LDIAG  =      T    sub-space diagonalisation (order eigenvalues)
   LSUBROT=      F    optimize rotation matrix (better conditioning)
   TURBO    =      0    0=normal 1=particle mesh
   IRESTART =      0    0=no restart 2=restart with 2 vectors
   NREBOOT  =      0    no. of reboots
   NMIN     =      0    reboot dimension
   EREF     =   0.00    reference energy to select bands
   IMIX   =      4    mixing-type and parameters
     AMIX     =   0.40;   BMIX     =  1.00
     AMIX_MAG =   1.60;   BMIX_MAG =  1.00
     AMIN     =   0.10
     WC   =   100.;   INIMIX=   1;  MIXPRE=   1;  MAXMIX= -45

 Intra band minimization:
   WEIMIN = 0.0000     energy-eigenvalue tresh-hold
   EBREAK =  0.20E-08  absolut break condition
   DEPER  =   0.30     relativ break condition  

   TIME   =   0.40     timestep for ELM

  volume/ion in A,a.u.               =      16.53       111.55
  Fermi-wavevector in a.u.,A,eV,Ry     =   0.926881  1.751552 11.688885  0.859109
  Thomas-Fermi vector in A             =   2.052891
 
 Write flags
   LWAVE        =      F    write WAVECAR
   LDOWNSAMPLE  =      F    k-point downsampling of WAVECAR
   LCHARG       =      F    write CHGCAR
   LVTOT        =      F    write LOCPOT, total local potential
   LVHAR        =      F    write LOCPOT, Hartree potential only
   WRT_POTENTIAL= false  ! write potential to hdf5 file
   LELF         =      F    write electronic localiz. function (ELF)
   LORBIT       =      0    0 simple, 1 ext, 2 COOP (PROOUT), +10 PAW based schemes


 Dipole corrections
   LMONO      =      F    monopole corrections only (constant potential shift)
   LDIPOL     =      F    correct potential (dipole corrections)
   IDIPOL     =      0    1-x, 2-y, 3-z, 4-all directions 
   EPSILON    =  1.0000000 bulk dielectric constant
   LVACPOTAV  =      F  vacuum potentials using an averaging scheme for the charge density
   VACPOTFLAT =  0.1000000 required flatness to determine vacuum potential
 Exchange correlation treatment:
   GGA     = PE    functional components
   XC_C    = 1    coefficients multiplying the functional components
   LIBXC   =     F    Libxc                    
   VOSKOWN =     0    Vosko Wilk Nusair interpolation
   LHFCALC =     F    Hartree Fock is set to
   LHFONE  =     F    Hartree Fock one center treatment
   AEXX    =    0.0000 exact exchange contribution

 Parameters of functionals:
   PE:
     No parameter
 
 Van der Waals corrections
   IVDW    =     0    specifies the selected vdW correction

 Linear response parameters
   LEPSILON=     F    determine dielectric tensor
   LRPA    =     F    only Hartree local field effects (RPA)
   LNABLA  =     F    use nabla operator in PAW spheres
   LVEL    =     F    velocity operator in full k-point grid
   CSHIFT  =0.1000    complex shift for real part using Kramers Kronig
   OMEGAMAX=  -1.0    maximum frequency
   DEG_THRESHOLD= 0.2000000E-02 threshold for treating states as degnerate
   RTIME   =   -0.100 relaxation time in fs
  (WPLASMAI=    0.000 imaginary part of plasma frequency in eV, 0.658/RTIME)
   DFIELD  = 0.0000000 0.0000000 0.0000000 field for delta impulse in time
 
  Optional k-point grid parameters
   LKPOINTS_OPT  =     F    use optional k-point grid
   KPOINTS_OPT_MODE=     1    mode for optional k-point grid
 
 Orbital magnetization related:
   ORBITALMAG=     F  switch on orbital magnetization
   LCHIMAG   =     F  perturbation theory with respect to B field
   DQ        =  0.001000  dq finite difference perturbation B field
   LLRAUG    =     F  two centre corrections for induced B field
   LBONE     =     F  B-component reconstruction in AE one-centre
   LVGVCALC  =     T  calculate vGv susceptibility
   LVGVAPPL  =     F  apply vGv susceptibility instead of pGv for G=0

 Random number generation:
   RANDOM_GENERATOR = DEFAULT
   PCG_SEED         = not used


--------------------------------------------------------------------------------------------------------


 Static calculation
 charge density and potential will be updated during run
 non-spin polarized calculation
 Variant of blocked Davidson
 Davidson routine will perform the subspace rotation
 perform sub-space diagonalisation
    after iterative eigenvector-optimisation
 modified Broyden-mixing scheme, WC =      100.0
 initial mixing is a Kerker type mixing with AMIX =  0.4000 and BMIX =      1.0000
 Hartree-type preconditioning will be used
 using additional bands          122
 reciprocal scheme for non local part
 use partial core corrections
 calculate Harris-corrections to forces 
   (improved forces if not selfconsistent)
 use gradient corrections 
 use of overlap-Matrix (Vanderbilt PP)
 Fermi weights with tetrahedron method with Bloechl corrections


--------------------------------------------------------------------------------------------------------


  energy-cutoff  :      520.00
  volume of cell :       66.12
      direct lattice vectors                 reciprocal lattice vectors
     4.043689723  0.000000000  0.000000000     0.247298895 -0.000000000  0.000000000
     0.000000000  4.043689723  0.000000000     0.000000000  0.247298895  0.000000000
     0.000000000  0.000000000  4.043689723    -0.000000000 -0.000000000  0.247298895

  length of vectors
     4.043689723  4.043689723  4.043689723     0.247298895  0.247298895  0.247298895


 
 k-points in units of 2pi/SCALE and weight: pymatgen with grid density = 9000 / numb
   0.00000000  0.00000000  0.00000000       0.000
   0.01902299  0.00000000  0.00000000       0.003
   0.03804598  0.00000000  0.00000000       0.003
   0.05706898  0.00000000  0.00000000       0.003
   0.07609197  0.00000000  0.00000000       0.003
   0.09511496  0.00000000  0.00000000       0.003
   0.11413795  0.00000000  0.00000000       0.003
   0.01902299  0.01902299  0.00000000       0.005
   0.03804598  0.01902299  0.00000000       0.011
   0.05706898  0.01902299  0.00000000       0.011
   0.07609197  0.01902299  0.00000000       0.011
   0.09511496  0.01902299  0.00000000       0.011
   0.11413795  0.01902299  0.00000000       0.011
   0.03804598  0.03804598  0.00000000       0.005
   0.05706898  0.03804598  0.00000000       0.011
   0.07609197  0.03804598  0.00000000       0.011
   0.09511496  0.03804598  0.00000000       0.011
   0.11413795  0.03804598  0.00000000       0.011
   0.05706898  0.05706898  0.00000000       0.005
   0.07609197  0.05706898  0.00000000       0.011
   0.09511496  0.05706898  0.00000000       0.011
   0.11413795  0.05706898  0.00000000       0.011
   0.07609197  0.07609197  0.00000000       0.005
   0.09511496  0.07609197  0.00000000       0.011
   0.11413795  0.07609197  0.00000000       0.011
   0.09511496  0.09511496  0.00000000       0.005
   0.11413795  0.09511496  0.00000000       0.011
   0.11413795  0.11413795  0.00000000       0.005
   0.01902299  0.01902299  0.01902299       0.004
   0.03804598  0.01902299  0.01902299       0.011
   0.05706898  0.01902299  0.01902299       0.011
   0.07609197  0.01902299  0.01902299       0.011
   0.09511496  0.01902299  0.01902299       0.011
   0.11413795  0.01902299  0.01902299       0.011
   0.03804598  0.03804598  0.01902299       0.011
   0.05706898  0.03804598  0.01902299       0.022
   0.07609197  0.03804598  0.01902299       0.022
   0.09511496  0.03804598  0.01902299       0.022
   0.11413795  0.03804598  0.01902299       0.022
   0.05706898  0.05706898  0.01902299       0.011
   0.07609197  0.05706898  0.01902299       0.022
   0.09511496  0.05706898  0.01902299       0.022
   0.11413795  0.05706898  0.01902299       0.022
   0.07609197  0.07609197  0.01902299       0.011
   0.09511496  0.07609197  0.01902299       0.022
   0.11413795  0.07609197  0.01902299       0.022
   0.09511496  0.09511496  0.01902299       0.011
   0.11413795  0.09511496  0.01902299       0.022
   0.11413795  0.11413795  0.01902299       0.011
   0.03804598  0.03804598  0.03804598       0.004
   0.05706898  0.03804598  0.03804598       0.011
   0.07609197  0.03804598  0.03804598       0.011
   0.09511496  0.03804598  0.03804598       0.011
   0.11413795  0.03804598  0.03804598       0.011
   0.05706898  0.05706898  0.03804598       0.011
   0.07609197  0.05706898  0.03804598       0.022
   0.09511496  0.05706898  0.03804598       0.022
   0.11413795  0.05706898  0.03804598       0.022
   0.07609197  0.07609197  0.03804598       0.011
   0.09511496  0.07609197  0.03804598       0.022
   0.11413795  0.07609197  0.03804598       0.022
   0.09511496  0.09511496  0.03804598       0.011
   0.11413795  0.09511496  0.03804598       0.022
   0.11413795  0.11413795  0.03804598       0.011
   0.05706898  0.05706898  0.05706898       0.004
   0.07609197  0.05706898  0.05706898       0.011
   0.09511496  0.05706898  0.05706898       0.011
   0.11413795  0.05706898  0.05706898       0.011
   0.07609197  0.07609197  0.05706898       0.011
   0.09511496  0.07609197  0.05706898       0.022
   0.11413795  0.07609197  0.05706898       0.022
   0.09511496  0.09511496  0.05706898       0.011
   0.11413795  0.09511496  0.05706898       0.022
   0.11413795  0.11413795  0.05706898       0.011
   0.07609197  0.07609197  0.07609197       0.004
   0.09511496  0.07609197  0.07609197       0.011
   0.11413795  0.07609197  0.07609197       0.011
   0.09511496  0.09511496  0.07609197       0.011
   0.11413795  0.09511496  0.07609197       0.022
   0.11413795  0.11413795  0.07609197       0.011
   0.09511496  0.09511496  0.09511496       0.004
   0.11413795  0.09511496  0.09511496       0.011
   0.11413795  0.11413795  0.09511496       0.011
   0.11413795  0.11413795  0.11413795       0.004
 
 k-points in reciprocal lattice and weights: pymatgen with grid density = 9000 / numb
   0.00000000  0.00000000  0.00000000       0.000
   0.07692308  0.00000000  0.00000000       0.003
   0.15384615  0.00000000  0.00000000       0.003
   0.23076923  0.00000000  0.00000000       0.003
   0.30769231  0.00000000  0.00000000       0.003
   0.38461538  0.00000000  0.00000000       0.003
   0.46153846  0.00000000  0.00000000       0.003
   0.07692308  0.07692308  0.00000000       0.005
   0.15384615  0.07692308  0.00000000       0.011
   0.23076923  0.07692308  0.00000000       0.011
   0.30769231  0.07692308  0.00000000       0.011
   0.38461538  0.07692308  0.00000000       0.011
   0.46153846  0.07692308  0.00000000       0.011
   0.15384615  0.15384615  0.00000000       0.005
   0.23076923  0.15384615  0.00000000       0.011
   0.30769231  0.15384615  0.00000000       0.011
   0.38461538  0.15384615  0.00000000       0.011
   0.46153846  0.15384615  0.00000000       0.011
   0.23076923  0.23076923  0.00000000       0.005
   0.30769231  0.23076923  0.00000000       0.011
   0.38461538  0.23076923  0.00000000       0.011
   0.46153846  0.23076923  0.00000000       0.011
   0.30769231  0.30769231  0.00000000       0.005
   0.38461538  0.30769231  0.00000000       0.011
   0.46153846  0.30769231  0.00000000       0.011
   0.38461538  0.38461538  0.00000000       0.005
   0.46153846  0.38461538  0.00000000       0.011
   0.46153846  0.46153846  0.00000000       0.005
   0.07692308  0.07692308  0.07692308       0.004
   0.15384615  0.07692308  0.07692308       0.011
   0.23076923  0.07692308  0.07692308       0.011
   0.30769231  0.07692308  0.07692308       0.011
   0.38461538  0.07692308  0.07692308       0.011
   0.46153846  0.07692308  0.07692308       0.011
   0.15384615  0.15384615  0.07692308       0.011
   0.23076923  0.15384615  0.07692308       0.022
   0.30769231  0.15384615  0.07692308       0.022
   0.38461538  0.15384615  0.07692308       0.022
   0.46153846  0.15384615  0.07692308       0.022
   0.23076923  0.23076923  0.07692308       0.011
   0.30769231  0.23076923  0.07692308       0.022
   0.38461538  0.23076923  0.07692308       0.022
   0.46153846  0.23076923  0.07692308       0.022
   0.30769231  0.30769231  0.07692308       0.011
   0.38461538  0.30769231  0.07692308       0.022
   0.46153846  0.30769231  0.07692308       0.022
   0.38461538  0.38461538  0.07692308       0.011
   0.46153846  0.38461538  0.07692308       0.022
   0.46153846  0.46153846  0.07692308       0.011
   0.15384615  0.15384615  0.15384615       0.004
   0.23076923  0.15384615  0.15384615       0.011
   0.30769231  0.15384615  0.15384615       0.011
   0.38461538  0.15384615  0.15384615       0.011
   0.46153846  0.15384615  0.15384615       0.011
   0.23076923  0.23076923  0.15384615       0.011
   0.30769231  0.23076923  0.15384615       0.022
   0.38461538  0.23076923  0.15384615       0.022
   0.46153846  0.23076923  0.15384615       0.022
   0.30769231  0.30769231  0.15384615       0.011
   0.38461538  0.30769231  0.15384615       0.022
   0.46153846  0.30769231  0.15384615       0.022
   0.38461538  0.38461538  0.15384615       0.011
   0.46153846  0.38461538  0.15384615       0.022
   0.46153846  0.46153846  0.15384615       0.011
   0.23076923  0.23076923  0.23076923       0.004
   0.30769231  0.23076923  0.23076923       0.011
   0.38461538  0.23076923  0.23076923       0.011
   0.46153846  0.23076923  0.23076923       0.011
   0.30769231  0.30769231  0.23076923       0.011
   0.38461538  0.30769231  0.23076923       0.022
   0.46153846  0.30769231  0.23076923       0.022
   0.38461538  0.38461538  0.23076923       0.011
   0.46153846  0.38461538  0.23076923       0.022
   0.46153846  0.46153846  0.23076923       0.011
   0.30769231  0.30769231  0.30769231       0.004
   0.38461538  0.30769231  0.30769231       0.011
   0.46153846  0.30769231  0.30769231       0.011
   0.38461538  0.38461538  0.30769231       0.011
   0.46153846  0.38461538  0.30769231       0.022
   0.46153846  0.46153846  0.30769231       0.011
   0.38461538  0.38461538  0.38461538       0.004
   0.46153846  0.38461538  0.38461538       0.011
   0.46153846  0.46153846  0.38461538       0.011
   0.46153846  0.46153846  0.46153846       0.004
 
 position of ions in fractional coordinates (direct lattice) 
   0.00000000  0.00000000  0.00000000
   0.00000000  0.50000000  0.50000000
   0.50000000  0.00000000  0.50000000
   0.50000000  0.50000000  0.00000000
 
 position of ions in cartesian coordinates  (Angst):
   0.00000000  0.00000000  0.00000000
   0.00000000  2.02184486  2.02184486
   2.02184486  0.00000000  2.02184486
   2.02184486  2.02184486  0.00000000
 


--------------------------------------------------------------------------------------------------------


 k-point     1 :   0.0000 0.0000 0.0000  plane waves:    1791
 k-point     2 :   0.0769 0.0000 0.0000  plane waves:    1791
 k-point     3 :   0.1538 0.0000 0.0000  plane waves:    1795
 k-point     4 :   0.2308 0.0000 0.0000  plane waves:    1791
 k-point     5 :   0.3077 0.0000 0.0000  plane waves:    1783
 k-point     6 :   0.3846 0.0000 0.0000  plane waves:    1775
 k-point     7 :   0.4615 0.0000 0.0000  plane waves:    1787
 k-point     8 :   0.0769 0.0769 0.0000  plane waves:    1793
 k-point     9 :   0.1538 0.0769 0.0000  plane waves:    1798
 k-point    10 :   0.2308 0.0769 0.0000  plane waves:    1795
 k-point    11 :   0.3077 0.0769 0.0000  plane waves:    1786
 k-point    12 :   0.3846 0.0769 0.0000  plane waves:    1781
 k-point    13 :   0.4615 0.0769 0.0000  plane waves:    1786
 k-point    14 :   0.1538 0.1538 0.0000  plane waves:    1785
 k-point    15 :   0.2308 0.1538 0.0000  plane waves:    1787
 k-point    16 :   0.3077 0.1538 0.0000  plane waves:    1787
 k-point    17 :   0.3846 0.1538 0.0000  plane waves:    1785
 k-point    18 :   0.4615 0.1538 0.0000  plane waves:    1783
 k-point    19 :   0.2308 0.2308 0.0000  plane waves:    1783
 k-point    20 :   0.3077 0.2308 0.0000  plane waves:    1785
 k-point    21 :   0.3846 0.2308 0.0000  plane waves:    1785
 k-point    22 :   0.4615 0.2308 0.0000  plane waves:    1781
 k-point    23 :   0.3077 0.3077 0.0000  plane waves:    1785
 k-point    24 :   0.3846 0.3077 0.0000  plane waves:    1783
 k-point    25 :   0.4615 0.3077 0.0000  plane waves:    1772
 k-point    26 :   0.3846 0.3846 0.0000  plane waves:    1770
 k-point    27 :   0.4615 0.3846 0.0000  plane waves:    1764
 k-point    28 :   0.4615 0.4615 0.0000  plane waves:    1758
 k-point    29 :   0.0769 0.0769 0.0769  plane waves:    1797
 k-point    30 :   0.1538 0.0769 0.0769  plane waves:    1797
 k-point    31 :   0.2308 0.0769 0.0769  plane waves:    1787
 k-point    32 :   0.3077 0.0769 0.0769  plane waves:    1783
 k-point    33 :   0.3846 0.0769 0.0769  plane waves:    1776
 k-point    34 :   0.4615 0.0769 0.0769  plane waves:    1777
 k-point    35 :   0.1538 0.1538 0.0769  plane waves:    1797
 k-point    36 :   0.2308 0.1538 0.0769  plane waves:    1785
 k-point    37 :   0.3077 0.1538 0.0769  plane waves:    1788
 k-point    38 :   0.3846 0.1538 0.0769  plane waves:    1788
 k-point    39 :   0.4615 0.1538 0.0769  plane waves:    1779
 k-point    40 :   0.2308 0.2308 0.0769  plane waves:    1786
 k-point    41 :   0.3077 0.2308 0.0769  plane waves:    1788
 k-point    42 :   0.3846 0.2308 0.0769  plane waves:    1789
 k-point    43 :   0.4615 0.2308 0.0769  plane waves:    1779
 k-point    44 :   0.3077 0.3077 0.0769  plane waves:    1789
 k-point    45 :   0.3846 0.3077 0.0769  plane waves:    1782
 k-point    46 :   0.4615 0.3077 0.0769  plane waves:    1765
 k-point    47 :   0.3846 0.3846 0.0769  plane waves:    1770
 k-point    48 :   0.4615 0.3846 0.0769  plane waves:    1766
 k-point    49 :   0.4615 0.4615 0.0769  plane waves:    1762
 k-point    50 :   0.1538 0.1538 0.1538  plane waves:    1797
 k-point    51 :   0.2308 0.1538 0.1538  plane waves:    1791
 k-point    52 :   0.3077 0.1538 0.1538  plane waves:    1786
 k-point    53 :   0.3846 0.1538 0.1538  plane waves:    1782
 k-point    54 :   0.4615 0.1538 0.1538  plane waves:    1777
 k-point    55 :   0.2308 0.2308 0.1538  plane waves:    1785
 k-point    56 :   0.3077 0.2308 0.1538  plane waves:    1788
 k-point    57 :   0.3846 0.2308 0.1538  plane waves:    1782
 k-point    58 :   0.4615 0.2308 0.1538  plane waves:    1774
 k-point    59 :   0.3077 0.3077 0.1538  plane waves:    1785
 k-point    60 :   0.3846 0.3077 0.1538  plane waves:    1775
 k-point    61 :   0.4615 0.3077 0.1538  plane waves:    1773
 k-point    62 :   0.3846 0.3846 0.1538  plane waves:    1778
 k-point    63 :   0.4615 0.3846 0.1538  plane waves:    1765
 k-point    64 :   0.4615 0.4615 0.1538  plane waves:    1766
 k-point    65 :   0.2308 0.2308 0.2308  plane waves:    1782
 k-point    66 :   0.3077 0.2308 0.2308  plane waves:    1785
 k-point    67 :   0.3846 0.2308 0.2308  plane waves:    1782
 k-point    68 :   0.4615 0.2308 0.2308  plane waves:    1775
 k-point    69 :   0.3077 0.3077 0.2308  plane waves:    1776
 k-point    70 :   0.3846 0.3077 0.2308  plane waves:    1772
 k-point    71 :   0.4615 0.3077 0.2308  plane waves:    1774
 k-point    72 :   0.3846 0.3846 0.2308  plane waves:    1774
 k-point    73 :   0.4615 0.3846 0.2308  plane waves:    1773
 k-point    74 :   0.4615 0.4615 0.2308  plane waves:    1772
 k-point    75 :   0.3077 0.3077 0.3077  plane waves:    1785
 k-point    76 :   0.3846 0.3077 0.3077  plane waves:    1779
 k-point    77 :   0.4615 0.3077 0.3077  plane waves:    1773
 k-point    78 :   0.3846 0.3846 0.3077  plane waves:    1772
 k-point    79 :   0.4615 0.3846 0.3077  plane waves:    1774
 k-point    80 :   0.4615 0.4615 0.3077  plane waves:    1779
 k-point    81 :   0.3846 0.3846 0.3846  plane waves:    1778
 k-point    82 :   0.4615 0.3846 0.3846  plane waves:    1775
 k-point    83 :   0.4615 0.4615 0.3846  plane waves:    1786
 k-point    84 :   0.4615 0.4615 0.4615  plane waves:    1784

 maximum and minimum number of plane-waves per node :      1798     1758

 maximum number of plane-waves:      1798
 maximum index in each direction: 
   IXMAX=    7   IYMAX=    7   IZMAX=    7
   IXMIN=   -7   IYMIN=   -7   IZMIN=   -7


 serial   3D FFT for wavefunctions
 parallel 3D FFT for charge:
    minimum data exchange during FFTs selected (reduces bandwidth)


 total amount of memory used by VASP MPI-rank0    44735. kBytes
=======================================================================

   base      :      30000. kBytes
   nonl-proj :      10444. kBytes
   fftplans  :        256. kBytes
   grid      :       1271. kBytes
   one-center:         12. kBytes
   wavefun   :       2752. kBytes
 
     INWAV:  cpu time      0.0000: real time      0.0000
 Broyden mixing: mesh for mixing (old mesh)
   NGX = 15   NGY = 15   NGZ = 15
  (NGX  = 60   NGY  = 60   NGZ  = 60)
  gives a total of   3375 points

 initial charge density was supplied:
 charge density of overlapping atoms calculated
 number of electron      12.0000000 magnetization 
 keeping initial charge density in first step


--------------------------------------------------------------------------------------------------------


 Maximum index for augmentation-charges          749 (set IRDMAX)


--------------------------------------------------------------------------------------------------------


 First call to EWALD:  gamma=   0.438
 Maximum number of real-space cells 3x 3x 3
 Maximum number of reciprocal cells 3x 3x 3

    FEWALD:  cpu time      0.0028: real time      0.0028


--------------------------------------- Ionic step        1  -------------------------------------------




--------------------------------------- Iteration      1(   1)  ---------------------------------------


    POTLOK:  cpu time      0.0193: real time      0.0445
    SETDIJ:  cpu time      0.0080: real time      0.0086
     EDDAV:  cpu time     48.7112: real time     48.9365
 BZINTS: Fermi energy:    8.095071;   12.000000 electrons
         Band energy: 0.437136E+02;  BLOECHL correction:   -0.139835
       DOS:  cpu time      0.0675: real time      0.0683
    --------------------------------------------
      LOOP:  cpu time     48.8060: real time     49.0579

 eigenvalue-minimisations  : 30336
 total energy-change (2. order) :-0.1439234E+02  (-0.4679307E+03)
 number of electron      12.0000000 magnetization 
 augmentation part       12.0000000 magnetization 

 Free energy of the ion-electron system (eV)
  ---------------------------------------------------
  alpha Z        PSCENC =        -0.81277799
  Ewald energy   TEWEN  =      -293.88473869
  -Hartree energ DENC   =        -0.40832449
  -exchange      EXHF   =         0.00000000
  -V(xc)+E(xc)   XCENC  =      -104.97206531
  PAW double counting   =       264.80062850     -136.98248303
  entropy T*S    EENTRO =         0.00000000
  eigenvalues    EBANDS =        43.71359068
  atomic energy  EATOM  =       214.15382826
  Solvation  Ediel_sol  =         0.00000000
  ---------------------------------------------------
  free energy    TOTEN  =       -14.39234207 eV

  energy without entropy =      -14.39234207  energy(sigma->0) =      -14.39234207


--------------------------------------------------------------------------------------------------------




--------------------------------------- Iteration      1(   2)  ---------------------------------------


     EDDAV:  cpu time     62.1568: real time     62.4444
 BZINTS: Fermi energy:    7.983888;   12.000000 electrons
         Band energy: 0.430287E+02;  BLOECHL correction:   -0.142516
       DOS:  cpu time      0.0577: real time      0.0582
    --------------------------------------------
      LOOP:  cpu time     62.2145: real time     62.5026

 eigenvalue-minimisations  : 33536
 total energy-change (2. order) :-0.6849356E+00  (-0.6791447E+00)
 number of electron      12.0000000 magnetization 
 augmentation part       12.0000000 magnetization 

 Free energy of the ion-electron system (eV)
  ---------------------------------------------------
  alpha Z        PSCENC =        -0.81277799
  Ewald energy   TEWEN  =      -293.88473869
  -Hartree energ DENC   =        -0.40832449
  -exchange      EXHF   =         0.00000000
  -V(xc)+E(xc)   XCENC  =      -104.97206531
  PAW double counting   =       264.80062850     -136.98248303
  entropy T*S    EENTRO =         0.00000000
  eigenvalues    EBANDS =        43.02865510
  atomic energy  EATOM  =       214.15382826
  Solvation  Ediel_sol  =         0.00000000
  ---------------------------------------------------
  free energy    TOTEN  =       -15.07727765 eV

  energy without entropy =      -15.07727765  energy(sigma->0) =      -15.07727765


--------------------------------------------------------------------------------------------------------




--------------------------------------- Iteration      1(   3)  ---------------------------------------


     EDDAV:  cpu time     37.5232: real time     37.7099
 BZINTS: Fermi energy:    7.983870;   12.000000 electrons
         Band energy: 0.430286E+02;  BLOECHL correction:   -0.142517
       DOS:  cpu time      0.0526: real time      0.0798
    --------------------------------------------
      LOOP:  cpu time     37.5758: real time     37.7897

 eigenvalue-minimisations  : 23552
 total energy-change (2. order) :-0.9580480E-04  (-0.9495322E-04)
 number of electron      12.0000000 magnetization 
 augmentation part       12.0000000 magnetization 

 Free energy of the ion-electron system (eV)
  ---------------------------------------------------
  alpha Z        PSCENC =        -0.81277799
  Ewald energy   TEWEN  =      -293.88473869
  -Hartree energ DENC   =        -0.40832449
  -exchange      EXHF   =         0.00000000
  -V(xc)+E(xc)   XCENC  =      -104.97206531
  PAW double counting   =       264.80062850     -136.98248303
  entropy T*S    EENTRO =         0.00000000
  eigenvalues    EBANDS =        43.02855930
  atomic energy  EATOM  =       214.15382826
  Solvation  Ediel_sol  =         0.00000000
  ---------------------------------------------------
  free energy    TOTEN  =       -15.07737345 eV

  energy without entropy =      -15.07737345  energy(sigma->0) =      -15.07737345


--------------------------------------------------------------------------------------------------------




--------------------------------------- Iteration      1(   4)  ---------------------------------------


     EDDAV:  cpu time     98.6231: real time     99.0651
 BZINTS: Fermi energy:    7.983870;   12.000000 electrons
         Band energy: 0.430286E+02;  BLOECHL correction:   -0.142517
       DOS:  cpu time      0.0543: real time      0.0549
    --------------------------------------------
      LOOP:  cpu time     98.6774: real time     99.1200

 eigenvalue-minimisations  : 40704
 total energy-change (2. order) :-0.2218940E-08  (-0.1584452E-08)
 number of electron      12.0000000 magnetization 
 augmentation part       12.0000000 magnetization 

 Free energy of the ion-electron system (eV)
  ---------------------------------------------------
  alpha Z        PSCENC =        -0.81277799
  Ewald energy   TEWEN  =      -293.88473869
  -Hartree energ DENC   =        -0.40832449
  -exchange      EXHF   =         0.00000000
  -V(xc)+E(xc)   XCENC  =      -104.97206531
  PAW double counting   =       264.80062850     -136.98248303
  entropy T*S    EENTRO =         0.00000000
  eigenvalues    EBANDS =        43.02855930
  atomic energy  EATOM  =       214.15382826
  Solvation  Ediel_sol  =         0.00000000
  ---------------------------------------------------
  free energy    TOTEN  =       -15.07737345 eV

  energy without entropy =      -15.07737345  energy(sigma->0) =      -15.07737345


--------------------------------------------------------------------------------------------------------




--------------------------------------- Iteration      1(   5)  ---------------------------------------


     EDDAV:  cpu time     34.2424: real time     34.4120
 BZINTS: Fermi energy:    7.983870;   12.000000 electrons
         Band energy: 0.430286E+02;  BLOECHL correction:   -0.142517
       DOS:  cpu time      0.0541: real time      0.0548
    CHARGE:  cpu time      0.0480: real time      0.0493
    MIXING:  cpu time      0.0080: real time      0.0084
    --------------------------------------------
      LOOP:  cpu time     34.3524: real time     34.5245

 eigenvalue-minimisations  : 23552
 total energy-change (2. order) : 0.6741629E-09  (-0.9687474E-14)
 number of electron      12.0000000 magnetization 
 augmentation part       -0.1481824 magnetization 

 Broyden mixing:
  rms(total) = 0.26034E+00    rms(broyden)= 0.26034E+00
  rms(prec ) = 0.47087E+00
  weight for this iteration     100.00

 Free energy of the ion-electron system (eV)
  ---------------------------------------------------
  alpha Z        PSCENC =        -0.81277799
  Ewald energy   TEWEN  =      -293.88473869
  -Hartree energ DENC   =        -0.40832449
  -exchange      EXHF   =         0.00000000
  -V(xc)+E(xc)   XCENC  =      -104.97206531
  PAW double counting   =       264.80062850     -136.98248303
  entropy T*S    EENTRO =         0.00000000
  eigenvalues    EBANDS =        43.02855930
  atomic energy  EATOM  =       214.15382826
  Solvation  Ediel_sol  =         0.00000000
  ---------------------------------------------------
  free energy    TOTEN  =       -15.07737345 eV

  energy without entropy =      -15.07737345  energy(sigma->0) =      -15.07737345


--------------------------------------------------------------------------------------------------------




--------------------------------------- Iteration      1(   6)  ---------------------------------------


    POTLOK:  cpu time      0.0224: real time      0.0274
    SETDIJ:  cpu time      0.0013: real time      0.0013
     EDDAV:  cpu time     47.9463: real time     48.1674
 BZINTS: Fermi energy:    7.970392;   12.000000 electrons
         Band energy: 0.428844E+02;  BLOECHL correction:   -0.142716
       DOS:  cpu time      0.0545: real time      0.0551
    CHARGE:  cpu time      0.0367: real time      0.0369
    MIXING:  cpu time      0.0035: real time      0.0035
    --------------------------------------------
      LOOP:  cpu time     48.0647: real time     48.2916

 eigenvalue-minimisations  : 27648
 total energy-change (2. order) : 0.5213403E-01  (-0.6742459E-03)
 number of electron      12.0000000 magnetization 
 augmentation part       -0.1503430 magnetization 

 Broyden mixing:
  rms(total) = 0.15141E+00    rms(broyden)= 0.15141E+00
  rms(prec ) = 0.28839E+00
  weight for this iteration     100.00

 eigenvalues of (default mixing * dielectric matrix)
  average eigenvalue GAMMA=   2.3352
  2.3352

 Free energy of the ion-electron system (eV)
  ---------------------------------------------------
  alpha Z        PSCENC =        -0.81277799
  Ewald energy   TEWEN  =      -293.88473869
  -Hartree energ DENC   =        -0.34107030
  -exchange      EXHF   =         0.00000000
  -V(xc)+E(xc)   XCENC  =      -104.83151093
  PAW double counting   =       378.78646593     -250.97988186
  entropy T*S    EENTRO =         0.00000000
  eigenvalues    EBANDS =        42.88444617
  atomic energy  EATOM  =       214.15382826
  Solvation  Ediel_sol  =         0.00000000
  ---------------------------------------------------
  free energy    TOTEN  =       -15.02523942 eV

  energy without entropy =      -15.02523942  energy(sigma->0) =      -15.02523942


--------------------------------------------------------------------------------------------------------




--------------------------------------- Iteration      1(   7)  ---------------------------------------


    POTLOK:  cpu time      0.0235: real time      0.0292
    SETDIJ:  cpu time      0.0011: real time      0.0011
     EDDAV:  cpu time     56.0881: real time     56.3404
 BZINTS: Fermi energy:    7.954791;   12.000000 electrons
         Band energy: 0.427321E+02;  BLOECHL correction:   -0.143073
       DOS:  cpu time      0.0546: real time      0.0552
    CHARGE:  cpu time      0.0367: real time      0.0369
    MIXING:  cpu time      0.0027: real time      0.0027
    --------------------------------------------
      LOOP:  cpu time     56.2067: real time     56.4655

 eigenvalue-minimisations  : 30848
 total energy-change (2. order) : 0.3772508E-01  (-0.1920270E-02)
 number of electron      12.0000000 magnetization 
 augmentation part       -0.1544445 magnetization 

 Broyden mixing:
  rms(total) = 0.26923E-01    rms(broyden)= 0.26923E-01
  rms(prec ) = 0.29172E-01
  weight for this iteration     100.00

 eigenvalues of (default mixing * dielectric matrix)
  average eigenvalue GAMMA=   2.8557
  2.8557  2.8557

 Free energy of the ion-electron system (eV)
  ---------------------------------------------------
  alpha Z        PSCENC =        -0.81277799
  Ewald energy   TEWEN  =      -293.88473869
  -Hartree energ DENC   =        -0.40084435
  -exchange      EXHF   =         0.00000000
  -V(xc)+E(xc)   XCENC  =      -104.55674496
  PAW double counting   =       604.85747403     -477.07585574
  entropy T*S    EENTRO =         0.00000000
  eigenvalues    EBANDS =        42.73214510
  atomic energy  EATOM  =       214.15382826
  Solvation  Ediel_sol  =         0.00000000
  ---------------------------------------------------
  free energy    TOTEN  =       -14.98751434 eV

  energy without entropy =      -14.98751434  energy(sigma->0) =      -14.98751434


--------------------------------------------------------------------------------------------------------




--------------------------------------- Iteration      1(   8)  ---------------------------------------


    POTLOK:  cpu time      0.0231: real time      0.0291
    SETDIJ:  cpu time      0.0011: real time      0.0011
     EDDAV:  cpu time     48.1651: real time     48.3878
 BZINTS: Fermi energy:    7.955251;   12.000000 electrons
         Band energy: 0.427398E+02;  BLOECHL correction:   -0.143083
       DOS:  cpu time      0.0547: real time      0.0554
    CHARGE:  cpu time      0.0366: real time      0.0368
    MIXING:  cpu time      0.0005: real time      0.0005
    --------------------------------------------
      LOOP:  cpu time     48.2810: real time     48.5106

 eigenvalue-minimisations  : 27904
 total energy-change (2. order) : 0.1047299E-03  (-0.2908879E-05)
 number of electron      12.0000000 magnetization 
 augmentation part       -0.1547188 magnetization 

 Broyden mixing:
  rms(total) = 0.40851E-02    rms(broyden)= 0.40851E-02
  rms(prec ) = 0.52465E-02
  weight for this iteration     100.00

 eigenvalues of (default mixing * dielectric matrix)
  average eigenvalue GAMMA=   2.1083
  1.0648  2.5305  2.7298

 Free energy of the ion-electron system (eV)
  ---------------------------------------------------
  alpha Z        PSCENC =        -0.81277799
  Ewald energy   TEWEN  =      -293.88473869
  -Hartree energ DENC   =        -0.41517376
  -exchange      EXHF   =         0.00000000
  -V(xc)+E(xc)   XCENC  =      -104.53806059
  PAW double counting   =       552.86136770     -425.09166711
  entropy T*S    EENTRO =         0.00000000
  eigenvalues    EBANDS =        42.73981258
  atomic energy  EATOM  =       214.15382826
  Solvation  Ediel_sol  =         0.00000000
  ---------------------------------------------------
  free energy    TOTEN  =       -14.98740961 eV

  energy without entropy =      -14.98740961  energy(sigma->0) =      -14.98740961


--------------------------------------------------------------------------------------------------------




--------------------------------------- Iteration      1(   9)  ---------------------------------------


    POTLOK:  cpu time      0.0237: real time      0.0296
    SETDIJ:  cpu time      0.0010: real time      0.0010
     EDDAV:  cpu time     75.8778: real time     76.2127
 BZINTS: Fermi energy:    7.955005;   12.000000 electrons
         Band energy: 0.427373E+02;  BLOECHL correction:   -0.143089
       DOS:  cpu time      0.0549: real time      0.0556
    CHARGE:  cpu time      0.0369: real time      0.0371
    MIXING:  cpu time      0.0005: real time      0.0005
    --------------------------------------------
      LOOP:  cpu time     75.9948: real time     76.3365

 eigenvalue-minimisations  : 35072
 total energy-change (2. order) : 0.3851955E-05  (-0.4256303E-06)
 number of electron      12.0000000 magnetization 
 augmentation part       -0.1547688 magnetization 

 Broyden mixing:
  rms(total) = 0.12598E-03    rms(broyden)= 0.12597E-03
  rms(prec ) = 0.16085E-03
  weight for this iteration     100.00

 eigenvalues of (default mixing * dielectric matrix)
  average eigenvalue GAMMA=   2.2140
  0.9982  2.6674  2.6674  2.5230

 Free energy of the ion-electron system (eV)
  ---------------------------------------------------
  alpha Z        PSCENC =        -0.81277799
  Ewald energy   TEWEN  =      -293.88473869
  -Hartree energ DENC   =        -0.41687201
  -exchange      EXHF   =         0.00000000
  -V(xc)+E(xc)   XCENC  =      -104.53445937
  PAW double counting   =       559.94174844     -432.17145550
  entropy T*S    EENTRO =         0.00000000
  eigenvalues    EBANDS =        42.73732112
  atomic energy  EATOM  =       214.15382826
  Solvation  Ediel_sol  =         0.00000000
  ---------------------------------------------------
  free energy    TOTEN  =       -14.98740576 eV

  energy without entropy =      -14.98740576  energy(sigma->0) =      -14.98740576


--------------------------------------------------------------------------------------------------------




--------------------------------------- Iteration      1(  10)  ---------------------------------------


    POTLOK:  cpu time      0.0285: real time      0.0293
    SETDIJ:  cpu time      0.0010: real time      0.0011
     EDDAV:  cpu time     73.7162: real time     74.1679
 BZINTS: Fermi energy:    7.954984;   12.000000 electrons
         Band energy: 0.427370E+02;  BLOECHL correction:   -0.143089
       DOS:  cpu time      0.0552: real time      0.0559
    --------------------------------------------
      LOOP:  cpu time     73.8010: real time     74.2540

 eigenvalue-minimisations  : 26496
 total energy-change (2. order) : 0.9892154E-06  (-0.6024934E-09)
 number of electron      12.0000000 magnetization 
 augmentation part       -0.1547688 magnetization 

 Free energy of the ion-electron system (eV)
  ---------------------------------------------------
  alpha Z        PSCENC =        -0.81277799
  Ewald energy   TEWEN  =      -293.88473869
  -Hartree energ DENC   =        -0.41683987
  -exchange      EXHF   =         0.00000000
  -V(xc)+E(xc)   XCENC  =      -104.53453014
  PAW double counting   =       559.92330786     -432.15270167
  entropy T*S    EENTRO =         0.00000000
  eigenvalues    EBANDS =        42.73704748
  atomic energy  EATOM  =       214.15382826
  Solvation  Ediel_sol  =         0.00000000
  ---------------------------------------------------
  free energy    TOTEN  =       -14.98740477 eV

  energy without entropy =      -14.98740477  energy(sigma->0) =      -14.98740477


--------------------------------------------------------------------------------------------------------




 average (electrostatic) potential at core
  the test charge radii are     1.0406
  (the norm of the test charge is              1.0000)
       1 -72.6515       2 -72.6515       3 -72.6515       4 -72.6515
 
 
 
 E-fermi :   7.9550     XC(G=0): -10.1902     alpha+bet :-14.8493

 val. band max:        8.0713970789   @ k =   0.3077   0.3077   0.1538
 cond. band min:       7.6337979045   @ k =   0.2308   0.2308   0.2308
 fundamental gap:     -0.4375991743
 Fermi energy:         7.9549838342

 k-point     1 :       0.0000    0.0000    0.0000
  band No.  band energies     occupation 
      1      -3.1409      2.00000
      2       5.0616      2.00000
      3       5.0616      2.00000
      4       5.0616      2.00000
      5       6.3806      2.00000
      6       6.3806      2.00000
      7       6.3806      2.00000
      8      13.2384      0.00000
      9      13.2384      0.00000
     10      13.2384      0.00000
     11      13.5668      0.00000
     12      13.5668      0.00000
     13      13.5668      0.00000
     14      13.5668      0.00000
     15      13.5668      0.00000
     16      13.5668      0.00000
     17      17.0322      0.00000
     18      17.0322      0.00000
     19      17.0322      0.00000
     20      20.5900      0.00000
     21      20.5900      0.00000
     22      20.5900      0.00000
     23      22.0679      0.00000
     24      22.0679      0.00000
     25      22.0679      0.00000
     26      24.4335      0.00000
     27      27.3792      0.00000
     28      27.3792      0.00000
     29      30.2400      0.00000
     30      32.5917      0.00000
     31      32.5917      0.00000
     32      32.5917      0.00000
     33      33.3590      0.00000
     34      33.3590      0.00000
     35      33.3590      0.00000
     36      34.8677      0.00000
     37      34.8677      0.00000
     38      34.8677      0.00000
     39      34.8677      0.00000
     40      34.8677      0.00000
     41      34.8677      0.00000
     42      40.5322      0.00000
     43      40.5322      0.00000
     44      40.5322      0.00000
     45      41.1853      0.00000
     46      41.3350      0.00000
     47      41.3350      0.00000
     48      41.3350      0.00000
     49      41.3350      0.00000
     50      41.3350      0.00000
     51      41.3350      0.00000
     52      41.7457      0.00000
     53      41.7457      0.00000
     54      41.7457      0.00000
     55      42.6774      0.00000
     56      42.6774      0.00000
     57      42.6774      0.00000
     58      48.4096      0.00000
     59      48.4096      0.00000
     60      48.4096      0.00000
     61      48.4096      0.00000
     62      48.4096      0.00000
     63      48.4096      0.00000
     64      49.0191      0.00000
     65      49.0191      0.00000
     66      49.0191      0.00000
     67      49.4076      0.00000
     68      49.4076      0.00000
     69      49.4076      0.00000
     70      49.4076      0.00000
     71      49.4076      0.00000
     72      49.4076      0.00000
     73      50.3766      0.00000
     74      50.3766      0.00000
     75      50.3766      0.00000
     76      50.5642      0.00000
     77      50.5642      0.00000
     78      50.5642      0.00000
     79      52.5760      0.00000
     80      52.5760      0.00000
     81      52.5760      0.00000
     82      56.0666      0.00000
     83      56.0666      0.00000
     84      56.0666      0.00000
     85      56.1041      0.00000
     86      57.0549      0.00000
     87      57.0549      0.00000
     88      57.0549      0.00000
     89      57.0549      0.00000
     90      57.0549      0.00000
     91      57.0549      0.00000
     92      59.3524      0.00000
     93      59.3524      0.00000
     94      59.3524      0.00000
     95      59.5273      0.00000
     96      59.5273      0.00000
     97      59.5273      0.00000
     98      59.7943      0.00000
     99      59.7943      0.00000
    100      59.7943      0.00000
    101      62.9787      0.00000
    102      62.9787      0.00000
    103      63.9533      0.00000
    104      63.9533      0.00000
    105      63.9533      0.00000
    106      65.2201      0.00000
    107      65.2201      0.00000
    108      65.2201      0.00000
    109      72.1720      0.00000
    110      72.1720      0.00000
    111      72.1720      0.00000
    112      73.3527      0.00000
    113      73.3527      0.00000
    114      73.3527      0.00000
    115      75.2729      0.00000
    116      75.2729      0.00000
    117      75.2729      0.00000
    118      75.4153      0.00000
    119      75.4153      0.00000
    120      75.4153      0.00000
    121      75.4153      0.00000
    122      75.4153      0.00000
    123      75.4153      0.00000
    124      76.2583      0.00000
    125      76.2583      0.00000
    126      76.2583      0.00000
    127      77.0495      0.00000
    128      77.0495      0.00000

 k-point     2 :       0.0769    0.0000    0.0000
  band No.  band energies     occupation 
      1      -3.0873      2.00000
      2       4.2853      2.00000
      3       5.1106      2.00000
      4       5.1106      2.00000
      5       6.4324      2.00000
      6       6.4324      2.00000
      7       7.2497      1.91983
      8      12.1544      0.00000
      9      12.1544      0.00000
     10      13.1880      0.00000
     11      13.1880      0.00000
     12      13.2913      0.00000
     13      13.6123      0.00000
     14      13.6123      0.00000
     15      14.7499      0.00000
     16      14.7499      0.00000
     17      17.0813      0.00000
     18      17.4911      0.00000
     19      17.4911      0.00000
     20      19.9806      0.00000
     21      19.9806      0.00000
     22      20.1856      0.00000
     23      21.9356      0.00000
     24      22.7562      0.00000
     25      22.7562      0.00000
     26      24.9450      0.00000
     27      26.6740      0.00000
     28      27.4289      0.00000
     29      30.1803      0.00000
     30      32.6525      0.00000
     31      32.6525      0.00000
     32      33.0675      0.00000
     33      33.0675      0.00000
     34      33.1501      0.00000
     35      33.4655      0.00000
     36      34.1681      0.00000
     37      34.1681      0.00000
     38      34.6822      0.00000
     39      34.6822      0.00000
     40      34.8794      0.00000
     41      34.8794      0.00000
     42      40.8460      0.00000
     43      40.8460      0.00000
     44      40.8462      0.00000
     45      40.8612      0.00000
     46      40.8612      0.00000
     47      41.0052      0.00000
     48      41.3635      0.00000
     49      41.3635      0.00000
     50      41.4086      0.00000
     51      41.4491      0.00000
     52      41.4491      0.00000
     53      41.9812      0.00000
     54      41.9812      0.00000
     55      43.1563      0.00000
     56      43.2474      0.00000
     57      43.2474      0.00000
     58      46.6541      0.00000
     59      46.6541      0.00000
     60      46.9532      0.00000
     61      47.8987      0.00000
     62      47.8987      0.00000
     63      48.0377      0.00000
     64      48.0377      0.00000
     65      48.2773      0.00000
     66      48.2773      0.00000
     67      49.5859      0.00000
     68      49.5859      0.00000
     69      50.4585      0.00000
     70      50.4585      0.00000
     71      50.6137      0.00000
     72      51.0334      0.00000
     73      51.0334      0.00000
     74      51.0596      0.00000
     75      51.0596      0.00000
     76      51.4099      0.00000
     77      51.4099      0.00000
     78      52.5052      0.00000
     79      52.6686      0.00000
     80      52.6686      0.00000
     81      52.7840      0.00000
     82      55.8485      0.00000
     83      55.9840      0.00000
     84      55.9840      0.00000
     85      56.3231      0.00000
     86      56.9023      0.00000
     87      56.9023      0.00000
     88      56.9686      0.00000
     89      56.9686      0.00000
     90      57.0640      0.00000
     91      57.0640      0.00000
     92      58.8361      0.00000
     93      58.8361      0.00000
     94      59.1623      0.00000
     95      59.3881      0.00000
     96      59.5197      0.00000
     97      59.5197      0.00000
     98      60.0382      0.00000
     99      60.0382      0.00000
    100      60.0659      0.00000
    101      61.2678      0.00000
    102      62.9744      0.00000
    103      63.8465      0.00000
    104      63.8465      0.00000
    105      63.9088      0.00000
    106      65.8087      0.00000
    107      65.8087      0.00000
    108      67.0059      0.00000
    109      70.5080      0.00000
    110      72.2091      0.00000
    111      72.2091      0.00000
    112      72.6942      0.00000
    113      73.0972      0.00000
    114      73.0972      0.00000
    115      73.2446      0.00000
    116      73.2446      0.00000
    117      73.4025      0.00000
    118      73.4025      0.00000
    119      75.1673      0.00000
    120      75.1673      0.00000
    121      75.3906      0.00000
    122      75.3906      0.00000
    123      76.4192      0.00000
    124      76.7322      0.00000
    125      77.0875      0.00000
    126      77.1486      0.00000
    127      77.1486      0.00000
    128      78.0886      0.00000

 k-point     3 :       0.1538    0.0000    0.0000
  band No.  band energies     occupation 
      1      -2.9268      2.00000
      2       3.1729      2.00000
      3       5.2577      2.00000
      4       5.2577      2.00000
      5       6.5873      2.00000
      6       6.5873      2.00000
      7       8.6402      0.06851
      8      11.0214      0.00000
      9      11.0214      0.00000
     10      12.3800      0.00000
     11      12.3800      0.00000
     12      13.4498      0.00000
     13      13.7488      0.00000
     14      13.7488      0.00000
     15      16.1797      0.00000
     16      16.1797      0.00000
     17      17.2277      0.00000
     18      18.5382      0.00000
     19      18.5382      0.00000
     20      19.0292      0.00000
     21      19.0292      0.00000
     22      19.3242      0.00000
     23      21.5736      0.00000
     24      23.9410      0.00000
     25      23.9410      0.00000
     26      25.0400      0.00000
     27      26.1273      0.00000
     28      27.5775      0.00000
     29      30.4728      0.00000
     30      32.2411      0.00000
     31      32.2411      0.00000
     32      32.5806      0.00000
     33      32.5806      0.00000
     34      32.6129      0.00000
     35      32.8378      0.00000
     36      32.8378      0.00000
     37      34.1817      0.00000
     38      34.1817      0.00000
     39      34.9123      0.00000
     40      34.9123      0.00000
     41      35.0665      0.00000
     42      39.8318      0.00000
     43      40.2977      0.00000
     44      40.2977      0.00000
     45      41.2515      0.00000
     46      41.2515      0.00000
     47      41.4485      0.00000
     48      41.4485      0.00000
     49      41.4890      0.00000
     50      41.4890      0.00000
     51      41.6985      0.00000
     52      42.1076      0.00000
     53      42.6182      0.00000
     54      42.6182      0.00000
     55      43.5169      0.00000
     56      43.9648      0.00000
     57      43.9648      0.00000
     58      44.4179      0.00000
     59      45.0745      0.00000
     60      45.0745      0.00000
     61      46.9670      0.00000
     62      46.9670      0.00000
     63      47.0637      0.00000
     64      47.0637      0.00000
     65      48.2620      0.00000
     66      48.2620      0.00000
     67      50.2421      0.00000
     68      50.2421      0.00000
     69      50.8833      0.00000
     70      51.7259      0.00000
     71      51.7259      0.00000
     72      52.2528      0.00000
     73      52.2528      0.00000
     74      52.3088      0.00000
     75      52.3088      0.00000
     76      52.9170      0.00000
     77      52.9170      0.00000
     78      53.3253      0.00000
     79      53.9472      0.00000
     80      53.9472      0.00000
     81      55.2021      0.00000
     82      55.5783      0.00000
     83      55.5783      0.00000
     84      55.5833      0.00000
     85      56.5250      0.00000
     86      56.5565      0.00000
     87      56.5565      0.00000
     88      56.7185      0.00000
     89      56.7185      0.00000
     90      57.1319      0.00000
     91      57.1319      0.00000
     92      57.8591      0.00000
     93      57.8591      0.00000
     94      58.6529      0.00000
     95      58.8608      0.00000
     96      59.4944      0.00000
     97      59.4991      0.00000
     98      59.4991      0.00000
     99      60.2360      0.00000
    100      60.6371      0.00000
    101      60.6371      0.00000
    102      62.9361      0.00000
    103      63.5698      0.00000
    104      63.5698      0.00000
    105      63.8181      0.00000
    106      67.1028      0.00000
    107      67.1028      0.00000
    108      68.1241      0.00000
    109      69.6192      0.00000
    110      70.5124      0.00000
    111      70.5124      0.00000
    112      71.1062      0.00000
    113      71.1062      0.00000
    114      71.1879      0.00000
    115      72.3015      0.00000
    116      72.3015      0.00000
    117      72.8708      0.00000
    118      72.8708      0.00000
    119      73.5441      0.00000
    120      73.5441      0.00000
    121      74.6338      0.00000
    122      74.6338      0.00000
    123      76.8875      0.00000
    124      77.1991      0.00000
    125      77.9886      0.00000
    126      77.9886      0.00000
    127      78.0028      0.00000
    128      78.2786      0.00000

 k-point     4 :       0.2308    0.0000    0.0000
  band No.  band energies     occupation 
      1      -2.6595      2.00000
      2       2.1093      2.00000
      3       5.5030      2.00000
      4       5.5030      2.00000
      5       6.8429      2.00196
      6       6.8429      2.08487
      7       9.9847      0.00000
      8       9.9847      0.00000
      9      10.1671      0.00000
     10      11.4785      0.00000
     11      11.4785      0.00000
     12      13.7136      0.00000
     13      13.9763      0.00000
     14      13.9763      0.00000
     15      17.4689      0.00000
     16      17.7098      0.00000
     17      17.7098      0.00000
     18      18.1030      0.00000
     19      18.1030      0.00000
     20      18.3657      0.00000
     21      19.8350      0.00000
     22      19.8350      0.00000
     23      21.0584      0.00000
     24      23.1025      0.00000
     25      25.2441      0.00000
     26      25.2441      0.00000
     27      27.6204      0.00000
     28      27.8241      0.00000
     29      30.6748      0.00000
     30      30.6748      0.00000
     31      31.0163      0.00000
     32      31.0163      0.00000
     33      31.0988      0.00000
     34      31.9093      0.00000
     35      33.1567      0.00000
     36      33.1567      0.00000
     37      33.4676      0.00000
     38      33.4676      0.00000
     39      34.9599      0.00000
     40      34.9599      0.00000
     41      36.6456      0.00000
     42      38.5919      0.00000
     43      39.9846      0.00000
     44      39.9846      0.00000
     45      40.6497      0.00000
     46      40.6497      0.00000
     47      41.5771      0.00000
     48      41.5771      0.00000
     49      41.5893      0.00000
     50      41.5893      0.00000
     51      41.9485      0.00000
     52      42.9269      0.00000
     53      43.0971      0.00000
     54      43.0971      0.00000
     55      43.3393      0.00000
     56      43.4057      0.00000
     57      44.2866      0.00000
     58      44.2866      0.00000
     59      44.8125      0.00000
     60      44.8125      0.00000
     61      45.9789      0.00000
     62      45.9789      0.00000
     63      46.3028      0.00000
     64      46.3028      0.00000
     65      48.7551      0.00000
     66      48.7551      0.00000
     67      51.4564      0.00000
     68      51.5095      0.00000
     69      51.5095      0.00000
     70      52.9810      0.00000
     71      52.9810      0.00000
     72      53.2670      0.00000
     73      53.2670      0.00000
     74      53.8107      0.00000
     75      53.8107      0.00000
     76      53.8952      0.00000
     77      53.8952      0.00000
     78      54.0979      0.00000
     79      54.5419      0.00000
     80      54.5419      0.00000
     81      55.2705      0.00000
     82      56.1763      0.00000
     83      56.1763      0.00000
     84      56.1816      0.00000
     85      56.1816      0.00000
     86      56.3368      0.00000
     87      56.3368      0.00000
     88      56.4776      0.00000
     89      56.7067      0.00000
     90      57.2266      0.00000
     91      57.2266      0.00000
     92      57.6514      0.00000
     93      57.6514      0.00000
     94      57.7994      0.00000
     95      57.9866      0.00000
     96      59.4749      0.00000
     97      59.4749      0.00000
     98      59.6645      0.00000
     99      59.9688      0.00000
[...]
     56      46.9526      0.00000
     57      47.7629      0.00000
     58      48.3281      0.00000
     59      48.3281      0.00000
     60      49.0270      0.00000
     61      49.0581      0.00000
     62      49.9174      0.00000
     63      49.9174      0.00000
     64      50.3297      0.00000
     65      50.3297      0.00000
     66      50.3977      0.00000
     67      51.0067      0.00000
     68      51.0067      0.00000
     69      53.8609      0.00000
     70      54.0449      0.00000
     71      54.0449      0.00000
     72      54.2660      0.00000
     73      54.6740      0.00000
     74      54.6740      0.00000
     75      55.1711      0.00000
     76      55.3321      0.00000
     77      55.6731      0.00000
     78      55.6731      0.00000
     79      55.7607      0.00000
     80      55.9842      0.00000
     81      56.2171      0.00000
     82      56.2574      0.00000
     83      56.2574      0.00000
     84      56.2685      0.00000
     85      56.8474      0.00000
     86      56.9686      0.00000
     87      56.9686      0.00000
     88      57.3233      0.00000
     89      57.4784      0.00000
     90      57.4784      0.00000
     91      58.8026      0.00000
     92      58.9398      0.00000
     93      59.1686      0.00000
     94      59.1686      0.00000
     95      59.3010      0.00000
     96      59.8127      0.00000
     97      61.2831      0.00000
     98      61.2831      0.00000
     99      62.0999      0.00000
    100      62.3347      0.00000
    101      62.3347      0.00000
    102      62.7310      0.00000
    103      62.8948      0.00000
    104      63.1417      0.00000
    105      63.1417      0.00000
    106      63.9244      0.00000
    107      64.1209      0.00000
    108      64.2119      0.00000
    109      64.6892      0.00000
    110      64.6892      0.00000
    111      65.3235      0.00000
    112      66.6029      0.00000
    113      67.8478      0.00000
    114      67.8478      0.00000
    115      69.5205      0.00000
    116      70.0280      0.00000
    117      70.0391      0.00000
    118      70.0391      0.00000
    119      70.5349      0.00000
    120      71.5527      0.00000
    121      72.6343      0.00000
    122      72.6739      0.00000
    123      72.9012      0.00000
    124      72.9012      0.00000
    125      73.0352      0.00000
    126      73.0352      0.00000
    127      74.9979      0.00000
    128      75.4576      0.00000

 k-point    83 :       0.4615    0.4615    0.3846
  band No.  band energies     occupation 
      1       1.9634      2.00000
      2       2.6323      2.00000
      3       2.6323      2.00000
      4       3.2895      2.00000
      5       3.9889      2.00000
      6       4.6409      2.00000
      7       4.6409      2.00000
      8       5.2994      2.00000
      9      16.8670      0.00000
     10      17.3719      0.00000
     11      17.3719      0.00000
     12      17.9132      0.00000
     13      17.9946      0.00000
     14      17.9946      0.00000
     15      18.0276      0.00000
     16      19.2228      0.00000
     17      19.6581      0.00000
     18      19.8331      0.00000
     19      20.0373      0.00000
     20      20.0373      0.00000
     21      20.3992      0.00000
     22      20.6718      0.00000
     23      20.6718      0.00000
     24      21.0332      0.00000
     25      23.0139      0.00000
     26      23.9198      0.00000
     27      23.9198      0.00000
     28      24.0600      0.00000
     29      24.2874      0.00000
     30      24.6363      0.00000
     31      24.6363      0.00000
     32      24.9683      0.00000
     33      31.3520      0.00000
     34      31.3972      0.00000
     35      31.3972      0.00000
     36      32.0500      0.00000
     37      32.1658      0.00000
     38      32.2175      0.00000
     39      32.6421      0.00000
     40      32.6421      0.00000
     41      38.3090      0.00000
     42      38.5661      0.00000
     43      38.5661      0.00000
     44      38.8352      0.00000
     45      39.2301      0.00000
     46      39.5956      0.00000
     47      39.6128      0.00000
     48      39.6128      0.00000
     49      40.0615      0.00000
     50      40.0615      0.00000
     51      40.3493      0.00000
     52      40.3868      0.00000
     53      46.2627      0.00000
     54      46.3646      0.00000
     55      46.3646      0.00000
     56      46.3998      0.00000
     57      48.6935      0.00000
     58      49.2265      0.00000
     59      49.3160      0.00000
     60      49.3160      0.00000
     61      49.8970      0.00000
     62      50.1220      0.00000
     63      50.1220      0.00000
     64      50.3034      0.00000
     65      50.8017      0.00000
     66      51.3803      0.00000
     67      51.3803      0.00000
     68      51.5610      0.00000
     69      53.7237      0.00000
     70      54.0118      0.00000
     71      54.0118      0.00000
     72      54.6518      0.00000
     73      54.8721      0.00000
     74      54.8721      0.00000
     75      54.9576      0.00000
     76      54.9777      0.00000
     77      55.2840      0.00000
     78      55.6143      0.00000
     79      55.7903      0.00000
     80      55.7903      0.00000
     81      56.0590      0.00000
     82      56.1545      0.00000
     83      56.1545      0.00000
     84      56.4333      0.00000
     85      57.0100      0.00000
     86      57.0100      0.00000
     87      57.1186      0.00000
     88      57.3866      0.00000
     89      57.4908      0.00000
     90      57.9650      0.00000
     91      57.9650      0.00000
     92      58.2716      0.00000
     93      58.7291      0.00000
     94      58.7291      0.00000
     95      58.8542      0.00000
     96      58.9930      0.00000
     97      61.7664      0.00000
     98      61.7664      0.00000
     99      61.8060      0.00000
    100      62.1958      0.00000
    101      62.3364      0.00000
    102      62.7123      0.00000
    103      62.7123      0.00000
    104      62.8137      0.00000
    105      63.5025      0.00000
    106      63.7120      0.00000
    107      63.7120      0.00000
    108      64.3643      0.00000
    109      64.6584      0.00000
    110      64.6584      0.00000
    111      64.7323      0.00000
    112      65.1154      0.00000
    113      69.7469      0.00000
    114      69.9271      0.00000
    115      70.1389      0.00000
    116      70.1389      0.00000
    117      70.1911      0.00000
    118      71.0732      0.00000
    119      71.0732      0.00000
    120      71.6828      0.00000
    121      71.9722      0.00000
    122      71.9722      0.00000
    123      72.2273      0.00000
    124      72.8428      0.00000
    125      73.4978      0.00000
    126      73.4978      0.00000
    127      74.7615      0.00000
    128      74.9341      0.00000

 k-point    84 :       0.4615    0.4615    0.4615
  band No.  band energies     occupation 
      1       2.5298      2.00000
      2       3.1880      2.00000
      3       3.1880      2.00000
      4       3.1880      2.00000
      5       3.8867      2.00000
      6       3.8867      2.00000
      7       3.8867      2.00000
      8       4.5397      2.00000
      9      18.4285      0.00000
     10      18.4285      0.00000
     11      18.4285      0.00000
     12      18.5354      0.00000
     13      18.5354      0.00000
     14      18.5354      0.00000
     15      19.1346      0.00000
     16      19.1346      0.00000
     17      19.6982      0.00000
     18      19.6982      0.00000
     19      19.6982      0.00000
     20      19.7375      0.00000
     21      19.7375      0.00000
     22      20.3383      0.00000
     23      20.3383      0.00000
     24      20.3383      0.00000
     25      22.8434      0.00000
     26      23.5121      0.00000
     27      23.5121      0.00000
     28      23.5121      0.00000
     29      23.5596      0.00000
     30      23.6164      0.00000
     31      23.6164      0.00000
     32      23.6164      0.00000
     33      32.3350      0.00000
     34      32.3350      0.00000
     35      32.3350      0.00000
     36      32.4114      0.00000
     37      32.4114      0.00000
     38      32.7597      0.00000
     39      32.7597      0.00000
     40      32.7597      0.00000
     41      38.8357      0.00000
     42      38.8357      0.00000
     43      38.8357      0.00000
     44      38.8957      0.00000
     45      38.8957      0.00000
     46      38.8957      0.00000
     47      39.1774      0.00000
     48      39.1774      0.00000
     49      39.2380      0.00000
     50      39.7432      0.00000
     51      39.7432      0.00000
     52      39.7432      0.00000
     53      45.7518      0.00000
     54      45.7518      0.00000
     55      45.7518      0.00000
     56      45.8158      0.00000
     57      49.9699      0.00000
     58      50.5365      0.00000
     59      50.5365      0.00000
     60      50.5365      0.00000
     61      50.7214      0.00000
     62      50.7214      0.00000
     63      51.1612      0.00000
     64      51.1612      0.00000
     65      51.1612      0.00000
     66      51.5048      0.00000
     67      51.5048      0.00000
     68      51.5048      0.00000
     69      53.7459      0.00000
     70      53.7459      0.00000
     71      53.7459      0.00000
     72      54.1190      0.00000
     73      54.6701      0.00000
     74      54.6701      0.00000
     75      54.6701      0.00000
     76      55.1320      0.00000
     77      55.1320      0.00000
     78      55.1320      0.00000
     79      55.3891      0.00000
     80      55.3891      0.00000
     81      55.7570      0.00000
     82      56.3040      0.00000
     83      56.3040      0.00000
     84      56.3040      0.00000
     85      57.3422      0.00000
     86      57.3422      0.00000
     87      57.3422      0.00000
     88      57.6334      0.00000
     89      57.6334      0.00000
     90      57.6334      0.00000
     91      57.8786      0.00000
     92      57.9145      0.00000
     93      57.9145      0.00000
     94      58.5792      0.00000
     95      58.5792      0.00000
     96      58.5792      0.00000
     97      61.1847      0.00000
     98      61.1847      0.00000
     99      61.1847      0.00000
    100      61.6169      0.00000
    101      62.8208      0.00000
    102      62.8208      0.00000
    103      62.8208      0.00000
    104      63.4674      0.00000
    105      63.7499      0.00000
    106      63.7499      0.00000
    107      63.7499      0.00000
    108      64.3937      0.00000
    109      64.3937      0.00000
    110      64.4417      0.00000
    111      64.4417      0.00000
    112      64.4417      0.00000
    113      69.1540      0.00000
    114      70.0423      0.00000
    115      70.0423      0.00000
    116      70.0423      0.00000
    117      72.3241      0.00000
    118      72.3241      0.00000
    119      72.3241      0.00000
    120      72.3604      0.00000
    121      72.3604      0.00000
    122      72.3604      0.00000
    123      73.7599      0.00000
    124      73.7599      0.00000
    125      74.7648      0.00000
    126      74.7648      0.00000
    127      74.7648      0.00000
    128      75.6406      0.00000


--------------------------------------------------------------------------------------------------------


 soft charge-density along one line, spin component           1
         0         1         2         3         4         5         6         7         8         9
 total charge-density along one line
 
 pseudopotential strength for first ion, spin component:           1
  8.444  14.392   0.000  -0.000   0.000   0.000  -0.000   0.000
 14.392  24.529   0.000  -0.000   0.000   0.000  -0.000   0.000
  0.000   0.000   1.988   0.000   0.000   5.731   0.000   0.000
 -0.000  -0.000   0.000   1.988  -0.000   0.000   5.731  -0.000
  0.000   0.000   0.000  -0.000   1.988   0.000  -0.000   5.731
  0.000   0.000   5.731   0.000   0.000  16.436   0.000   0.000
 -0.000  -0.000   0.000   5.731  -0.000   0.000  16.436  -0.000
  0.000   0.000   0.000  -0.000   5.731   0.000  -0.000  16.436
 total augmentation occupancy for first ion, spin component:           1
  3.345  -0.822   0.000  -0.000   0.000   0.000   0.000  -0.000
 -0.822   0.270   0.000   0.000   0.000   0.000   0.000   0.000
  0.000   0.000   1.099   0.000   0.000  -0.070  -0.000  -0.000
 -0.000   0.000   0.000   1.099   0.000  -0.000  -0.070  -0.000
  0.000   0.000   0.000   0.000   1.099  -0.000  -0.000  -0.070
  0.000   0.000  -0.070  -0.000  -0.000   0.005   0.000   0.000
  0.000   0.000  -0.000  -0.070  -0.000   0.000   0.005   0.000
 -0.000   0.000  -0.000  -0.000  -0.070   0.000   0.000   0.005


------------------------ aborting loop because EDIFF is reached ----------------------------------------


    CHARGE:  cpu time      0.0379: real time      0.0381
    FORLOC:  cpu time      0.0011: real time      0.0011
    FORNL :  cpu time      0.0453: real time      0.0463
    STRESS:  cpu time      0.6225: real time      0.6298
    FORCOR:  cpu time      0.0065: real time      0.0069
    FORHAR:  cpu time      0.0033: real time      0.0033
    MIXING:  cpu time      0.0005: real time      0.0005
    OFIELD:  cpu time      0.0010: real time      0.0011

  FORCE on cell =-STRESS in cart. coord.  units (eV):
  Direction    XX          YY          ZZ          XY          YZ          ZX
  --------------------------------------------------------------------------------------
  Alpha Z    -0.81278    -0.81278    -0.81278
  Ewald     -97.96162   -97.96162   -97.96162    -0.00000     0.00000     0.00000
  Hartree     0.13895     0.13895     0.13895    -0.00000    -0.00000    -0.00000
  E(xc)     -34.23140   -34.23140   -34.23140     0.00000    -0.00000     0.00000
  Local       1.38298     1.38298     1.38298     0.00000     0.00000     0.00000
  n-local    74.27796    75.07803    77.11965     0.28728     1.00102     0.42771
  augment    -4.12840    -4.12840    -4.12840     0.00000     0.00000    -0.00000
  Kinetic    57.07972    59.54783    63.32004     1.57836    -8.27134    -1.68002
  Fock        0.00000     0.00000     0.00000     0.00000     0.00000     0.00000
  -------------------------------------------------------------------------------------
  Total      -0.13786    -0.13786    -0.13786     0.00000     0.00000     0.00000
  in kB      -3.34046    -3.34046    -3.34046     0.00000     0.00000     0.00000
  external pressure =       -3.34 kB  Pullay stress =        0.00 kB


 VOLUME and BASIS-vectors are now :
 -----------------------------------------------------------------------------
  energy-cutoff  :      520.00
  volume of cell :       66.12
      direct lattice vectors                 reciprocal lattice vectors
     4.043689723  0.000000000  0.000000000     0.247298895 -0.000000000  0.000000000
     0.000000000  4.043689723  0.000000000     0.000000000  0.247298895  0.000000000
     0.000000000  0.000000000  4.043689723    -0.000000000 -0.000000000  0.247298895

  length of vectors
     4.043689723  4.043689723  4.043689723     0.247298895  0.247298895  0.247298895


 FORCES acting on ions
    electron-ion (+dipol)            ewald-force                    non-local-force                 convergence-correction
 -----------------------------------------------------------------------------------------------
   -.360E-14 0.596E-15 -.123E-14   0.489E-15 0.764E-15 -.890E-15   0.300E-19 -.115E-19 0.509E-20   -.106E-14 -.366E-16 0.585E-16
   -.340E-14 -.341E-14 -.278E-14   0.516E-15 -.538E-15 0.377E-15   0.441E-19 -.710E-19 0.437E-19   -.107E-14 0.367E-16 -.615E-16
   -.386E-14 -.948E-15 0.218E-13   -.475E-15 0.591E-15 0.377E-15   -.393E-19 -.207E-19 0.354E-19   0.109E-14 -.343E-16 -.542E-16
   -.351E-14 -.838E-14 -.186E-13   -.448E-15 -.707E-15 0.305E-15   -.145E-19 -.225E-20 -.456E-20   0.109E-14 0.317E-16 0.544E-16
 -----------------------------------------------------------------------------------------------
   -.144E-13 -.121E-13 -.811E-15   0.811E-16 0.111E-15 0.169E-15   0.204E-19 -.105E-18 0.796E-19   0.398E-16 -.254E-17 -.285E-17
 
 
 POSITION                                       TOTAL-FORCE (eV/Angst)
 -----------------------------------------------------------------------------------
      0.00000      0.00000      0.00000         0.000000     -0.000000      0.000000
      0.00000      2.02184      2.02184        -0.000000      0.000000     -0.000000
      2.02184      0.00000      2.02184         0.000000      0.000000      0.000000
      2.02184      2.02184      0.00000        -0.000000     -0.000000     -0.000000
 -----------------------------------------------------------------------------------
    total drift:                               -0.000000     -0.000000     -0.000000


--------------------------------------------------------------------------------------------------------



  FREE ENERGIE OF THE ION-ELECTRON SYSTEM (eV)
  ---------------------------------------------------
  free  energy   TOTEN  =       -14.98740477 eV

  energy  without entropy=      -14.98740477  energy(sigma->0) =      -14.98740477
 


--------------------------------------------------------------------------------------------------------


    POTLOK:  cpu time      0.0108: real time      0.0110


--------------------------------------------------------------------------------------------------------


     LOOP+:  cpu time    584.7517: real time    587.6897
 -----------------------------------------------------------------------------
|                                                                             |
|           W    W    AA    RRRRR   N    N  II  N    N   GGGG   !!!           |
|           W    W   A  A   R    R  NN   N  II  NN   N  G    G  !!!           |
|           W    W  A    A  R    R  N N  N  II  N N  N  G       !!!           |
|           W WW W  AAAAAA  RRRRR   N  N N  II  N  N N  G  GGG   !            |
|           WW  WW  A    A  R   R   N   NN  II  N   NN  G    G                |
|           W    W  A    A  R    R  N    N  II  N    N   GGGG   !!!           |
|                                                                             |
|     Tetrahedron method does not include variations of the Fermi             |
|     occupations, so forces and stress will be inaccurate. We suggest        |
|     using a different smearing scheme ISMEAR = 1 or 2 for metals in         |
|     relaxations.                                                            |
|                                                                             |
 -----------------------------------------------------------------------------

    4ORBIT:  cpu time      0.0000: real time      0.0000
 BZINTS: Fermi energy:    7.954984;   12.000000 electrons
         Band energy: 0.427370E+02;  BLOECHL correction:   -0.143089

 total amount of memory used by VASP MPI-rank0    44735. kBytes
=======================================================================

   base      :      30000. kBytes
   nonl-proj :      10444. kBytes
   fftplans  :        256. kBytes
   grid      :       1271. kBytes
   one-center:         12. kBytes
   wavefun   :       2752. kBytes
 
  
  
 General timing and accounting informations for this job:
 ========================================================
  
                  Total CPU time used (sec):      593.830
                            User time (sec):      588.699
                          System time (sec):        5.131
                         Elapsed time (sec):      602.428
  
                   Maximum memory used (kb):     1204556.
                   Average memory used (kb):          N/A
  
                          Minor page faults:       249306
                          Major page faults:          105
                 Voluntary context switches:         7048
