 vasp.6.4.3 19Mar24 (build Mar 26 2024 14:05:37) complex                        
  
 executed on             LinuxIFC date 2025.01.02  08:54:45
 running  128 mpi-ranks, on    1 nodes
 distrk:  each k-point on  128 cores,    1 groups
 distr:  one band on NCORE=   1 cores,  128 groups


--------------------------------------------------------------------------------------------------------


 INCAR:
   EDIFF = 1e-06
   EDIFFG = -0.01
   ENCUT = 520
   GGA = Pe
   IBRION = -1
   ISIF = 2
   ISMEAR = -5
   LCHARG = False
   LREAL = False
   LWAVE = False
   NELM = 200
   NSW = 0
   PREC = Accurate
   SIGMA = 0.2

 POTCAR:    PAW_PBE Al 04Jan2001                  
 -----------------------------------------------------------------------------
|                                                                             |
|           W    W    AA    RRRRR   N    N  II  N    N   GGGG   !!!           |
|           W    W   A  A   R    R  NN   N  II  NN   N  G    G  !!!           |
|           W    W  A    A  R    R  N N  N  II  N N  N  G       !!!           |
|           W WW W  AAAAAA  RRRRR   N  N N  II  N  N N  G  GGG   !            |
|           WW  WW  A    A  R   R   N   NN  II  N   NN  G    G                |
|           W    W  A    A  R    R  N    N  II  N    N   GGGG   !!!           |
|                                                                             |
|     For optimal performance we recommend to set                             |
|       NCORE = 2 up to number-of-cores-per-socket                            |
|     NCORE specifies how many cores store one orbital (NPAR=cpu/NCORE).      |
|     This setting can greatly improve the performance of VASP for DFT.       |
|     The default, NCORE=1 might be grossly inefficient on modern             |
|     multi-core architectures or massively parallel machines. Do your        |
|     own testing! More info at https://www.vasp.at/wiki/index.php/NCORE      |
|     Unfortunately you need to use the default for GW and RPA                |
|     calculations (for HF NCORE is supported but not extensively tested      |
|     yet).                                                                   |
|                                                                             |
 -----------------------------------------------------------------------------

 POTCAR:    PAW_PBE Al 04Jan2001                  
   SHA256 =  17880443556af62b473fe41b62a467bd001ad55d2cabe504a3f22e34d4e9db96 Al/POTCAR             
   COPYR  = (c) Copyright 04Jan2001 Georg Kresse                                                    
   COPYR  = This file is part of the software VASP. Any use, copying, and all other rights are regul
   COPYR  = If you do not have a valid VASP license, you may not use, copy or distribute this file. 
   VRHFIN =Al: s2p1                                                                                 
   LEXCH  = PE                                                                                      
   EATOM  =    53.5387 eV,    3.9350 Ry                                                             
                                                                                                    
   TITEL  = PAW_PBE Al 04Jan2001                                                                    
   LULTRA =        F    use ultrasoft PP ?                                                          
   IUNSCR =        1    unscreen: 0-lin 1-nonlin 2-no                                               
   RPACOR =    1.500    partial core radius                                                         
   POMASS =   26.981; ZVAL   =    3.000    mass and valenz                                          
   RCORE  =    1.900    outmost cutoff radius                                                       
   RWIGS  =    2.650; RWIGS  =    1.402    wigner-seitz radius (au A)                               
   ENMAX  =  240.300; ENMIN  =  180.225 eV                                                          
   ICORE  =        2    local potential                                                             
   LCOR   =        T    correct aug charges                                                         
   LPAW   =        T    paw PP                                                                      
   EAUG   =  291.052                                                                                
   DEXC   =    0.000                                                                                
   RMAX   =    1.939    core radius for proj-oper                                                   
   RAUG   =    1.300    factor for augmentation sphere                                              
   RDEP   =    1.966    radius for radial grids                                                     
   RDEPT  =    1.856    core radius for aug-charge                                                  
                                                                                                    
   Atomic configuration                                                                             
    6 entries                                                                                       
     n  l   j            E        occ.                                                              
     1  0  0.50     -1511.1048   2.0000                                                             
     2  0  0.50      -108.1629   2.0000                                                             
     2  1  1.50       -69.6402   6.0000                                                             
     3  0  0.50        -7.7528   2.0000                                                             
     3  1  1.50        -2.7121   1.0000                                                             
     3  2  2.50        -2.7212   0.0000                                                             
   Description                                                                                      
     l       E           TYP  RCUT    TYP  RCUT                                                     
     0     -7.7528455     23  1.900                                                                 
     0     -3.3096929     23  1.900                                                                 
     1     -2.7120682     23  1.900                                                                 
     1     13.6058260     23  1.900                                                                 
     2     -2.7211652      7  1.900                                                                 
  local pseudopotential read in
  partial core-charges read in
  partial kinetic energy density read in
  atomic valenz-charges read in
  non local Contribution for L=           0  read in
    real space projection operators read in
  non local Contribution for L=           0  read in
    real space projection operators read in
  non local Contribution for L=           1  read in
    real space projection operators read in
  non local Contribution for L=           1  read in
    real space projection operators read in
    PAW grid and wavefunctions read in
 
   number of l-projection  operators is LMAX  =           4
   number of lm-projection operators is LMMAX =           8
 
  PAW_PBE Al 04Jan2001                  :
 energy of atom  1       EATOM=  -53.5387
 kinetic energy error for atom=    0.0002 (will be added to EATOM!!)
 
 
 POSCAR: Al4
  positions in direct lattice
  velocities in cartesian coordinates


 exchange-correlation table for PE
   RHO(1)=    0.500       N(1)  =     2000
   RHO(2)=  100.500       N(2)  =     4000
 


--------------------------------------------------------------------------------------------------------


 ion  position               nearest neighbor table
   1  0.000  0.000  0.000-   2 2.86   3 2.86   2 2.86   3 2.86   2 2.86   4 2.86   2 2.86   3 2.86
                             4 2.86   3 2.86   4 2.86   4 2.86
   2  0.000  0.500  0.500-   1 2.86   4 2.86   1 2.86   4 2.86   1 2.86   3 2.86   1 2.86   3 2.86
                             4 2.86   4 2.86   3 2.86   3 2.86
   3  0.500  0.000  0.500-   1 2.86   4 2.86   1 2.86   4 2.86   2 2.86   4 2.86   4 2.86   1 2.86
                             2 2.86   1 2.86   2 2.86   2 2.86
   4  0.500  0.500  0.000-   2 2.86   3 2.86   2 2.86   3 2.86   1 2.86   3 2.86   3 2.86   1 2.86
                             2 2.86   2 2.86   1 2.86   1 2.86
 
  LATTYP: Found a simple cubic cell.
 ALAT       =     4.0436897231
  
  Lattice vectors:
  
 A1 = (   4.0436897231,   0.0000000000,   0.0000000000)
 A2 = (   0.0000000000,   4.0436897231,   0.0000000000)
 A3 = (   0.0000000000,   0.0000000000,   4.0436897231)


Analysis of symmetry for initial positions (statically):
=====================================================================
 Subroutine PRICEL returns following result:
 
  LATTYP: Found a face centered cubic cell.
 ALAT       =     4.0436897231
  
  Lattice vectors:
  
 A1 = (   2.0218448615,  -2.0218448615,   0.0000000000)
 A2 = (   2.0218448615,   0.0000000000,   2.0218448615)
 A3 = (  -0.0000000000,  -2.0218448615,   2.0218448615)
 
   4 primitive cells build up your supercell.
 

 Routine SETGRP: Setting up the symmetry group for a 
 simple cubic supercell.


 Subroutine GETGRP returns: Found 48 space group operations
 (whereof 48 operations were pure point group operations)
 out of a pool of 48 trial point group operations.


The static configuration has the point symmetry O_h .


Analysis of symmetry for dynamics (positions and initial velocities):
=====================================================================
 Subroutine PRICEL returns following result:
 
  LATTYP: Found a face centered cubic cell.
 ALAT       =     4.0436897231
  
  Lattice vectors:
  
 A1 = (   2.0218448615,  -2.0218448615,   0.0000000000)
 A2 = (   2.0218448615,   0.0000000000,   2.0218448615)
 A3 = (  -0.0000000000,  -2.0218448615,   2.0218448615)
 
   4 primitive cells build up your supercell.
 

 Routine SETGRP: Setting up the symmetry group for a 
 simple cubic supercell.


 Subroutine GETGRP returns: Found 48 space group operations
 (whereof 48 operations were pure point group operations)
 out of a pool of 48 trial point group operations.


The dynamic configuration has the point symmetry O_h .


 Subroutine INISYM returns: Found 48 space group operations
 (whereof 48 operations are pure point group operations),
 and found     4 'primitive' translations


----------------------------------------------------------------------------------------

                                     Primitive cell                                     

  volume of cell :      16.5300

  direct lattice vectors                    reciprocal lattice vectors
     2.021844862 -2.021844862  0.000000000     0.247298895 -0.247298895 -0.247298895
     2.021844862  0.000000000  2.021844862     0.247298895  0.247298895  0.247298895
    -0.000000000 -2.021844862  2.021844862    -0.247298895 -0.247298895  0.247298895

  length of vectors
     2.859320424  2.859320424  2.859320424     0.428334251  0.428334251  0.428334251

  position of ions in fractional coordinates (direct lattice)
     0.000000000  0.000000000  0.000000000

  ion indices of the primitive-cell ions
   primitive index   ion index
                 1           1

----------------------------------------------------------------------------------------

 
 
 KPOINTS: pymatgen with grid density = 2000 / numb

Automatic generation of k-mesh.
 Grid dimensions read from file:
 generate k-points for:    7    7    7

 Generating k-lattice:

  Cartesian coordinates                     Fractional coordinates (reciprocal lattice)
     0.035328414 -0.000000000  0.000000000     0.142857143  0.000000000  0.000000000
     0.000000000  0.035328414  0.000000000     0.000000000  0.142857143  0.000000000
    -0.000000000 -0.000000000  0.035328414    -0.000000000  0.000000000  0.142857143

  Length of vectors
     0.035328414  0.035328414  0.035328414

  Shift w.r.t. Gamma in fractional coordinates (k-lattice)
     0.000000000  0.000000000  0.000000000

 TETIRR: Found    163 inequivalent tetrahedra from     2058
 
 Subroutine IBZKPT returns following result:
 ===========================================
 
 Found     20 irreducible k-points:
 
 Following reciprocal coordinates:
            Coordinates               Weight
  0.000000  0.000000  0.000000      1.000000
  0.142857  0.000000  0.000000      6.000000
  0.285714  0.000000  0.000000      6.000000
  0.428571  0.000000  0.000000      6.000000
  0.142857  0.142857  0.000000     12.000000
  0.285714  0.142857  0.000000     24.000000
  0.428571  0.142857  0.000000     24.000000
  0.285714  0.285714  0.000000     12.000000
  0.428571  0.285714  0.000000     24.000000
  0.428571  0.428571  0.000000     12.000000
  0.142857  0.142857  0.142857      8.000000
  0.285714  0.142857  0.142857     24.000000
  0.428571  0.142857  0.142857     24.000000
  0.285714  0.285714  0.142857     24.000000
  0.428571  0.285714  0.142857     48.000000
  0.428571  0.428571  0.142857     24.000000
  0.285714  0.285714  0.285714      8.000000
  0.428571  0.285714  0.285714     24.000000
  0.428571  0.428571  0.285714     24.000000
  0.428571  0.428571  0.428571      8.000000
 
 Following cartesian coordinates:
            Coordinates               Weight
  0.000000  0.000000  0.000000      1.000000
  0.035328  0.000000  0.000000      6.000000
  0.070657  0.000000  0.000000      6.000000
  0.105985  0.000000  0.000000      6.000000
  0.035328  0.035328  0.000000     12.000000
  0.070657  0.035328  0.000000     24.000000
  0.105985  0.035328  0.000000     24.000000
  0.070657  0.070657  0.000000     12.000000
  0.105985  0.070657  0.000000     24.000000
  0.105985  0.105985  0.000000     12.000000
  0.035328  0.035328  0.035328      8.000000
  0.070657  0.035328  0.035328     24.000000
  0.105985  0.035328  0.035328     24.000000
  0.070657  0.070657  0.035328     24.000000
  0.105985  0.070657  0.035328     48.000000
  0.105985  0.105985  0.035328     24.000000
  0.070657  0.070657  0.070657      8.000000
  0.105985  0.070657  0.070657     24.000000
  0.105985  0.105985  0.070657     24.000000
  0.105985  0.105985  0.105985      8.000000
 


--------------------------------------------------------------------------------------------------------




 Dimension of arrays:
   k-points           NKPTS =     20   k-points in BZ     NKDIM =     20   number of bands    NBANDS=    128
   number of dos      NEDOS =    301   number of ions     NIONS =      4
   non local maximal  LDIM  =      4   non local SUM 2l+1 LMDIM =      8
   total plane-waves  NPLWV =  27000
   max r-space proj   IRMAX =      1   max aug-charges    IRDMAX=  16090
   dimension x,y,z NGX =    30 NGY =   30 NGZ =   30
   dimension x,y,z NGXF=    60 NGYF=   60 NGZF=   60
   support grid    NGXF=    60 NGYF=   60 NGZF=   60
   ions per type =               4
   NGX,Y,Z   is equivalent  to a cutoff of  12.33, 12.33, 12.33 a.u.
   NGXF,Y,Z  is equivalent  to a cutoff of  24.67, 24.67, 24.67 a.u.

 SYSTEM =  unknown system                          
 POSCAR =  Al4                                     

 Startparameter for this run:
   NWRITE =      2    write-flag & timer
   PREC   = accura    normal or accurate (medium, high low for compatibility)
   ISTART =      0    job   : 0-new  1-cont  2-samecut
   ICHARG =      2    charge: 1-file 2-atom 10-const
   ISPIN  =      1    spin polarized calculation?
   LNONCOLLINEAR =      F non collinear calculations
   LSORBIT =      F    spin-orbit coupling
   INIWAV =      1    electr: 0-lowe 1-rand  2-diag
   LASPH  =      F    aspherical Exc in radial PAW
 Electronic Relaxation 1
   ENCUT  =  520.0 eV  38.22 Ry    6.18 a.u.   7.52  7.52  7.52*2*pi/ulx,y,z
   ENINI  =  520.0     initial cutoff
   ENAUG  =  291.1 eV  augmentation charge cutoff
   NELM   =    200;   NELMIN=  2; NELMDL=  0     # of ELM steps 
   EDIFF  = 0.1E-05   stopping-criterion for ELM
   LREAL  =      F    real-space projection
   NLSPLINE    = F    spline interpolate recip. space projectors
   LCOMPAT=      F    compatible to vasp.4.4
   GGA_COMPAT  = T    GGA compatible to vasp.4.4-vasp.4.6
   LMAXPAW     = -100 max onsite density
   LMAXMIX     =    2 max onsite mixed and CHGCAR
   VOSKOWN=      0    Vosko Wilk Nusair interpolation
   ROPT   =    0.00000
 Ionic relaxation
   EDIFFG = -.1E-01   stopping-criterion for IOM
   NSW    =      0    number of steps for IOM
   NBLOCK =      1;   KBLOCK =      1    inner block; outer block 
   IBRION =     -1    ionic relax: 0-MD 1-quasi-New 2-CG
   NFREE  =      0    steps in history (QN), initial steepest desc. (CG)
   ISIF   =      2    stress and relaxation
   IWAVPR =     10    prediction:  0-non 1-charg 2-wave 3-comb
   ISYM   =      2    0-nonsym 1-usesym 2-fastsym
   LCORR  =      T    Harris-Foulkes like correction to forces

   POTIM  = 0.5000    time-step for ionic-motion
   TEIN   =    0.0    initial temperature
   TEBEG  =    0.0;   TEEND  =   0.0 temperature during run
   SMASS  =  -3.00    Nose mass-parameter (am)
   estimated Nose-frequenzy (Omega)   =  0.10E-29 period in steps = 0.13E+47 mass=  -0.374E-27a.u.
   SCALEE = 1.0000    scale energy and forces
   NPACO  =    256;   APACO  = 10.0  distance and # of slots for P.C.
   PSTRESS=    0.0 pullay stress

  Mass of Ions in am
   POMASS =  26.98
  Ionic Valenz
   ZVAL   =   3.00
  Atomic Wigner-Seitz radii
   RWIGS  =  -1.00
  virtual crystal weights 
   VCA    =   1.00
   NELECT =      12.0000    total number of electrons
   NUPDOWN=      -1.0000    fix difference up-down

 DOS related values:
   EMIN   =  10.00;   EMAX   =-10.00  energy-range for DOS
   EFERMI =   0.00;   METHOD = LEGACY      
   ISMEAR =    -5;   SIGMA  =   0.20  broadening in eV -4-tet -1-fermi 0-gaus

 Electronic relaxation 2 (details)
   IALGO  =     38    algorithm
   LDIAG  =      T    sub-space diagonalisation (order eigenvalues)
   LSUBROT=      F    optimize rotation matrix (better conditioning)
   TURBO    =      0    0=normal 1=particle mesh
   IRESTART =      0    0=no restart 2=restart with 2 vectors
   NREBOOT  =      0    no. of reboots
   NMIN     =      0    reboot dimension
   EREF     =   0.00    reference energy to select bands
   IMIX   =      4    mixing-type and parameters
     AMIX     =   0.40;   BMIX     =  1.00
     AMIX_MAG =   1.60;   BMIX_MAG =  1.00
     AMIN     =   0.10
     WC   =   100.;   INIMIX=   1;  MIXPRE=   1;  MAXMIX= -45

 Intra band minimization:
   WEIMIN = 0.0000     energy-eigenvalue tresh-hold
   EBREAK =  0.20E-08  absolut break condition
   DEPER  =   0.30     relativ break condition  

   TIME   =   0.40     timestep for ELM

  volume/ion in A,a.u.               =      16.53       111.55
  Fermi-wavevector in a.u.,A,eV,Ry     =   0.926881  1.751552 11.688885  0.859109
  Thomas-Fermi vector in A             =   2.052891
 
 Write flags
   LWAVE        =      F    write WAVECAR
   LDOWNSAMPLE  =      F    k-point downsampling of WAVECAR
   LCHARG       =      F    write CHGCAR
   LVTOT        =      F    write LOCPOT, total local potential
   LVHAR        =      F    write LOCPOT, Hartree potential only
   WRT_POTENTIAL= false  ! write potential to hdf5 file
   LELF         =      F    write electronic localiz. function (ELF)
   LORBIT       =      0    0 simple, 1 ext, 2 COOP (PROOUT), +10 PAW based schemes


 Dipole corrections
   LMONO      =      F    monopole corrections only (constant potential shift)
   LDIPOL     =      F    correct potential (dipole corrections)
   IDIPOL     =      0    1-x, 2-y, 3-z, 4-all directions 
   EPSILON    =  1.0000000 bulk dielectric constant
   LVACPOTAV  =      F  vacuum potentials using an averaging scheme for the charge density
   VACPOTFLAT =  0.1000000 required flatness to determine vacuum potential
 Exchange correlation treatment:
   GGA     = PE    functional components
   XC_C    = 1    coefficients multiplying the functional components
   LIBXC   =     F    Libxc                    
   VOSKOWN =     0    Vosko Wilk Nusair interpolation
   LHFCALC =     F    Hartree Fock is set to
   LHFONE  =     F    Hartree Fock one center treatment
   AEXX    =    0.0000 exact exchange contribution

 Parameters of functionals:
   PE:
     No parameter
 
 Van der Waals corrections
   IVDW    =     0    specifies the selected vdW correction

 Linear response parameters
   LEPSILON=     F    determine dielectric tensor
   LRPA    =     F    only Hartree local field effects (RPA)
   LNABLA  =     F    use nabla operator in PAW spheres
   LVEL    =     F    velocity operator in full k-point grid
   CSHIFT  =0.1000    complex shift for real part using Kramers Kronig
   OMEGAMAX=  -1.0    maximum frequency
   DEG_THRESHOLD= 0.2000000E-02 threshold for treating states as degnerate
   RTIME   =   -0.100 relaxation time in fs
  (WPLASMAI=    0.000 imaginary part of plasma frequency in eV, 0.658/RTIME)
   DFIELD  = 0.0000000 0.0000000 0.0000000 field for delta impulse in time
 
  Optional k-point grid parameters
   LKPOINTS_OPT  =     F    use optional k-point grid
   KPOINTS_OPT_MODE=     1    mode for optional k-point grid
 
 Orbital magnetization related:
   ORBITALMAG=     F  switch on orbital magnetization
   LCHIMAG   =     F  perturbation theory with respect to B field
   DQ        =  0.001000  dq finite difference perturbation B field
   LLRAUG    =     F  two centre corrections for induced B field
   LBONE     =     F  B-component reconstruction in AE one-centre
   LVGVCALC  =     T  calculate vGv susceptibility
   LVGVAPPL  =     F  apply vGv susceptibility instead of pGv for G=0

 Random number generation:
   RANDOM_GENERATOR = DEFAULT
   PCG_SEED         = not used


--------------------------------------------------------------------------------------------------------


 Static calculation
 charge density and potential will be updated during run
 non-spin polarized calculation
 Variant of blocked Davidson
 Davidson routine will perform the subspace rotation
 perform sub-space diagonalisation
    after iterative eigenvector-optimisation
 modified Broyden-mixing scheme, WC =      100.0
 initial mixing is a Kerker type mixing with AMIX =  0.4000 and BMIX =      1.0000
 Hartree-type preconditioning will be used
 using additional bands          122
 reciprocal scheme for non local part
 use partial core corrections
 calculate Harris-corrections to forces 
   (improved forces if not selfconsistent)
 use gradient corrections 
 use of overlap-Matrix (Vanderbilt PP)
 Fermi weights with tetrahedron method with Bloechl corrections


--------------------------------------------------------------------------------------------------------


  energy-cutoff  :      520.00
  volume of cell :       66.12
      direct lattice vectors                 reciprocal lattice vectors
     4.043689723  0.000000000  0.000000000     0.247298895 -0.000000000  0.000000000
     0.000000000  4.043689723  0.000000000     0.000000000  0.247298895  0.000000000
     0.000000000  0.000000000  4.043689723    -0.000000000 -0.000000000  0.247298895

  length of vectors
     4.043689723  4.043689723  4.043689723     0.247298895  0.247298895  0.247298895


 
 k-points in units of 2pi/SCALE and weight: pymatgen with grid density = 2000 / numb
   0.00000000  0.00000000  0.00000000       0.003
   0.03532841  0.00000000  0.00000000       0.017
   0.07065683  0.00000000  0.00000000       0.017
   0.10598524  0.00000000  0.00000000       0.017
   0.03532841  0.03532841  0.00000000       0.035
   0.07065683  0.03532841  0.00000000       0.070
   0.10598524  0.03532841  0.00000000       0.070
   0.07065683  0.07065683  0.00000000       0.035
   0.10598524  0.07065683  0.00000000       0.070
   0.10598524  0.10598524  0.00000000       0.035
   0.03532841  0.03532841  0.03532841       0.023
   0.07065683  0.03532841  0.03532841       0.070
   0.10598524  0.03532841  0.03532841       0.070
   0.07065683  0.07065683  0.03532841       0.070
   0.10598524  0.07065683  0.03532841       0.140
   0.10598524  0.10598524  0.03532841       0.070
   0.07065683  0.07065683  0.07065683       0.023
   0.10598524  0.07065683  0.07065683       0.070
   0.10598524  0.10598524  0.07065683       0.070
   0.10598524  0.10598524  0.10598524       0.023
 
 k-points in reciprocal lattice and weights: pymatgen with grid density = 2000 / numb
   0.00000000  0.00000000  0.00000000       0.003
   0.14285714  0.00000000  0.00000000       0.017
   0.28571429  0.00000000  0.00000000       0.017
   0.42857143  0.00000000  0.00000000       0.017
   0.14285714  0.14285714  0.00000000       0.035
   0.28571429  0.14285714  0.00000000       0.070
   0.42857143  0.14285714  0.00000000       0.070
   0.28571429  0.28571429  0.00000000       0.035
   0.42857143  0.28571429  0.00000000       0.070
   0.42857143  0.42857143  0.00000000       0.035
   0.14285714  0.14285714  0.14285714       0.023
   0.28571429  0.14285714  0.14285714       0.070
   0.42857143  0.14285714  0.14285714       0.070
   0.28571429  0.28571429  0.14285714       0.070
   0.42857143  0.28571429  0.14285714       0.140
   0.42857143  0.42857143  0.14285714       0.070
   0.28571429  0.28571429  0.28571429       0.023
   0.42857143  0.28571429  0.28571429       0.070
   0.42857143  0.42857143  0.28571429       0.070
   0.42857143  0.42857143  0.42857143       0.023
 
 position of ions in fractional coordinates (direct lattice) 
   0.00000000  0.00000000  0.00000000
   0.00000000  0.50000000  0.50000000
   0.50000000  0.00000000  0.50000000
   0.50000000  0.50000000  0.00000000
 
 position of ions in cartesian coordinates  (Angst):
   0.00000000  0.00000000  0.00000000
   0.00000000  2.02184486  2.02184486
   2.02184486  0.00000000  2.02184486
   2.02184486  2.02184486  0.00000000
 


--------------------------------------------------------------------------------------------------------


 k-point     1 :   0.0000 0.0000 0.0000  plane waves:    1791
 k-point     2 :   0.1429 0.0000 0.0000  plane waves:    1795
 k-point     3 :   0.2857 0.0000 0.0000  plane waves:    1791
 k-point     4 :   0.4286 0.0000 0.0000  plane waves:    1779
 k-point     5 :   0.1429 0.1429 0.0000  plane waves:    1785
 k-point     6 :   0.2857 0.1429 0.0000  plane waves:    1780
 k-point     7 :   0.4286 0.1429 0.0000  plane waves:    1785
 k-point     8 :   0.2857 0.2857 0.0000  plane waves:    1785
 k-point     9 :   0.4286 0.2857 0.0000  plane waves:    1777
 k-point    10 :   0.4286 0.4286 0.0000  plane waves:    1774
 k-point    11 :   0.1429 0.1429 0.1429  plane waves:    1806
 k-point    12 :   0.2857 0.1429 0.1429  plane waves:    1779
 k-point    13 :   0.4286 0.1429 0.1429  plane waves:    1785
 k-point    14 :   0.2857 0.2857 0.1429  plane waves:    1779
 k-point    15 :   0.4286 0.2857 0.1429  plane waves:    1773
 k-point    16 :   0.4286 0.4286 0.1429  plane waves:    1770
 k-point    17 :   0.2857 0.2857 0.2857  plane waves:    1785
 k-point    18 :   0.4286 0.2857 0.2857  plane waves:    1777
 k-point    19 :   0.4286 0.4286 0.2857  plane waves:    1777
 k-point    20 :   0.4286 0.4286 0.4286  plane waves:    1781

 maximum and minimum number of plane-waves per node :      1806     1770

 maximum number of plane-waves:      1806
 maximum index in each direction: 
   IXMAX=    7   IYMAX=    7   IZMAX=    7
   IXMIN=   -7   IYMIN=   -7   IZMIN=   -7


 serial   3D FFT for wavefunctions
 parallel 3D FFT for charge:
    minimum data exchange during FFTs selected (reduces bandwidth)


 total amount of memory used by VASP MPI-rank0    34774. kBytes
=======================================================================

   base      :      30000. kBytes
   nonl-proj :       2580. kBytes
   fftplans  :        256. kBytes
   grid      :       1271. kBytes
   one-center:         12. kBytes
   wavefun   :        655. kBytes
 
     INWAV:  cpu time      0.0000: real time      0.0000
 Broyden mixing: mesh for mixing (old mesh)
   NGX = 15   NGY = 15   NGZ = 15
  (NGX  = 60   NGY  = 60   NGZ  = 60)
  gives a total of   3375 points

 initial charge density was supplied:
 charge density of overlapping atoms calculated
 number of electron      12.0000000 magnetization 
 keeping initial charge density in first step


--------------------------------------------------------------------------------------------------------


 Maximum index for augmentation-charges          749 (set IRDMAX)


--------------------------------------------------------------------------------------------------------


 First call to EWALD:  gamma=   0.438
 Maximum number of real-space cells 3x 3x 3
 Maximum number of reciprocal cells 3x 3x 3

    FEWALD:  cpu time      0.0027: real time      0.0028


--------------------------------------- Ionic step        1  -------------------------------------------




--------------------------------------- Iteration      1(   1)  ---------------------------------------


    POTLOK:  cpu time      0.0201: real time      0.0688
    SETDIJ:  cpu time      0.0059: real time      0.0060
     EDDAV:  cpu time      9.8756: real time      9.9236
 BZINTS: Fermi energy:    8.105034;   12.000000 electrons
         Band energy: 0.440800E+02;  BLOECHL correction:   -0.400317
       DOS:  cpu time      0.0213: real time      0.0216
    --------------------------------------------
      LOOP:  cpu time      9.9229: real time     10.0200

 eigenvalue-minimisations  :  6528
 total energy-change (2. order) :-0.1402590E+02  (-0.4663522E+03)
 number of electron      12.0000000 magnetization 
 augmentation part       12.0000000 magnetization 

 Free energy of the ion-electron system (eV)
  ---------------------------------------------------
  alpha Z        PSCENC =        -0.81277799
  Ewald energy   TEWEN  =      -293.88473869
  -Hartree energ DENC   =        -0.40832449
  -exchange      EXHF   =         0.00000000
  -V(xc)+E(xc)   XCENC  =      -104.97206531
  PAW double counting   =       264.80062850     -136.98248303
  entropy T*S    EENTRO =         0.00000000
  eigenvalues    EBANDS =        44.08003310
  atomic energy  EATOM  =       214.15382826
  Solvation  Ediel_sol  =         0.00000000
  ---------------------------------------------------
  free energy    TOTEN  =       -14.02589965 eV

  energy without entropy =      -14.02589965  energy(sigma->0) =      -14.02589965


--------------------------------------------------------------------------------------------------------




--------------------------------------- Iteration      1(   2)  ---------------------------------------


     EDDAV:  cpu time     13.8654: real time     13.9320
 BZINTS: Fermi energy:    7.941354;   12.000000 electrons
         Band energy: 0.430253E+02;  BLOECHL correction:   -0.401030
       DOS:  cpu time      0.0120: real time      0.0121
    --------------------------------------------
      LOOP:  cpu time     13.8774: real time     13.9441

 eigenvalue-minimisations  :  7808
 total energy-change (2. order) :-0.1054733E+01  (-0.1034061E+01)
 number of electron      12.0000000 magnetization 
 augmentation part       12.0000000 magnetization 

 Free energy of the ion-electron system (eV)
  ---------------------------------------------------
  alpha Z        PSCENC =        -0.81277799
  Ewald energy   TEWEN  =      -293.88473869
  -Hartree energ DENC   =        -0.40832449
  -exchange      EXHF   =         0.00000000
  -V(xc)+E(xc)   XCENC  =      -104.97206531
  PAW double counting   =       264.80062850     -136.98248303
  entropy T*S    EENTRO =         0.00000000
  eigenvalues    EBANDS =        43.02529970
  atomic energy  EATOM  =       214.15382826
  Solvation  Ediel_sol  =         0.00000000
  ---------------------------------------------------
  free energy    TOTEN  =       -15.08063305 eV

  energy without entropy =      -15.08063305  energy(sigma->0) =      -15.08063305


--------------------------------------------------------------------------------------------------------




--------------------------------------- Iteration      1(   3)  ---------------------------------------


     EDDAV:  cpu time      7.1963: real time      7.2397
 BZINTS: Fermi energy:    7.941327;   12.000000 electrons
         Band energy: 0.430251E+02;  BLOECHL correction:   -0.401032
       DOS:  cpu time      0.0105: real time      0.0106
    --------------------------------------------
      LOOP:  cpu time      7.2068: real time      7.2503

 eigenvalue-minimisations  :  5376
 total energy-change (2. order) :-0.1793262E-03  (-0.1760655E-03)
 number of electron      12.0000000 magnetization 
 augmentation part       12.0000000 magnetization 

 Free energy of the ion-electron system (eV)
  ---------------------------------------------------
  alpha Z        PSCENC =        -0.81277799
  Ewald energy   TEWEN  =      -293.88473869
  -Hartree energ DENC   =        -0.40832449
  -exchange      EXHF   =         0.00000000
  -V(xc)+E(xc)   XCENC  =      -104.97206531
  PAW double counting   =       264.80062850     -136.98248303
  entropy T*S    EENTRO =         0.00000000
  eigenvalues    EBANDS =        43.02512037
  atomic energy  EATOM  =       214.15382826
  Solvation  Ediel_sol  =         0.00000000
  ---------------------------------------------------
  free energy    TOTEN  =       -15.08081238 eV

  energy without entropy =      -15.08081238  energy(sigma->0) =      -15.08081238


--------------------------------------------------------------------------------------------------------




--------------------------------------- Iteration      1(   4)  ---------------------------------------


     EDDAV:  cpu time     25.2271: real time     25.3473
 BZINTS: Fermi energy:    7.941327;   12.000000 electrons
         Band energy: 0.430251E+02;  BLOECHL correction:   -0.401032
       DOS:  cpu time      0.0106: real time      0.0107
    --------------------------------------------
      LOOP:  cpu time     25.2377: real time     25.3580

 eigenvalue-minimisations  :  9984
 total energy-change (2. order) :-0.3215575E-08  (-0.3911647E-08)
 number of electron      12.0000000 magnetization 
 augmentation part       12.0000000 magnetization 

 Free energy of the ion-electron system (eV)
  ---------------------------------------------------
  alpha Z        PSCENC =        -0.81277799
  Ewald energy   TEWEN  =      -293.88473869
  -Hartree energ DENC   =        -0.40832449
  -exchange      EXHF   =         0.00000000
  -V(xc)+E(xc)   XCENC  =      -104.97206531
  PAW double counting   =       264.80062850     -136.98248303
  entropy T*S    EENTRO =         0.00000000
  eigenvalues    EBANDS =        43.02512037
  atomic energy  EATOM  =       214.15382826
  Solvation  Ediel_sol  =         0.00000000
  ---------------------------------------------------
  free energy    TOTEN  =       -15.08081238 eV

  energy without entropy =      -15.08081238  energy(sigma->0) =      -15.08081238


--------------------------------------------------------------------------------------------------------




--------------------------------------- Iteration      1(   5)  ---------------------------------------


     EDDAV:  cpu time      7.3903: real time      7.4271
 BZINTS: Fermi energy:    7.941327;   12.000000 electrons
         Band energy: 0.430251E+02;  BLOECHL correction:   -0.401032
       DOS:  cpu time      0.0098: real time      0.0099
    CHARGE:  cpu time      0.0262: real time      0.0267
    MIXING:  cpu time      0.0076: real time      0.0077
    --------------------------------------------
      LOOP:  cpu time      7.4340: real time      7.4714

 eigenvalue-minimisations  :  5376
 total energy-change (2. order) :-0.1558647E-09  ( 0.1646637E-12)
 number of electron      12.0000000 magnetization 
 augmentation part       -0.1472098 magnetization 

 Broyden mixing:
  rms(total) = 0.26209E+00    rms(broyden)= 0.26209E+00
  rms(prec ) = 0.47377E+00
  weight for this iteration     100.00

 Free energy of the ion-electron system (eV)
  ---------------------------------------------------
  alpha Z        PSCENC =        -0.81277799
  Ewald energy   TEWEN  =      -293.88473869
  -Hartree energ DENC   =        -0.40832449
  -exchange      EXHF   =         0.00000000
  -V(xc)+E(xc)   XCENC  =      -104.97206531
  PAW double counting   =       264.80062850     -136.98248303
  entropy T*S    EENTRO =         0.00000000
  eigenvalues    EBANDS =        43.02512037
  atomic energy  EATOM  =       214.15382826
  Solvation  Ediel_sol  =         0.00000000
  ---------------------------------------------------
  free energy    TOTEN  =       -15.08081238 eV

  energy without entropy =      -15.08081238  energy(sigma->0) =      -15.08081238


--------------------------------------------------------------------------------------------------------




--------------------------------------- Iteration      1(   6)  ---------------------------------------


    POTLOK:  cpu time      0.0216: real time      0.0260
    SETDIJ:  cpu time      0.0011: real time      0.0011
     EDDAV:  cpu time     10.4942: real time     10.5441
 BZINTS: Fermi energy:    7.927702;   12.000000 electrons
         Band energy: 0.428854E+02;  BLOECHL correction:   -0.400538
       DOS:  cpu time      0.0098: real time      0.0099
    CHARGE:  cpu time      0.0149: real time      0.0149
    MIXING:  cpu time      0.0038: real time      0.0041
    --------------------------------------------
      LOOP:  cpu time     10.5453: real time     10.6001

 eigenvalue-minimisations  :  6272
 total energy-change (2. order) : 0.5171371E-01  (-0.6376670E-03)
 number of electron      12.0000000 magnetization 
 augmentation part       -0.1493025 magnetization 

 Broyden mixing:
  rms(total) = 0.15270E+00    rms(broyden)= 0.15270E+00
  rms(prec ) = 0.29054E+00
  weight for this iteration     100.00

 eigenvalues of (default mixing * dielectric matrix)
  average eigenvalue GAMMA=   2.3412
  2.3412

 Free energy of the ion-electron system (eV)
  ---------------------------------------------------
  alpha Z        PSCENC =        -0.81277799
  Ewald energy   TEWEN  =      -293.88473869
  -Hartree energ DENC   =        -0.34703956
  -exchange      EXHF   =         0.00000000
  -V(xc)+E(xc)   XCENC  =      -104.82985664
  PAW double counting   =       379.39726881     -251.59119903
  entropy T*S    EENTRO =         0.00000000
  eigenvalues    EBANDS =        42.88541618
  atomic energy  EATOM  =       214.15382826
  Solvation  Ediel_sol  =         0.00000000
  ---------------------------------------------------
  free energy    TOTEN  =       -15.02909867 eV

  energy without entropy =      -15.02909867  energy(sigma->0) =      -15.02909867


--------------------------------------------------------------------------------------------------------




--------------------------------------- Iteration      1(   7)  ---------------------------------------


    POTLOK:  cpu time      0.1597: real time      0.1675
    SETDIJ:  cpu time      0.0011: real time      0.0011
     EDDAV:  cpu time     12.7303: real time     12.7875
 BZINTS: Fermi energy:    7.912700;   12.000000 electrons
         Band energy: 0.427424E+02;  BLOECHL correction:   -0.400208
       DOS:  cpu time      0.0097: real time      0.0098
    CHARGE:  cpu time      0.0166: real time      0.0167
    MIXING:  cpu time      0.0024: real time      0.0026
    --------------------------------------------
      LOOP:  cpu time     12.9198: real time     12.9852

 eigenvalue-minimisations  :  7040
 total energy-change (2. order) : 0.3819501E-01  (-0.1840308E-02)
 number of electron      12.0000000 magnetization 
 augmentation part       -0.1533108 magnetization 

 Broyden mixing:
  rms(total) = 0.27088E-01    rms(broyden)= 0.27088E-01
  rms(prec ) = 0.29286E-01
  weight for this iteration     100.00

 eigenvalues of (default mixing * dielectric matrix)
  average eigenvalue GAMMA=   2.8594
  2.8594  2.8594

 Free energy of the ion-electron system (eV)
  ---------------------------------------------------
  alpha Z        PSCENC =        -0.81277799
  Ewald energy   TEWEN  =      -293.88473869
  -Hartree energ DENC   =        -0.41926824
  -exchange      EXHF   =         0.00000000
  -V(xc)+E(xc)   XCENC  =      -104.55071866
  PAW double counting   =       607.71998479     -479.93957547
  entropy T*S    EENTRO =         0.00000000
  eigenvalues    EBANDS =        42.74236236
  atomic energy  EATOM  =       214.15382826
  Solvation  Ediel_sol  =         0.00000000
  ---------------------------------------------------
  free energy    TOTEN  =       -14.99090366 eV

  energy without entropy =      -14.99090366  energy(sigma->0) =      -14.99090366


--------------------------------------------------------------------------------------------------------




--------------------------------------- Iteration      1(   8)  ---------------------------------------


    POTLOK:  cpu time      0.0215: real time      0.0265
    SETDIJ:  cpu time      0.0010: real time      0.0011
     EDDAV:  cpu time     10.3737: real time     10.4205
 BZINTS: Fermi energy:    7.913281;   12.000000 electrons
         Band energy: 0.427502E+02;  BLOECHL correction:   -0.400259
       DOS:  cpu time      0.0097: real time      0.0098
    CHARGE:  cpu time      0.0150: real time      0.0151
    MIXING:  cpu time      0.0004: real time      0.0004
    --------------------------------------------
      LOOP:  cpu time     10.4214: real time     10.4733

 eigenvalue-minimisations  :  6272
 total energy-change (2. order) : 0.7587997E-04  (-0.2743766E-05)
 number of electron      12.0000000 magnetization 
 augmentation part       -0.1535751 magnetization 

 Broyden mixing:
  rms(total) = 0.42036E-02    rms(broyden)= 0.42036E-02
  rms(prec ) = 0.54388E-02
  weight for this iteration     100.00

 eigenvalues of (default mixing * dielectric matrix)
  average eigenvalue GAMMA=   2.1081
  1.0615  2.5318  2.7310

 Free energy of the ion-electron system (eV)
  ---------------------------------------------------
  alpha Z        PSCENC =        -0.81277799
  Ewald energy   TEWEN  =      -293.88473869
  -Hartree energ DENC   =        -0.43374821
  -exchange      EXHF   =         0.00000000
  -V(xc)+E(xc)   XCENC  =      -104.53254109
  PAW double counting   =       554.85802481     -427.08910391
  entropy T*S    EENTRO =         0.00000000
  eigenvalues    EBANDS =        42.75022905
  atomic energy  EATOM  =       214.15382826
  Solvation  Ediel_sol  =         0.00000000
  ---------------------------------------------------
  free energy    TOTEN  =       -14.99082778 eV

  energy without entropy =      -14.99082778  energy(sigma->0) =      -14.99082778


--------------------------------------------------------------------------------------------------------




--------------------------------------- Iteration      1(   9)  ---------------------------------------


    POTLOK:  cpu time      0.0210: real time      0.0265
    SETDIJ:  cpu time      0.0011: real time      0.0011
     EDDAV:  cpu time     15.7532: real time     15.8237
 BZINTS: Fermi energy:    7.913040;   12.000000 electrons
         Band energy: 0.427479E+02;  BLOECHL correction:   -0.400254
       DOS:  cpu time      0.0097: real time      0.0098
    CHARGE:  cpu time      0.0166: real time      0.0167
    MIXING:  cpu time      0.0004: real time      0.0005
    --------------------------------------------
      LOOP:  cpu time     15.8019: real time     15.8781

 eigenvalue-minimisations  :  7680
 total energy-change (2. order) : 0.1820914E-04  (-0.4373000E-06)
 number of electron      12.0000000 magnetization 
 augmentation part       -0.1536263 magnetization 

 Broyden mixing:
  rms(total) = 0.12800E-03    rms(broyden)= 0.12800E-03
  rms(prec ) = 0.16520E-03
  weight for this iteration     100.00

 eigenvalues of (default mixing * dielectric matrix)
  average eigenvalue GAMMA=   2.2164
  0.9982  2.6713  2.6713  2.5250

 Free energy of the ion-electron system (eV)
  ---------------------------------------------------
  alpha Z        PSCENC =        -0.81277799
  Ewald energy   TEWEN  =      -293.88473869
  -Hartree energ DENC   =        -0.43576450
  -exchange      EXHF   =         0.00000000
  -V(xc)+E(xc)   XCENC  =      -104.52866809
  PAW double counting   =       562.16336599     -434.39392055
  entropy T*S    EENTRO =         0.00000000
  eigenvalues    EBANDS =        42.74786602
  atomic energy  EATOM  =       214.15382826
  Solvation  Ediel_sol  =         0.00000000
  ---------------------------------------------------
  free energy    TOTEN  =       -14.99080957 eV

  energy without entropy =      -14.99080957  energy(sigma->0) =      -14.99080957


--------------------------------------------------------------------------------------------------------




--------------------------------------- Iteration      1(  10)  ---------------------------------------


    POTLOK:  cpu time      0.0214: real time      0.0264
    SETDIJ:  cpu time      0.0011: real time      0.0011
     EDDAV:  cpu time     15.3985: real time     15.4687
 BZINTS: Fermi energy:    7.913020;   12.000000 electrons
         Band energy: 0.427476E+02;  BLOECHL correction:   -0.400254
       DOS:  cpu time      0.0095: real time      0.0095
    --------------------------------------------
      LOOP:  cpu time     15.4305: real time     15.5057

 eigenvalue-minimisations  :  7296
 total energy-change (2. order) : 0.9249635E-06  (-0.6018343E-09)
 number of electron      12.0000000 magnetization 
 augmentation part       -0.1536263 magnetization 

 Free energy of the ion-electron system (eV)
  ---------------------------------------------------
  alpha Z        PSCENC =        -0.81277799
  Ewald energy   TEWEN  =      -293.88473869
  -Hartree energ DENC   =        -0.43573784
  -exchange      EXHF   =         0.00000000
  -V(xc)+E(xc)   XCENC  =      -104.52873705
  PAW double counting   =       562.15668053     -434.38694041
  entropy T*S    EENTRO =         0.00000000
  eigenvalues    EBANDS =        42.74761456
  atomic energy  EATOM  =       214.15382826
  Solvation  Ediel_sol  =         0.00000000
  ---------------------------------------------------
  free energy    TOTEN  =       -14.99080864 eV

  energy without entropy =      -14.99080864  energy(sigma->0) =      -14.99080864


--------------------------------------------------------------------------------------------------------




 average (electrostatic) potential at core
  the test charge radii are     1.0406
  (the norm of the test charge is              1.0000)
       1 -72.6478       2 -72.6478       3 -72.6478       4 -72.6478
 
 
 
 E-fermi :   7.9130     XC(G=0): -10.1893     alpha+bet :-14.8493

 val. band max:        8.1153476249   @ k =   0.4286   0.4286   0.0000
 cond. band min:       7.8866543963   @ k =   0.4286   0.0000   0.0000
 fundamental gap:     -0.2286932286
 Fermi energy:         7.9130202818

 k-point     1 :       0.0000    0.0000    0.0000
  band No.  band energies     occupation 
      1      -3.1398      2.00000
      2       5.0631      2.00000
      3       5.0631      2.00000
      4       5.0631      2.00000
      5       6.3812      2.03841
      6       6.3812      2.20355
      7       6.3812      2.24766
      8      13.2403      0.00000
      9      13.2403      0.00000
     10      13.2403      0.00000
     11      13.5681      0.00000
     12      13.5681      0.00000
     13      13.5681      0.00000
     14      13.5681      0.00000
     15      13.5681      0.00000
     16      13.5681      0.00000
     17      17.0331      0.00000
     18      17.0331      0.00000
     19      17.0331      0.00000
     20      20.5914      0.00000
     21      20.5914      0.00000
     22      20.5914      0.00000
     23      22.0695      0.00000
     24      22.0695      0.00000
     25      22.0695      0.00000
     26      24.4362      0.00000
     27      27.3808      0.00000
     28      27.3808      0.00000
     29      30.2389      0.00000
     30      32.5919      0.00000
     31      32.5919      0.00000
     32      32.5919      0.00000
     33      33.3609      0.00000
     34      33.3609      0.00000
     35      33.3609      0.00000
     36      34.8700      0.00000
     37      34.8700      0.00000
     38      34.8700      0.00000
     39      34.8700      0.00000
     40      34.8700      0.00000
     41      34.8700      0.00000
     42      40.5334      0.00000
     43      40.5334      0.00000
     44      40.5334      0.00000
     45      41.1888      0.00000
     46      41.3356      0.00000
     47      41.3356      0.00000
     48      41.3356      0.00000
     49      41.3356      0.00000
     50      41.3356      0.00000
     51      41.3356      0.00000
     52      41.7485      0.00000
     53      41.7485      0.00000
     54      41.7485      0.00000
     55      42.6780      0.00000
     56      42.6780      0.00000
     57      42.6780      0.00000
     58      48.4093      0.00000
     59      48.4093      0.00000
     60      48.4093      0.00000
     61      48.4093      0.00000
     62      48.4093      0.00000
     63      48.4093      0.00000
     64      49.0219      0.00000
     65      49.0219      0.00000
     66      49.0219      0.00000
     67      49.4088      0.00000
     68      49.4088      0.00000
     69      49.4088      0.00000
     70      49.4088      0.00000
     71      49.4088      0.00000
     72      49.4088      0.00000
     73      50.3784      0.00000
     74      50.3784      0.00000
     75      50.3784      0.00000
     76      50.5648      0.00000
     77      50.5648      0.00000
     78      50.5648      0.00000
     79      52.5782      0.00000
     80      52.5782      0.00000
     81      52.5782      0.00000
     82      56.0693      0.00000
     83      56.0693      0.00000
     84      56.0693      0.00000
     85      56.1062      0.00000
     86      57.0575      0.00000
     87      57.0575      0.00000
     88      57.0575      0.00000
     89      57.0575      0.00000
     90      57.0575      0.00000
     91      57.0575      0.00000
     92      59.3537      0.00000
     93      59.3537      0.00000
     94      59.3537      0.00000
     95      59.5290      0.00000
     96      59.5290      0.00000
     97      59.5290      0.00000
     98      59.7965      0.00000
     99      59.7965      0.00000
    100      59.7965      0.00000
    101      62.9809      0.00000
    102      62.9809      0.00000
    103      63.9546      0.00000
    104      63.9546      0.00000
    105      63.9546      0.00000
    106      65.2213      0.00000
    107      65.2213      0.00000
    108      65.2213      0.00000
    109      72.1719      0.00000
    110      72.1719      0.00000
    111      72.1719      0.00000
    112      73.3539      0.00000
    113      73.3539      0.00000
    114      73.3539      0.00000
    115      75.2750      0.00000
    116      75.2750      0.00000
    117      75.2750      0.00000
    118      75.4168      0.00000
    119      75.4168      0.00000
    120      75.4168      0.00000
    121      75.4168      0.00000
    122      75.4168      0.00000
    123      75.4168      0.00000
    124      76.2590      0.00000
    125      76.2590      0.00000
    126      76.2590      0.00000
    127      77.0495      0.00000
    128      77.0495      0.00000

 k-point     2 :       0.1429    0.0000    0.0000
  band No.  band energies     occupation 
      1      -2.9551      2.00000
      2       3.3317      2.00000
      3       5.2322      2.00000
      4       5.2322      2.00000
      5       6.5595      2.04062
      6       6.5595      2.29248
      7       8.4324      0.07295
      8      11.1791      0.00000
      9      11.1791      0.00000
     10      12.5069      0.00000
     11      12.5069      0.00000
     12      13.4226      0.00000
     13      13.7249      0.00000
     14      13.7249      0.00000
     15      15.9707      0.00000
     16      15.9707      0.00000
     17      17.2017      0.00000
     18      18.3695      0.00000
     19      18.3695      0.00000
     20      19.1671      0.00000
     21      19.1671      0.00000
     22      19.4598      0.00000
     23      21.6381      0.00000
     24      23.7637      0.00000
     25      23.7637      0.00000
     26      25.3026      0.00000
     27      25.9368      0.00000
     28      27.5518      0.00000
     29      30.4057      0.00000
     30      32.3892      0.00000
     31      32.3892      0.00000
     32      32.7052      0.00000
     33      32.8035      0.00000
     34      32.8035      0.00000
     35      32.8375      0.00000
     36      32.8375      0.00000
     37      34.2708      0.00000
     38      34.2708      0.00000
     39      34.8311      0.00000
     40      34.9089      0.00000
     41      34.9089      0.00000
     42      40.0075      0.00000
     43      40.3640      0.00000
     44      40.3640      0.00000
     45      41.2038      0.00000
     46      41.2038      0.00000
     47      41.4336      0.00000
     48      41.4336      0.00000
     49      41.5194      0.00000
     50      41.5194      0.00000
     51      41.5514      0.00000
     52      41.9796      0.00000
     53      42.5241      0.00000
     54      42.5241      0.00000
     55      43.4956      0.00000
     56      43.8841      0.00000
     57      43.8841      0.00000
     58      44.7796      0.00000
     59      45.2371      0.00000
     60      45.2371      0.00000
     61      47.1173      0.00000
     62      47.1173      0.00000
     63      47.1820      0.00000
     64      47.1820      0.00000
     65      48.2383      0.00000
     66      48.2383      0.00000
     67      50.1122      0.00000
     68      50.1122      0.00000
     69      50.8263      0.00000
     70      51.5451      0.00000
     71      51.5451      0.00000
     72      52.0521      0.00000
     73      52.0521      0.00000
     74      52.1109      0.00000
     75      52.1109      0.00000
     76      52.8765      0.00000
     77      52.8765      0.00000
     78      53.2346      0.00000
     79      53.5829      0.00000
     80      53.5829      0.00000
     81      54.8190      0.00000
     82      55.6253      0.00000
     83      55.6724      0.00000
     84      55.6724      0.00000
     85      56.4999      0.00000
     86      56.6127      0.00000
     87      56.6127      0.00000
     88      56.7661      0.00000
     89      56.7661      0.00000
     90      57.1169      0.00000
     91      57.1169      0.00000
     92      57.9924      0.00000
     93      57.9924      0.00000
     94      58.7330      0.00000
     95      59.2076      0.00000
     96      59.4766      0.00000
     97      59.5032      0.00000
     98      59.5032      0.00000
     99      60.2345      0.00000
    100      60.5408      0.00000
    101      60.5408      0.00000
    102      62.9480      0.00000
    103      63.6174      0.00000
    104      63.6174      0.00000
    105      63.8309      0.00000
    106      66.9017      0.00000
    107      66.9017      0.00000
    108      68.4468      0.00000
    109      69.2393      0.00000
    110      70.8773      0.00000
    111      70.8773      0.00000
    112      71.4105      0.00000
    113      71.4105      0.00000
    114      71.4288      0.00000
    115      72.2904      0.00000
    116      72.2904      0.00000
    117      73.2405      0.00000
    118      73.2405      0.00000
    119      73.5205      0.00000
    120      73.5205      0.00000
    121      74.7183      0.00000
    122      74.7183      0.00000
    123      76.8039      0.00000
    124      77.1788      0.00000
    125      77.9218      0.00000
    126      78.1004      0.00000
    127      78.1004      0.00000
    128      78.1964      0.00000

 k-point     3 :       0.2857    0.0000    0.0000
  band No.  band energies     occupation 
      1      -2.4026      2.00000
      2       1.4020      2.00000
      3       5.7399      2.00000
      4       5.7399      2.00000
      5       7.0851      2.01318
      6       7.0851      2.10732
      7       9.3063     -0.00026
      8       9.3063     -0.00003
      9      10.8490      0.00000
     10      10.8490      0.00000
     11      11.3203      0.00000
     12      13.9681      0.00000
     13      14.1958      0.00000
     14      14.1958      0.00000
     15      17.4862      0.00000
     16      17.4862      0.00000
     17      17.6971      0.00000
     18      17.6978      0.00000
     19      18.8631      0.00000
     20      18.8631      0.00000
     21      20.6400      0.00000
     22      20.8411      0.00000
     23      20.8411      0.00000
     24      21.6752      0.00000
     25      26.2106      0.00000
     26      26.2106      0.00000
     27      28.0612      0.00000
     28      28.8058      0.00000
     29      29.2546      0.00000
     30      29.2546      0.00000
     31      29.9924      0.00000
     32      29.9924      0.00000
     33      31.3744      0.00000
     34      31.6695      0.00000
     35      32.8684      0.00000
     36      32.8684      0.00000
     37      33.4757      0.00000
     38      33.4757      0.00000
     39      34.9997      0.00000
     40      34.9997      0.00000
     41      37.6474      0.00000
     42      37.7066      0.00000
     43      39.5940      0.00000
     44      39.5940      0.00000
     45      39.8904      0.00000
     46      39.8904      0.00000
     47      40.2429      0.00000
     48      41.7234      0.00000
     49      41.7234      0.00000
     50      41.8304      0.00000
     51      41.8304      0.00000
     52      43.0762      0.00000
     53      43.1763      0.00000
     54      43.1763      0.00000
     55      43.9682      0.00000
     56      44.2977      0.00000
     57      44.2977      0.00000
     58      44.5500      0.00000
     59      45.3274      0.00000
     60      45.3274      0.00000
     61      45.3301      0.00000
     62      45.3301      0.00000
     63      45.8523      0.00000
     64      45.8523      0.00000
     65      49.4119      0.00000
     66      49.4119      0.00000
     67      51.9835      0.00000
     68      52.6906      0.00000
     69      52.6906      0.00000
     70      53.4956      0.00000
     71      53.4956      0.00000
     72      53.5825      0.00000
     73      53.5825      0.00000
     74      53.7511      0.00000
     75      53.7511      0.00000
     76      54.7652      0.00000
     77      54.8265      0.00000
     78      54.9811      0.00000
     79      54.9811      0.00000
     80      55.0274      0.00000
     81      55.2820      0.00000
     82      55.2820      0.00000
     83      55.9287      0.00000
     84      55.9287      0.00000
     85      56.0794      0.00000
     86      56.0794      0.00000
     87      56.6912      0.00000
     88      56.6912      0.00000
     89      56.8341      0.00000
     90      57.0339      0.00000
     91      57.0339      0.00000
     92      57.2282      0.00000
     93      59.1794      0.00000
     94      59.1794      0.00000
     95      59.3503      0.00000
     96      59.4549      0.00000
     97      59.4549      0.00000
     98      59.5177      0.00000
     99      59.8225      0.00000
    100      61.8400      0.00000
    101      61.8400      0.00000
    102      62.5315      0.00000
    103      63.0154      0.00000
    104      63.0154      0.00000
    105      64.1975      0.00000
    106      65.6257      0.00000
    107      66.3162      0.00000
    108      66.3162      0.00000
    109      67.6960      0.00000
    110      67.6960      0.00000
    111      68.3107      0.00000
    112      68.3111      0.00000
    113      68.3111      0.00000
    114      69.4022      0.00000
    115      69.4022      0.00000
    116      72.6285      0.00000
    117      72.6285      0.00000
    118      72.6607      0.00000
    119      72.6607      0.00000
    120      73.6227      0.00000
    121      73.6227      0.00000
    122      73.6452      0.00000
    123      73.6452      0.00000
    124      74.1391      0.00000
    125      76.7740      0.00000
    126      76.7740      0.00000
    127      77.5344      0.00000
    128      77.6249      0.00000

 k-point     4 :       0.4286    0.0000    0.0000
  band No.  band energies     occupation 
      1      -1.4865      2.00000
      2      -0.2142      2.00000
      3       6.5873      2.00000
      4       6.5873      2.00000
      5       7.7757      2.00000
      6       7.7757      2.12067
      7       7.8867      0.04502
      8       7.8867      0.01100
      9       9.4259      0.00000
     10       9.4259      0.00000
     11      14.5259      0.00000
     12      14.8728      0.00000
     13      14.9811      0.00000
     14      14.9811      0.00000
     15      16.0799      0.00000
     16      16.0799      0.00000
     17      16.1261      0.00000
     18      17.9992      0.00000
     19      18.4891      0.00000
     20      19.5122      0.00000
     21      22.0752      0.00000
     22      22.0752      0.00000
     23      23.5264      0.00000
     24      23.5264      0.00000
     25      25.5693      0.00000
     26      25.5693      0.00000
     27      27.1916      0.00000
     28      27.1916      0.00000
     29      28.7248      0.00000
     30      28.7248      0.00000
     31      28.8965      0.00000
     32      30.0272      0.00000
     33      31.0056      0.00000
     34      31.0056      0.00000
     35      32.2181      0.00000
     36      33.4417      0.00000
     37      34.7400      0.00000
     38      34.7400      0.00000
     39      35.0760      0.00000
     40      35.0760      0.00000
     41      35.4821      0.00000
     42      36.0438      0.00000
     43      36.8003      0.00000
     44      36.8003      0.00000
     45      39.8113      0.00000
     46      39.8815      0.00000
     47      39.8815      0.00000
     48      41.6377      0.00000
     49      42.1836      0.00000
     50      42.1836      0.00000
     51      42.5775      0.00000
     52      42.5775      0.00000
     53      42.8851      0.00000
     54      42.8851      0.00000
     55      43.8616      0.00000
     56      43.8616      0.00000
     57      44.0484      0.00000
     58      44.0484      0.00000
     59      45.1289      0.00000
     60      45.1289      0.00000
     61      47.1216      0.00000
     62      47.6291      0.00000
     63      47.6291      0.00000
     64      48.6463      0.00000
     65      50.4880      0.00000
     66      50.4880      0.00000
     67      50.7727      0.00000
     68      51.5640      0.00000
     69      51.5640      0.00000
     70      53.1340      0.00000
     71      53.4915      0.00000
     72      53.5357      0.00000
     73      53.5357      0.00000
     74      54.0861      0.00000
     75      54.0861      0.00000
     76      54.2975      0.00000
     77      54.9586      0.00000
     78      54.9586      0.00000
     79      56.7315      0.00000
     80      56.8396      0.00000
     81      56.8396      0.00000
     82      56.8827      0.00000
     83      56.8827      0.00000
     84      57.0102      0.00000
     85      57.0102      0.00000
     86      57.1173      0.00000
     87      57.1698      0.00000
     88      57.1698      0.00000
     89      58.1304      0.00000
     90      58.1304      0.00000
     91      58.3373      0.00000
     92      58.3373      0.00000
     93      59.0700      0.00000
     94      60.3228      0.00000
     95      60.5143      0.00000
     96      60.5143      0.00000
     97      60.7049      0.00000
     98      60.9026      0.00000
     99      61.1371      0.00000
    100      61.1371      0.00000
    101      62.1385      0.00000
    102      62.1385      0.00000
    103      62.7592      0.00000
    104      62.7592      0.00000
    105      64.4992      0.00000
    106      64.4992      0.00000
    107      64.9796      0.00000
    108      64.9796      0.00000
    109      65.2485      0.00000
    110      65.2485      0.00000
    111      65.5328      0.00000
    112      66.3343      0.00000
    113      66.6341      0.00000
    114      66.6341      0.00000
    115      67.9282      0.00000
    116      69.5876      0.00000
    117      69.5876      0.00000
    118      71.8796      0.00000
    119      71.8796      0.00000
    120      72.6189      0.00000
    121      72.6189      0.00000
    122      73.1032      0.00000
    123      73.1032      0.00000
    124      73.6810      0.00000
    125      75.2623      0.00000
    126      75.2623      0.00000
    127      77.0911      0.00000
    128      77.5647      0.00000

 k-point     5 :       0.1429    0.1429    0.0000
  band No.  band energies     occupation 
      1      -2.7707      2.00000
      2       3.5075      2.00000
      3       3.5075      2.00000
      4       5.4014      2.00000
      5       6.7334      2.06153
      6       8.6013      0.05771
      7       8.6013      0.01304
      8       9.5643      0.00000
      9      11.3498      0.00000
     10      11.3498      0.00000
     11      12.6735      0.00000
     12      12.6735      0.00000
     13      13.8843      0.00000
     14      15.2974      0.00000
     15      16.1385      0.00000
     16      16.1385      0.00000
     17      17.2399      0.00000
     18      18.0732      0.00000
     19      18.5295      0.00000
     20      18.5295      0.00000
     21      19.8959      0.00000
     22      20.9506      0.00000
     23      22.2893      0.00000
     24      23.2092      0.00000
     25      24.0075      0.00000
     26      25.0217      0.00000
     27      26.1915      0.00000
     28      27.5426      0.00000
     29      30.0966      0.00000
     30      30.9830      0.00000
     31      30.9830      0.00000
     32      31.7765      0.00000
     33      32.6881      0.00000
     34      33.0390      0.00000
     35      33.2118      0.00000
     36      33.6566      0.00000
     37      33.6566      0.00000
     38      34.2677      0.00000
     39      34.2677      0.00000
     40      34.7707      0.00000
     41      35.6897      0.00000
     42      38.4896      0.00000
     43      38.9490      0.00000
     44      38.9490      0.00000
     45      41.1393      0.00000
     46      41.1393      0.00000
     47      41.3014      0.00000
     48      41.3014      0.00000
     49      42.1351      0.00000
     50      42.4063      0.00000
     51      42.5660      0.00000
     52      42.5660      0.00000
     53      42.6325      0.00000
     54      43.4052      0.00000
     55      43.4489      0.00000
     56      43.6000      0.00000
     57      43.6000      0.00000
     58      44.7787      0.00000
     59      44.7787      0.00000
     60      46.5325      0.00000
     61      46.5325      0.00000
     62      46.9302      0.00000
     63      47.1785      0.00000
     64      47.1785      0.00000
     65      47.3941      0.00000
     66      49.8220      0.00000
     67      49.8251      0.00000
     68      50.7339      0.00000
     69      50.7339      0.00000
     70      50.8514      0.00000
     71      52.0724      0.00000
     72      52.0724      0.00000
     73      52.2914      0.00000
     74      52.9127      0.00000
     75      52.9127      0.00000
     76      53.6759      0.00000
     77      54.0268      0.00000
     78      54.2561      0.00000
     79      55.1136      0.00000
     80      55.1136      0.00000
     81      55.5581      0.00000
     82      55.9183      0.00000
     83      55.9262      0.00000
     84      55.9812      0.00000
     85      56.5848      0.00000
     86      56.5848      0.00000
     87      56.6904      0.00000
     88      56.6904      0.00000
     89      56.7853      0.00000
     90      56.7853      0.00000
     91      56.8223      0.00000
     92      57.0207      0.00000
     93      57.0329      0.00000
     94      58.9255      0.00000
     95      58.9255      0.00000
     96      59.4187      0.00000
     97      59.4596      0.00000
     98      60.6927      0.00000
     99      60.8530      0.00000
    100      60.8530      0.00000
    101      60.9920      0.00000
    102      61.1790      0.00000
    103      63.2389      0.00000
    104      63.5436      0.00000
    105      63.5436      0.00000
    106      66.6517      0.00000
    107      67.8685      0.00000
    108      68.1165      0.00000
    109      68.1165      0.00000
    110      68.3385      0.00000
    111      69.9063      0.00000
    112      71.2994      0.00000
    113      71.2994      0.00000
    114      71.5459      0.00000
    115      71.8877      0.00000
    116      71.8877      0.00000
    117      72.2706      0.00000
    118      72.4681      0.00000
    119      72.4823      0.00000
    120      73.4580      0.00000
    121      74.2086      0.00000
    122      74.2086      0.00000
    123      74.6840      0.00000
    124      75.7564      0.00000
    125      75.9755      0.00000
    126      77.7695      0.00000
    127      77.7695      0.00000
    128      78.5264      0.00000

 k-point     6 :       0.2857    0.1429    0.0000
  band No.  band energies     occupation 
      1      -2.2189      2.00000
      2       1.5807      2.00000
      3       4.0333      2.00000
      4       5.9093      2.00000
      5       7.1714      2.01102
      6       7.8137      1.47745
      7       9.0870     -0.00028
      8       9.4766     -0.00002
      9      11.0425      0.00000
     10      11.4675      0.00000
     11      11.8614      0.00000
     12      12.7101      0.00000
     13      13.1809      0.00000
     14      15.4150      0.00000
     15      16.4739      0.00000
     16      16.6409      0.00000
     17      17.5669      0.00000
     18      19.0010      0.00000
     19      19.0290      0.00000
     20      20.0166      0.00000
     21      20.9872      0.00000
     22      21.4962      0.00000
     23      22.0811      0.00000
     24      22.4511      0.00000
     25      25.1013      0.00000
     26      25.6631      0.00000
     27      26.6652      0.00000
     28      27.6910      0.00000
     29      29.3767      0.00000
     30      29.3792      0.00000
     31      29.8540      0.00000
     32      30.1618      0.00000
     33      30.8767      0.00000
     34      31.5180      0.00000
     35      32.7154      0.00000
     36      33.2709      0.00000
     37      33.2786      0.00000
     38      33.8306      0.00000
     39      34.2119      0.00000
     40      36.1089      0.00000
     41      36.3037      0.00000
     42      37.4136      0.00000
     43      38.1329      0.00000
     44      38.3395      0.00000
     45      38.4378      0.00000
     46      40.7343      0.00000
     47      40.7416      0.00000
     48      41.3567      0.00000
     49      41.8203      0.00000
     50      42.0260      0.00000
     51      42.2234      0.00000
     52      42.3789      0.00000
     53      43.2117      0.00000
     54      43.3891      0.00000
     55      43.4219      0.00000
     56      43.5815      0.00000
     57      44.9083      0.00000
     58      44.9613      0.00000
     59      45.5313      0.00000
     60      46.5289      0.00000
     61      46.7256      0.00000
     62      47.2452      0.00000
     63      47.6858      0.00000
     64      49.4432      0.00000
     65      49.4747      0.00000
     66      50.0003      0.00000
     67      50.7044      0.00000
     68      50.7286      0.00000
     69      51.1981      0.00000
     70      51.6901      0.00000
     71      52.5067      0.00000
     72      53.1897      0.00000
     73      53.5554      0.00000
     74      53.6448      0.00000
     75      53.8850      0.00000
     76      54.2967      0.00000
     77      54.9454      0.00000
     78      55.0436      0.00000
     79      55.7628      0.00000
     80      55.7767      0.00000
     81      55.7943      0.00000
     82      55.9939      0.00000
     83      56.1018      0.00000
     84      56.1184      0.00000
     85      56.3954      0.00000
     86      56.7045      0.00000
     87      56.8079      0.00000
     88      56.8548      0.00000
     89      57.3147      0.00000
     90      57.7746      0.00000
     91      57.8377      0.00000
     92      57.8706      0.00000
     93      58.7139      0.00000
     94      59.0860      0.00000
     95      59.4718      0.00000
     96      59.6001      0.00000
     97      59.6282      0.00000
     98      60.1517      0.00000
     99      60.5347      0.00000
    100      61.8542      0.00000
    101      61.9694      0.00000
    102      62.1659      0.00000
    103      62.6921      0.00000
    104      63.0934      0.00000
    105      63.3489      0.00000
    106      64.7326      0.00000
    107      65.6057      0.00000
    108      66.2054      0.00000
    109      66.9871      0.00000
    110      66.9981      0.00000
    111      67.0079      0.00000
    112      68.6256      0.00000
    113      70.4595      0.00000
    114      70.5730      0.00000
    115      70.6725      0.00000
    116      71.2813      0.00000
    117      71.8697      0.00000
    118      71.9022      0.00000
    119      72.2004      0.00000
    120      72.6052      0.00000
    121      72.8940      0.00000
    122      72.9188      0.00000
    123      72.9644      0.00000
    124      74.6624      0.00000
    125      75.3154      0.00000
    126      75.5579      0.00000
    127      76.7508      0.00000
    128      77.3382      0.00000

 k-point     7 :       0.4286    0.1429    0.0000
  band No.  band energies     occupation 
      1      -1.3039      2.00000
      2      -0.0333      2.00000
      3       4.9048      2.00000
      4       6.1075      2.00000
      5       6.7569      2.00000
      6       7.9456      1.38822
      7       8.2018     -0.00250
      8       9.2725     -0.00136
      9      10.2128      0.00000
     10      11.2643      0.00000
     11      12.7124      0.00000
     12      13.8920      0.00000
     13      13.8994      0.00000
     14      14.7661      0.00000
     15      15.0617      0.00000
     16      17.4740      0.00000
     17      18.1692      0.00000
     18      18.6228      0.00000
     19      19.7558      0.00000
     20      20.6607      0.00000
     21      20.7382      0.00000
     22      22.2365      0.00000
     23      23.4177      0.00000
     24      24.4885      0.00000
     25      25.0873      0.00000
     26      25.7198      0.00000
     27      26.8021      0.00000
     28      27.3428      0.00000
     29      27.8526      0.00000
     30      27.9677      0.00000
     31      28.6585      0.00000
     32      29.0086      0.00000
     33      30.5311      0.00000
     34      31.5696      0.00000
     35      32.1046      0.00000
     36      32.8248      0.00000
     37      33.6581      0.00000
     38      33.7929      0.00000
     39      34.0110      0.00000
     40      35.3430      0.00000
     41      35.5378      0.00000
     42      37.3776      0.00000
     43      37.7318      0.00000
     44      37.8155      0.00000
     45      38.4816      0.00000
     46      39.9396      0.00000
     47      40.4096      0.00000
     48      40.5372      0.00000
     49      40.6543      0.00000
     50      40.7169      0.00000
     51      41.3503      0.00000
     52      42.1850      0.00000
     53      43.3474      0.00000
     54      43.5351      0.00000
     55      44.2253      0.00000
     56      44.3519      0.00000
     57      45.4099      0.00000
     58      46.0301      0.00000
     59      46.6954      0.00000
     60      47.2857      0.00000
     61      47.7096      0.00000
     62      48.2388      0.00000
     63      48.8326      0.00000
     64      48.9628      0.00000
     65      49.8755      0.00000
     66      50.5465      0.00000
     67      51.0719      0.00000
     68      51.3587      0.00000
     69      52.3122      0.00000
     70      52.4559      0.00000
     71      52.9541      0.00000
     72      53.3876      0.00000
     73      53.9224      0.00000
     74      54.3670      0.00000
     75      54.4720      0.00000
     76      54.7363      0.00000
     77      54.7393      0.00000
     78      54.9468      0.00000
     79      55.5433      0.00000
     80      55.7888      0.00000
     81      56.0151      0.00000
     82      56.2067      0.00000
     83      56.2405      0.00000
     84      56.3173      0.00000
     85      56.3368      0.00000
     86      56.5763      0.00000
     87      56.7233      0.00000
     88      57.4073      0.00000
     89      58.1431      0.00000
     90      58.2100      0.00000
     91      58.3410      0.00000
     92      59.5655      0.00000
     93      59.7542      0.00000
     94      59.9219      0.00000
     95      59.9796      0.00000
     96      60.3903      0.00000
     97      60.4126      0.00000
     98      60.8364      0.00000
     99      61.6341      0.00000
    100      62.4616      0.00000
    101      62.5441      0.00000
    102      62.6943      0.00000
    103      62.7225      0.00000
    104      63.1638      0.00000
    105      63.8097      0.00000
    106      64.5313      0.00000
    107      64.6645      0.00000
    108      64.7929      0.00000
    109      64.8288      0.00000
    110      65.3905      0.00000
    111      66.5503      0.00000
    112      67.3160      0.00000
    113      68.2262      0.00000
    114      68.4959      0.00000
    115      68.5246      0.00000
    116      69.3862      0.00000
    117      69.8722      0.00000
    118      69.9355      0.00000
    119      71.1202      0.00000
    120      71.1364      0.00000
    121      71.8613      0.00000
    122      72.6788      0.00000
    123      72.8858      0.00000
    124      73.6849      0.00000
    125      74.9028      0.00000
    126      75.3299      0.00000
    127      76.2058      0.00000
    128      76.2268      0.00000

 k-point     8 :       0.2857    0.2857    0.0000
  band No.  band energies     occupation 
      1      -1.6692      2.00000
      2       2.1157      2.00000
      3       2.1157      2.00000
      4       5.7861      2.00000
      5       6.4177      2.03268
      6       7.8729      1.05890
      7       9.9873     -0.00499
      8       9.9873      0.00000
      9      11.3250      0.00000
     10      11.3250      0.00000
     11      12.1821      0.00000
     12      12.1821      0.00000
     13      13.5566      0.00000
     14      14.8343      0.00000
     15      14.8861      0.00000
     16      16.5301      0.00000
     17      19.5240      0.00000
     18      19.5240      0.00000
     19      21.3732      0.00000
     20      21.4135      0.00000
     21      21.4135      0.00000
     22      22.0246      0.00000
     23      23.3881      0.00000
     24      23.4321      0.00000
     25      24.2117      0.00000
     26      24.9526      0.00000
     27      26.0159      0.00000
     28      26.0159      0.00000
     29      26.1336      0.00000
     30      29.0859      0.00000
     31      29.3014      0.00000
     32      30.4038      0.00000
     33      31.4170      0.00000
     34      32.1068      0.00000
     35      32.2107      0.00000
     36      32.2107      0.00000
     37      32.5105      0.00000
     38      32.5105      0.00000
     39      35.0845      0.00000
     40      35.1683      0.00000
     41      35.2966      0.00000
     42      35.2966      0.00000
     43      37.6230      0.00000
     44      37.6230      0.00000
     45      38.5887      0.00000
     46      39.7777      0.00000
     47      39.8195      0.00000
     48      39.8195      0.00000
     49      40.9690      0.00000
     50      41.0138      0.00000
[...]
     56      46.1861      0.00000
     57      46.5456      0.00000
     58      47.2919      0.00000
     59      47.2919      0.00000
     60      47.6619      0.00000
     61      48.4364      0.00000
     62      48.4364      0.00000
     63      49.4183      0.00000
     64      50.2889      0.00000
     65      50.2889      0.00000
     66      50.5063      0.00000
     67      50.5063      0.00000
     68      50.6606      0.00000
     69      51.9495      0.00000
     70      54.0975      0.00000
     71      54.0975      0.00000
     72      54.4312      0.00000
     73      54.5218      0.00000
     74      54.5218      0.00000
     75      55.1815      0.00000
     76      55.1816      0.00000
     77      55.1816      0.00000
     78      55.3258      0.00000
     79      55.7771      0.00000
     80      55.8781      0.00000
     81      56.1668      0.00000
     82      56.1668      0.00000
     83      56.3823      0.00000
     84      56.4434      0.00000
     85      56.4434      0.00000
     86      56.8823      0.00000
     87      57.4962      0.00000
     88      57.5443      0.00000
     89      57.7381      0.00000
     90      57.7381      0.00000
     91      57.8510      0.00000
     92      58.9872      0.00000
     93      58.9872      0.00000
     94      60.1263      0.00000
     95      60.1479      0.00000
     96      60.3246      0.00000
     97      60.3246      0.00000
     98      61.2118      0.00000
     99      61.2118      0.00000
    100      62.1504      0.00000
    101      62.7250      0.00000
    102      63.5312      0.00000
    103      63.6928      0.00000
    104      63.7513      0.00000
    105      63.7513      0.00000
    106      65.0659      0.00000
    107      65.3237      0.00000
    108      65.3237      0.00000
    109      65.4130      0.00000
    110      65.9986      0.00000
    111      65.9986      0.00000
    112      66.2660      0.00000
    113      66.7242      0.00000
    114      67.5895      0.00000
    115      67.5895      0.00000
    116      68.0767      0.00000
    117      70.0932      0.00000
    118      70.2638      0.00000
    119      71.4281      0.00000
    120      71.4281      0.00000
    121      71.4763      0.00000
    122      71.9491      0.00000
    123      72.6066      0.00000
    124      73.0063      0.00000
    125      73.0063      0.00000
    126      73.9738      0.00000
    127      75.2215      0.00000
    128      75.7649      0.00000

 k-point    19 :       0.4286    0.4286    0.2857
  band No.  band energies     occupation 
      1       0.8685      2.00000
      2       2.1199      2.00000
      3       2.1199      2.00000
      4       3.3553      2.00000
      5       4.6070      2.00000
      6       5.8244      2.00589
      7       5.8244      2.10902
      8       7.0403      1.57424
      9      14.3534      0.00000
     10      15.4472      0.00000
     11      15.4472      0.00000
     12      16.5528      0.00000
     13      16.6323      0.00000
     14      16.6323      0.00000
     15      17.0551      0.00000
     16      18.8933      0.00000
     17      19.2718      0.00000
     18      20.2582      0.00000
     19      20.2582      0.00000
     20      20.4010      0.00000
     21      20.9075      0.00000
     22      21.4575      0.00000
     23      21.4575      0.00000
     24      22.6344      0.00000
     25      23.3426      0.00000
     26      25.4303      0.00000
     27      25.5072      0.00000
     28      25.5072      0.00000
     29      25.9404      0.00000
     30      26.9294      0.00000
     31      26.9294      0.00000
     32      27.8408      0.00000
     33      29.2212      0.00000
     34      29.2410      0.00000
     35      29.2410      0.00000
     36      30.8108      0.00000
     37      31.1262      0.00000
     38      31.1456      0.00000
     39      32.4249      0.00000
     40      32.4249      0.00000
     41      37.4207      0.00000
     42      37.7214      0.00000
     43      38.1381      0.00000
     44      38.1381      0.00000
     45      39.9635      0.00000
     46      40.1562      0.00000
     47      40.1562      0.00000
     48      41.1596      0.00000
     49      41.7300      0.00000
     50      41.7300      0.00000
     51      41.8115      0.00000
     52      42.9289      0.00000
     53      45.3800      0.00000
     54      46.0733      0.00000
     55      46.4210      0.00000
     56      46.4210      0.00000
     57      46.9053      0.00000
     58      47.8909      0.00000
     59      47.8909      0.00000
     60      48.6187      0.00000
     61      48.6855      0.00000
     62      48.7165      0.00000
     63      49.3176      0.00000
     64      49.3176      0.00000
     65      50.5186      0.00000
     66      50.7436      0.00000
     67      50.7436      0.00000
     68      51.3751      0.00000
     69      52.9665      0.00000
     70      53.7092      0.00000
     71      53.9813      0.00000
     72      53.9813      0.00000
     73      55.1748      0.00000
     74      55.1748      0.00000
     75      55.3982      0.00000
     76      55.4099      0.00000
     77      55.8392      0.00000
     78      55.8392      0.00000
     79      55.9256      0.00000
     80      55.9256      0.00000
     81      55.9525      0.00000
     82      56.0099      0.00000
     83      56.0741      0.00000
     84      56.4113      0.00000
     85      56.8809      0.00000
     86      57.0094      0.00000
     87      57.0984      0.00000
     88      57.0984      0.00000
     89      57.6115      0.00000
     90      58.5630      0.00000
     91      58.5630      0.00000
     92      59.1017      0.00000
     93      59.1017      0.00000
     94      59.4741      0.00000
     95      60.1097      0.00000
     96      60.4885      0.00000
     97      60.9715      0.00000
     98      61.6041      0.00000
     99      61.6041      0.00000
    100      61.6883      0.00000
    101      61.7807      0.00000
    102      61.7807      0.00000
    103      61.8475      0.00000
    104      63.3216      0.00000
    105      63.4373      0.00000
    106      64.5398      0.00000
    107      64.5398      0.00000
    108      65.2684      0.00000
    109      65.6824      0.00000
    110      65.9024      0.00000
    111      66.3580      0.00000
    112      66.3580      0.00000
    113      67.5582      0.00000
    114      67.5582      0.00000
    115      67.5886      0.00000
    116      69.2610      0.00000
    117      70.1995      0.00000
    118      70.1995      0.00000
    119      70.5222      0.00000
    120      70.5703      0.00000
    121      71.5538      0.00000
    122      71.5538      0.00000
    123      71.8153      0.00000
    124      73.9267      0.00000
    125      73.9267      0.00000
    126      74.3796      0.00000
    127      75.4249      0.00000
    128      75.4787      0.00000

 k-point    20 :       0.4286    0.4286    0.4286
  band No.  band energies     occupation 
      1       1.7641      2.00000
      2       3.0037      2.00000
      3       3.0037      2.00000
      4       3.0037      2.00000
      5       4.2589      2.00000
      6       4.2589      2.00000
      7       4.2589      2.00000
      8       5.4806      2.11089
      9      17.3708      0.00000
     10      17.3708      0.00000
     11      17.3708      0.00000
     12      17.8498      0.00000
     13      17.8498      0.00000
     14      17.8498      0.00000
     15      18.9625      0.00000
     16      18.9625      0.00000
     17      19.4255      0.00000
     18      19.4255      0.00000
     19      19.4255      0.00000
     20      20.0775      0.00000
     21      20.0775      0.00000
     22      21.1957      0.00000
     23      21.1957      0.00000
     24      21.1957      0.00000
     25      22.6320      0.00000
     26      23.9410      0.00000
     27      24.2161      0.00000
     28      24.2161      0.00000
     29      24.2161      0.00000
     30      24.5295      0.00000
     31      24.5295      0.00000
     32      24.5295      0.00000
     33      31.4736      0.00000
     34      31.4736      0.00000
     35      31.4736      0.00000
     36      31.7268      0.00000
     37      31.7268      0.00000
     38      32.7909      0.00000
     39      32.7909      0.00000
     40      32.7909      0.00000
     41      38.5096      0.00000
     42      38.9602      0.00000
     43      38.9602      0.00000
     44      38.9602      0.00000
     45      39.0303      0.00000
     46      39.0303      0.00000
     47      39.0303      0.00000
     48      39.9930      0.00000
     49      39.9930      0.00000
     50      40.1312      0.00000
     51      40.1312      0.00000
     52      40.1312      0.00000
     53      46.3038      0.00000
     54      46.3038      0.00000
     55      46.3038      0.00000
     56      46.3532      0.00000
     57      48.8195      0.00000
     58      49.2921      0.00000
     59      49.2921      0.00000
     60      50.2338      0.00000
     61      50.2338      0.00000
     62      50.2338      0.00000
     63      50.2999      0.00000
     64      50.2999      0.00000
     65      50.2999      0.00000
     66      51.2176      0.00000
     67      51.2176      0.00000
     68      51.2176      0.00000
     69      53.9675      0.00000
     70      53.9675      0.00000
     71      53.9675      0.00000
     72      54.4267      0.00000
     73      54.5744      0.00000
     74      54.5744      0.00000
     75      54.5744      0.00000
     76      55.0244      0.00000
     77      55.7044      0.00000
     78      55.7044      0.00000
     79      55.7044      0.00000
     80      55.9916      0.00000
     81      55.9916      0.00000
     82      56.3226      0.00000
     83      56.3226      0.00000
     84      56.3226      0.00000
     85      56.9173      0.00000
     86      56.9173      0.00000
     87      56.9173      0.00000
     88      57.4766      0.00000
     89      57.7573      0.00000
     90      57.7573      0.00000
     91      57.7573      0.00000
     92      58.8497      0.00000
     93      58.8497      0.00000
     94      58.8497      0.00000
     95      58.8559      0.00000
     96      58.8559      0.00000
     97      61.7426      0.00000
     98      61.7426      0.00000
     99      61.7426      0.00000
    100      62.3792      0.00000
    101      62.7094      0.00000
    102      62.7094      0.00000
    103      62.7094      0.00000
    104      63.1458      0.00000
    105      63.1458      0.00000
    106      63.1458      0.00000
    107      64.3402      0.00000
    108      64.3402      0.00000
    109      64.4752      0.00000
    110      64.4752      0.00000
    111      64.4752      0.00000
    112      65.2242      0.00000
    113      68.8890      0.00000
    114      70.1992      0.00000
    115      70.1992      0.00000
    116      70.1992      0.00000
    117      70.6073      0.00000
    118      70.6073      0.00000
    119      70.6073      0.00000
    120      71.4742      0.00000
    121      71.4742      0.00000
    122      71.4742      0.00000
    123      73.8055      0.00000
    124      73.8055      0.00000
    125      74.7561      0.00000
    126      74.7561      0.00000
    127      74.7561      0.00000
    128      75.9783      0.00000


--------------------------------------------------------------------------------------------------------


 soft charge-density along one line, spin component           1
         0         1         2         3         4         5         6         7         8         9
 total charge-density along one line
 
 pseudopotential strength for first ion, spin component:           1
  8.444  14.392   0.000  -0.000  -0.000   0.000  -0.000  -0.000
 14.392  24.529   0.000  -0.000  -0.000   0.000  -0.000  -0.000
  0.000   0.000   1.988   0.000   0.000   5.731   0.000   0.000
 -0.000  -0.000   0.000   1.988   0.000   0.000   5.731   0.000
 -0.000  -0.000   0.000   0.000   1.988   0.000   0.000   5.731
  0.000   0.000   5.731   0.000   0.000  16.436   0.000   0.000
 -0.000  -0.000   0.000   5.731   0.000   0.000  16.436   0.000
 -0.000  -0.000   0.000   0.000   5.731   0.000   0.000  16.436
 total augmentation occupancy for first ion, spin component:           1
  3.348  -0.824   0.000  -0.000  -0.000   0.000  -0.000  -0.000
 -0.824   0.269   0.000   0.000  -0.000   0.000   0.000  -0.000
  0.000   0.000   1.105   0.000   0.000  -0.070  -0.000  -0.000
 -0.000   0.000   0.000   1.105   0.000  -0.000  -0.070  -0.000
 -0.000  -0.000   0.000   0.000   1.105  -0.000  -0.000  -0.070
  0.000   0.000  -0.070  -0.000  -0.000   0.005   0.000   0.000
 -0.000   0.000  -0.000  -0.070  -0.000   0.000   0.005   0.000
 -0.000  -0.000  -0.000  -0.000  -0.070   0.000   0.000   0.005


------------------------ aborting loop because EDIFF is reached ----------------------------------------


    CHARGE:  cpu time      0.0149: real time      0.0150
    FORLOC:  cpu time      0.0010: real time      0.0012
    FORNL :  cpu time      0.0163: real time      0.0170
    STRESS:  cpu time      0.1534: real time      0.1544
    FORCOR:  cpu time      0.0067: real time      0.0070
    FORHAR:  cpu time      0.0027: real time      0.0029
    MIXING:  cpu time      0.0006: real time      0.0006
    OFIELD:  cpu time      0.0010: real time      0.0011

  FORCE on cell =-STRESS in cart. coord.  units (eV):
  Direction    XX          YY          ZZ          XY          YZ          ZX
  --------------------------------------------------------------------------------------
  Alpha Z    -0.81278    -0.81278    -0.81278
  Ewald     -97.96162   -97.96162   -97.96162    -0.00000     0.00000     0.00000
  Hartree     0.14526     0.14526     0.14526    -0.00000    -0.00000    -0.00000
  E(xc)     -34.23302   -34.23302   -34.23302     0.00000     0.00000     0.00000
  Local       1.38211     1.38211     1.38211     0.00000    -0.00000     0.00000
  n-local    73.88150    75.12502    77.19121     0.17661     0.86888     0.29440
  augment    -4.09801    -4.09801    -4.09801    -0.00000     0.00000     0.00000
  Kinetic    57.90956    58.75182    63.40357     1.78757    -7.76135    -0.91994
  Fock        0.00000     0.00000     0.00000     0.00000     0.00000     0.00000
  -------------------------------------------------------------------------------------
  Total      -0.15717    -0.15717    -0.15717     0.00000    -0.00000     0.00000
  in kB      -3.80838    -3.80838    -3.80838     0.00000    -0.00000     0.00000
  external pressure =       -3.81 kB  Pullay stress =        0.00 kB


 VOLUME and BASIS-vectors are now :
 -----------------------------------------------------------------------------
  energy-cutoff  :      520.00
  volume of cell :       66.12
      direct lattice vectors                 reciprocal lattice vectors
     4.043689723  0.000000000  0.000000000     0.247298895 -0.000000000  0.000000000
     0.000000000  4.043689723  0.000000000     0.000000000  0.247298895  0.000000000
     0.000000000  0.000000000  4.043689723    -0.000000000 -0.000000000  0.247298895

  length of vectors
     4.043689723  4.043689723  4.043689723     0.247298895  0.247298895  0.247298895


 FORCES acting on ions
    electron-ion (+dipol)            ewald-force                    non-local-force                 convergence-correction
 -----------------------------------------------------------------------------------------------
   -.146E-14 0.172E-15 -.914E-15   0.489E-15 0.764E-15 -.890E-15   -.494E-19 0.830E-20 0.380E-21   0.718E-15 0.777E-16 0.733E-16
   -.171E-14 -.130E-14 -.160E-14   0.516E-15 -.538E-15 0.377E-15   -.117E-18 0.879E-19 0.452E-19   0.717E-15 -.745E-16 -.794E-16
   -.221E-14 0.507E-15 0.236E-13   -.475E-15 0.591E-15 0.377E-15   0.197E-18 -.166E-18 0.347E-19   -.691E-15 0.585E-16 -.701E-16
   -.192E-14 -.812E-14 -.200E-13   -.448E-15 -.707E-15 0.305E-15   -.137E-19 -.578E-19 0.263E-18   -.702E-15 -.616E-16 0.807E-16
 -----------------------------------------------------------------------------------------------
   -.731E-14 -.874E-14 0.108E-14   0.811E-16 0.111E-15 0.169E-15   0.170E-19 -.128E-18 0.343E-18   0.415E-16 0.958E-19 0.457E-17
 
 
 POSITION                                       TOTAL-FORCE (eV/Angst)
 -----------------------------------------------------------------------------------
      0.00000      0.00000      0.00000        -0.000000     -0.000000     -0.000000
      0.00000      2.02184      2.02184         0.000000      0.000000      0.000000
      2.02184      0.00000      2.02184         0.000000      0.000000     -0.000000
      2.02184      2.02184      0.00000        -0.000000     -0.000000      0.000000
 -----------------------------------------------------------------------------------
    total drift:                               -0.000000     -0.000000      0.000000


--------------------------------------------------------------------------------------------------------



  FREE ENERGIE OF THE ION-ELECTRON SYSTEM (eV)
  ---------------------------------------------------
  free  energy   TOTEN  =       -14.99080864 eV

  energy  without entropy=      -14.99080864  energy(sigma->0) =      -14.99080864
 


--------------------------------------------------------------------------------------------------------


    POTLOK:  cpu time      0.0110: real time      0.0115


--------------------------------------------------------------------------------------------------------


     LOOP+:  cpu time    129.0420: real time    129.7483
 -----------------------------------------------------------------------------
|                                                                             |
|           W    W    AA    RRRRR   N    N  II  N    N   GGGG   !!!           |
|           W    W   A  A   R    R  NN   N  II  NN   N  G    G  !!!           |
|           W    W  A    A  R    R  N N  N  II  N N  N  G       !!!           |
|           W WW W  AAAAAA  RRRRR   N  N N  II  N  N N  G  GGG   !            |
|           WW  WW  A    A  R   R   N   NN  II  N   NN  G    G                |
|           W    W  A    A  R    R  N    N  II  N    N   GGGG   !!!           |
|                                                                             |
|     Tetrahedron method does not include variations of the Fermi             |
|     occupations, so forces and stress will be inaccurate. We suggest        |
|     using a different smearing scheme ISMEAR = 1 or 2 for metals in         |
|     relaxations.                                                            |
|                                                                             |
 -----------------------------------------------------------------------------

    4ORBIT:  cpu time      0.0000: real time      0.0000
 BZINTS: Fermi energy:    7.913020;   12.000000 electrons
         Band energy: 0.427476E+02;  BLOECHL correction:   -0.400254

 total amount of memory used by VASP MPI-rank0    34774. kBytes
=======================================================================

   base      :      30000. kBytes
   nonl-proj :       2580. kBytes
   fftplans  :        256. kBytes
   grid      :       1271. kBytes
   one-center:         12. kBytes
   wavefun   :        655. kBytes
 
  
  
 General timing and accounting informations for this job:
 ========================================================
  
                  Total CPU time used (sec):      135.908
                            User time (sec):      130.926
                          System time (sec):        4.982
                         Elapsed time (sec):      142.160
  
                   Maximum memory used (kb):      817492.
                   Average memory used (kb):          N/A
  
                          Minor page faults:       162102
                          Major page faults:          109
                 Voluntary context switches:         7003
