 vasp.6.4.3 19Mar24 (build Mar 26 2024 14:05:37) complex                        
  
 executed on             LinuxIFC date 2025.01.02  09:12:16
 running  128 mpi-ranks, on    1 nodes
 distrk:  each k-point on  128 cores,    1 groups
 distr:  one band on NCORE=   1 cores,  128 groups


--------------------------------------------------------------------------------------------------------


 INCAR:
   EDIFF = 1e-06
   EDIFFG = -0.01
   ENCUT = 520
   GGA = Pe
   IBRION = -1
   ISIF = 2
   ISMEAR = -5
   LCHARG = False
   LREAL = False
   LWAVE = False
   NELM = 200
   NSW = 0
   PREC = Accurate
   SIGMA = 0.2

 POTCAR:    PAW_PBE Al 04Jan2001                  
 -----------------------------------------------------------------------------
|                                                                             |
|           W    W    AA    RRRRR   N    N  II  N    N   GGGG   !!!           |
|           W    W   A  A   R    R  NN   N  II  NN   N  G    G  !!!           |
|           W    W  A    A  R    R  N N  N  II  N N  N  G       !!!           |
|           W WW W  AAAAAA  RRRRR   N  N N  II  N  N N  G  GGG   !            |
|           WW  WW  A    A  R   R   N   NN  II  N   NN  G    G                |
|           W    W  A    A  R    R  N    N  II  N    N   GGGG   !!!           |
|                                                                             |
|     For optimal performance we recommend to set                             |
|       NCORE = 2 up to number-of-cores-per-socket                            |
|     NCORE specifies how many cores store one orbital (NPAR=cpu/NCORE).      |
|     This setting can greatly improve the performance of VASP for DFT.       |
|     The default, NCORE=1 might be grossly inefficient on modern             |
|     multi-core architectures or massively parallel machines. Do your        |
|     own testing! More info at https://www.vasp.at/wiki/index.php/NCORE      |
|     Unfortunately you need to use the default for GW and RPA                |
|     calculations (for HF NCORE is supported but not extensively tested      |
|     yet).                                                                   |
|                                                                             |
 -----------------------------------------------------------------------------

 POTCAR:    PAW_PBE Al 04Jan2001                  
   SHA256 =  17880443556af62b473fe41b62a467bd001ad55d2cabe504a3f22e34d4e9db96 Al/POTCAR             
   COPYR  = (c) Copyright 04Jan2001 Georg Kresse                                                    
   COPYR  = This file is part of the software VASP. Any use, copying, and all other rights are regul
   COPYR  = If you do not have a valid VASP license, you may not use, copy or distribute this file. 
   VRHFIN =Al: s2p1                                                                                 
   LEXCH  = PE                                                                                      
   EATOM  =    53.5387 eV,    3.9350 Ry                                                             
                                                                                                    
   TITEL  = PAW_PBE Al 04Jan2001                                                                    
   LULTRA =        F    use ultrasoft PP ?                                                          
   IUNSCR =        1    unscreen: 0-lin 1-nonlin 2-no                                               
   RPACOR =    1.500    partial core radius                                                         
   POMASS =   26.981; ZVAL   =    3.000    mass and valenz                                          
   RCORE  =    1.900    outmost cutoff radius                                                       
   RWIGS  =    2.650; RWIGS  =    1.402    wigner-seitz radius (au A)                               
   ENMAX  =  240.300; ENMIN  =  180.225 eV                                                          
   ICORE  =        2    local potential                                                             
   LCOR   =        T    correct aug charges                                                         
   LPAW   =        T    paw PP                                                                      
   EAUG   =  291.052                                                                                
   DEXC   =    0.000                                                                                
   RMAX   =    1.939    core radius for proj-oper                                                   
   RAUG   =    1.300    factor for augmentation sphere                                              
   RDEP   =    1.966    radius for radial grids                                                     
   RDEPT  =    1.856    core radius for aug-charge                                                  
                                                                                                    
   Atomic configuration                                                                             
    6 entries                                                                                       
     n  l   j            E        occ.                                                              
     1  0  0.50     -1511.1048   2.0000                                                             
     2  0  0.50      -108.1629   2.0000                                                             
     2  1  1.50       -69.6402   6.0000                                                             
     3  0  0.50        -7.7528   2.0000                                                             
     3  1  1.50        -2.7121   1.0000                                                             
     3  2  2.50        -2.7212   0.0000                                                             
   Description                                                                                      
     l       E           TYP  RCUT    TYP  RCUT                                                     
     0     -7.7528455     23  1.900                                                                 
     0     -3.3096929     23  1.900                                                                 
     1     -2.7120682     23  1.900                                                                 
     1     13.6058260     23  1.900                                                                 
     2     -2.7211652      7  1.900                                                                 
  local pseudopotential read in
  partial core-charges read in
  partial kinetic energy density read in
  atomic valenz-charges read in
  non local Contribution for L=           0  read in
    real space projection operators read in
  non local Contribution for L=           0  read in
    real space projection operators read in
  non local Contribution for L=           1  read in
    real space projection operators read in
  non local Contribution for L=           1  read in
    real space projection operators read in
    PAW grid and wavefunctions read in
 
   number of l-projection  operators is LMAX  =           4
   number of lm-projection operators is LMMAX =           8
 
  PAW_PBE Al 04Jan2001                  :
 energy of atom  1       EATOM=  -53.5387
 kinetic energy error for atom=    0.0002 (will be added to EATOM!!)
 
 
 POSCAR: Al4
  positions in direct lattice
  velocities in cartesian coordinates


 exchange-correlation table for PE
   RHO(1)=    0.500       N(1)  =     2000
   RHO(2)=  100.500       N(2)  =     4000
 


--------------------------------------------------------------------------------------------------------


 ion  position               nearest neighbor table
   1  0.000  0.000  0.000-   2 2.86   3 2.86   2 2.86   3 2.86   2 2.86   4 2.86   2 2.86   3 2.86
                             4 2.86   3 2.86   4 2.86   4 2.86
   2  0.000  0.500  0.500-   1 2.86   4 2.86   1 2.86   4 2.86   1 2.86   3 2.86   1 2.86   3 2.86
                             4 2.86   4 2.86   3 2.86   3 2.86
   3  0.500  0.000  0.500-   1 2.86   4 2.86   1 2.86   4 2.86   2 2.86   4 2.86   4 2.86   1 2.86
                             2 2.86   1 2.86   2 2.86   2 2.86
   4  0.500  0.500  0.000-   2 2.86   3 2.86   2 2.86   3 2.86   1 2.86   3 2.86   3 2.86   1 2.86
                             2 2.86   2 2.86   1 2.86   1 2.86
 
  LATTYP: Found a simple cubic cell.
 ALAT       =     4.0436897231
  
  Lattice vectors:
  
 A1 = (   4.0436897231,   0.0000000000,   0.0000000000)
 A2 = (   0.0000000000,   4.0436897231,   0.0000000000)
 A3 = (   0.0000000000,   0.0000000000,   4.0436897231)


Analysis of symmetry for initial positions (statically):
=====================================================================
 Subroutine PRICEL returns following result:
 
  LATTYP: Found a face centered cubic cell.
 ALAT       =     4.0436897231
  
  Lattice vectors:
  
 A1 = (   2.0218448615,  -2.0218448615,   0.0000000000)
 A2 = (   2.0218448615,   0.0000000000,   2.0218448615)
 A3 = (  -0.0000000000,  -2.0218448615,   2.0218448615)
 
   4 primitive cells build up your supercell.
 

 Routine SETGRP: Setting up the symmetry group for a 
 simple cubic supercell.


 Subroutine GETGRP returns: Found 48 space group operations
 (whereof 48 operations were pure point group operations)
 out of a pool of 48 trial point group operations.


The static configuration has the point symmetry O_h .


Analysis of symmetry for dynamics (positions and initial velocities):
=====================================================================
 Subroutine PRICEL returns following result:
 
  LATTYP: Found a face centered cubic cell.
 ALAT       =     4.0436897231
  
  Lattice vectors:
  
 A1 = (   2.0218448615,  -2.0218448615,   0.0000000000)
 A2 = (   2.0218448615,   0.0000000000,   2.0218448615)
 A3 = (  -0.0000000000,  -2.0218448615,   2.0218448615)
 
   4 primitive cells build up your supercell.
 

 Routine SETGRP: Setting up the symmetry group for a 
 simple cubic supercell.


 Subroutine GETGRP returns: Found 48 space group operations
 (whereof 48 operations were pure point group operations)
 out of a pool of 48 trial point group operations.


The dynamic configuration has the point symmetry O_h .


 Subroutine INISYM returns: Found 48 space group operations
 (whereof 48 operations are pure point group operations),
 and found     4 'primitive' translations


----------------------------------------------------------------------------------------

                                     Primitive cell                                     

  volume of cell :      16.5300

  direct lattice vectors                    reciprocal lattice vectors
     2.021844862 -2.021844862  0.000000000     0.247298895 -0.247298895 -0.247298895
     2.021844862  0.000000000  2.021844862     0.247298895  0.247298895  0.247298895
    -0.000000000 -2.021844862  2.021844862    -0.247298895 -0.247298895  0.247298895

  length of vectors
     2.859320424  2.859320424  2.859320424     0.428334251  0.428334251  0.428334251

  position of ions in fractional coordinates (direct lattice)
     0.000000000  0.000000000  0.000000000

  ion indices of the primitive-cell ions
   primitive index   ion index
                 1           1

----------------------------------------------------------------------------------------

 
 
 KPOINTS: pymatgen with grid density = 6000 / numb

Automatic generation of k-mesh.
 Grid dimensions read from file:
 generate k-points for:   11   11   11

 Generating k-lattice:

  Cartesian coordinates                     Fractional coordinates (reciprocal lattice)
     0.022481718 -0.000000000  0.000000000     0.090909091  0.000000000  0.000000000
     0.000000000  0.022481718  0.000000000     0.000000000  0.090909091  0.000000000
    -0.000000000 -0.000000000  0.022481718     0.000000000  0.000000000  0.090909091

  Length of vectors
     0.022481718  0.022481718  0.022481718

  Shift w.r.t. Gamma in fractional coordinates (k-lattice)
     0.000000000  0.000000000  0.000000000

 TETIRR: Found    651 inequivalent tetrahedra from     7986
 
 Subroutine IBZKPT returns following result:
 ===========================================
 
 Found     56 irreducible k-points:
 
 Following reciprocal coordinates:
            Coordinates               Weight
  0.000000  0.000000  0.000000      1.000000
  0.090909  0.000000  0.000000      6.000000
  0.181818  0.000000  0.000000      6.000000
  0.272727  0.000000  0.000000      6.000000
  0.363636  0.000000  0.000000      6.000000
  0.454545  0.000000  0.000000      6.000000
  0.090909  0.090909  0.000000     12.000000
  0.181818  0.090909  0.000000     24.000000
  0.272727  0.090909  0.000000     24.000000
  0.363636  0.090909  0.000000     24.000000
  0.454545  0.090909  0.000000     24.000000
  0.181818  0.181818  0.000000     12.000000
  0.272727  0.181818  0.000000     24.000000
  0.363636  0.181818  0.000000     24.000000
  0.454545  0.181818  0.000000     24.000000
  0.272727  0.272727  0.000000     12.000000
  0.363636  0.272727  0.000000     24.000000
  0.454545  0.272727  0.000000     24.000000
  0.363636  0.363636  0.000000     12.000000
  0.454545  0.363636  0.000000     24.000000
  0.454545  0.454545  0.000000     12.000000
  0.090909  0.090909  0.090909      8.000000
  0.181818  0.090909  0.090909     24.000000
  0.272727  0.090909  0.090909     24.000000
  0.363636  0.090909  0.090909     24.000000
  0.454545  0.090909  0.090909     24.000000
  0.181818  0.181818  0.090909     24.000000
  0.272727  0.181818  0.090909     48.000000
  0.363636  0.181818  0.090909     48.000000
  0.454545  0.181818  0.090909     48.000000
  0.272727  0.272727  0.090909     24.000000
  0.363636  0.272727  0.090909     48.000000
  0.454545  0.272727  0.090909     48.000000
  0.363636  0.363636  0.090909     24.000000
  0.454545  0.363636  0.090909     48.000000
  0.454545  0.454545  0.090909     24.000000
  0.181818  0.181818  0.181818      8.000000
  0.272727  0.181818  0.181818     24.000000
  0.363636  0.181818  0.181818     24.000000
  0.454545  0.181818  0.181818     24.000000
  0.272727  0.272727  0.181818     24.000000
  0.363636  0.272727  0.181818     48.000000
  0.454545  0.272727  0.181818     48.000000
  0.363636  0.363636  0.181818     24.000000
  0.454545  0.363636  0.181818     48.000000
  0.454545  0.454545  0.181818     24.000000
  0.272727  0.272727  0.272727      8.000000
  0.363636  0.272727  0.272727     24.000000
  0.454545  0.272727  0.272727     24.000000
  0.363636  0.363636  0.272727     24.000000
  0.454545  0.363636  0.272727     48.000000
  0.454545  0.454545  0.272727     24.000000
  0.363636  0.363636  0.363636      8.000000
  0.454545  0.363636  0.363636     24.000000
  0.454545  0.454545  0.363636     24.000000
  0.454545  0.454545  0.454545      8.000000
 
 Following cartesian coordinates:
            Coordinates               Weight
  0.000000  0.000000  0.000000      1.000000
  0.022482  0.000000  0.000000      6.000000
  0.044963  0.000000  0.000000      6.000000
  0.067445  0.000000  0.000000      6.000000
  0.089927  0.000000  0.000000      6.000000
  0.112409  0.000000  0.000000      6.000000
  0.022482  0.022482  0.000000     12.000000
  0.044963  0.022482  0.000000     24.000000
  0.067445  0.022482  0.000000     24.000000
  0.089927  0.022482  0.000000     24.000000
  0.112409  0.022482  0.000000     24.000000
  0.044963  0.044963  0.000000     12.000000
  0.067445  0.044963  0.000000     24.000000
  0.089927  0.044963  0.000000     24.000000
  0.112409  0.044963  0.000000     24.000000
  0.067445  0.067445  0.000000     12.000000
  0.089927  0.067445  0.000000     24.000000
  0.112409  0.067445  0.000000     24.000000
  0.089927  0.089927  0.000000     12.000000
  0.112409  0.089927  0.000000     24.000000
  0.112409  0.112409  0.000000     12.000000
  0.022482  0.022482  0.022482      8.000000
  0.044963  0.022482  0.022482     24.000000
  0.067445  0.022482  0.022482     24.000000
  0.089927  0.022482  0.022482     24.000000
  0.112409  0.022482  0.022482     24.000000
  0.044963  0.044963  0.022482     24.000000
  0.067445  0.044963  0.022482     48.000000
  0.089927  0.044963  0.022482     48.000000
  0.112409  0.044963  0.022482     48.000000
  0.067445  0.067445  0.022482     24.000000
  0.089927  0.067445  0.022482     48.000000
  0.112409  0.067445  0.022482     48.000000
  0.089927  0.089927  0.022482     24.000000
  0.112409  0.089927  0.022482     48.000000
  0.112409  0.112409  0.022482     24.000000
  0.044963  0.044963  0.044963      8.000000
  0.067445  0.044963  0.044963     24.000000
  0.089927  0.044963  0.044963     24.000000
  0.112409  0.044963  0.044963     24.000000
  0.067445  0.067445  0.044963     24.000000
  0.089927  0.067445  0.044963     48.000000
  0.112409  0.067445  0.044963     48.000000
  0.089927  0.089927  0.044963     24.000000
  0.112409  0.089927  0.044963     48.000000
  0.112409  0.112409  0.044963     24.000000
  0.067445  0.067445  0.067445      8.000000
  0.089927  0.067445  0.067445     24.000000
  0.112409  0.067445  0.067445     24.000000
  0.089927  0.089927  0.067445     24.000000
  0.112409  0.089927  0.067445     48.000000
  0.112409  0.112409  0.067445     24.000000
  0.089927  0.089927  0.089927      8.000000
  0.112409  0.089927  0.089927     24.000000
  0.112409  0.112409  0.089927     24.000000
  0.112409  0.112409  0.112409      8.000000
 


--------------------------------------------------------------------------------------------------------




 Dimension of arrays:
   k-points           NKPTS =     56   k-points in BZ     NKDIM =     56   number of bands    NBANDS=    128
   number of dos      NEDOS =    301   number of ions     NIONS =      4
   non local maximal  LDIM  =      4   non local SUM 2l+1 LMDIM =      8
   total plane-waves  NPLWV =  27000
   max r-space proj   IRMAX =      1   max aug-charges    IRDMAX=  16090
   dimension x,y,z NGX =    30 NGY =   30 NGZ =   30
   dimension x,y,z NGXF=    60 NGYF=   60 NGZF=   60
   support grid    NGXF=    60 NGYF=   60 NGZF=   60
   ions per type =               4
   NGX,Y,Z   is equivalent  to a cutoff of  12.33, 12.33, 12.33 a.u.
   NGXF,Y,Z  is equivalent  to a cutoff of  24.67, 24.67, 24.67 a.u.

 SYSTEM =  unknown system                          
 POSCAR =  Al4                                     

 Startparameter for this run:
   NWRITE =      2    write-flag & timer
   PREC   = accura    normal or accurate (medium, high low for compatibility)
   ISTART =      0    job   : 0-new  1-cont  2-samecut
   ICHARG =      2    charge: 1-file 2-atom 10-const
   ISPIN  =      1    spin polarized calculation?
   LNONCOLLINEAR =      F non collinear calculations
   LSORBIT =      F    spin-orbit coupling
   INIWAV =      1    electr: 0-lowe 1-rand  2-diag
   LASPH  =      F    aspherical Exc in radial PAW
 Electronic Relaxation 1
   ENCUT  =  520.0 eV  38.22 Ry    6.18 a.u.   7.52  7.52  7.52*2*pi/ulx,y,z
   ENINI  =  520.0     initial cutoff
   ENAUG  =  291.1 eV  augmentation charge cutoff
   NELM   =    200;   NELMIN=  2; NELMDL=  0     # of ELM steps 
   EDIFF  = 0.1E-05   stopping-criterion for ELM
   LREAL  =      F    real-space projection
   NLSPLINE    = F    spline interpolate recip. space projectors
   LCOMPAT=      F    compatible to vasp.4.4
   GGA_COMPAT  = T    GGA compatible to vasp.4.4-vasp.4.6
   LMAXPAW     = -100 max onsite density
   LMAXMIX     =    2 max onsite mixed and CHGCAR
   VOSKOWN=      0    Vosko Wilk Nusair interpolation
   ROPT   =    0.00000
 Ionic relaxation
   EDIFFG = -.1E-01   stopping-criterion for IOM
   NSW    =      0    number of steps for IOM
   NBLOCK =      1;   KBLOCK =      1    inner block; outer block 
   IBRION =     -1    ionic relax: 0-MD 1-quasi-New 2-CG
   NFREE  =      0    steps in history (QN), initial steepest desc. (CG)
   ISIF   =      2    stress and relaxation
   IWAVPR =     10    prediction:  0-non 1-charg 2-wave 3-comb
   ISYM   =      2    0-nonsym 1-usesym 2-fastsym
   LCORR  =      T    Harris-Foulkes like correction to forces

   POTIM  = 0.5000    time-step for ionic-motion
   TEIN   =    0.0    initial temperature
   TEBEG  =    0.0;   TEEND  =   0.0 temperature during run
   SMASS  =  -3.00    Nose mass-parameter (am)
   estimated Nose-frequenzy (Omega)   =  0.10E-29 period in steps = 0.13E+47 mass=  -0.374E-27a.u.
   SCALEE = 1.0000    scale energy and forces
   NPACO  =    256;   APACO  = 10.0  distance and # of slots for P.C.
   PSTRESS=    0.0 pullay stress

  Mass of Ions in am
   POMASS =  26.98
  Ionic Valenz
   ZVAL   =   3.00
  Atomic Wigner-Seitz radii
   RWIGS  =  -1.00
  virtual crystal weights 
   VCA    =   1.00
   NELECT =      12.0000    total number of electrons
   NUPDOWN=      -1.0000    fix difference up-down

 DOS related values:
   EMIN   =  10.00;   EMAX   =-10.00  energy-range for DOS
   EFERMI =   0.00;   METHOD = LEGACY      
   ISMEAR =    -5;   SIGMA  =   0.20  broadening in eV -4-tet -1-fermi 0-gaus

 Electronic relaxation 2 (details)
   IALGO  =     38    algorithm
   LDIAG  =      T    sub-space diagonalisation (order eigenvalues)
   LSUBROT=      F    optimize rotation matrix (better conditioning)
   TURBO    =      0    0=normal 1=particle mesh
   IRESTART =      0    0=no restart 2=restart with 2 vectors
   NREBOOT  =      0    no. of reboots
   NMIN     =      0    reboot dimension
   EREF     =   0.00    reference energy to select bands
   IMIX   =      4    mixing-type and parameters
     AMIX     =   0.40;   BMIX     =  1.00
     AMIX_MAG =   1.60;   BMIX_MAG =  1.00
     AMIN     =   0.10
     WC   =   100.;   INIMIX=   1;  MIXPRE=   1;  MAXMIX= -45

 Intra band minimization:
   WEIMIN = 0.0000     energy-eigenvalue tresh-hold
   EBREAK =  0.20E-08  absolut break condition
   DEPER  =   0.30     relativ break condition  

   TIME   =   0.40     timestep for ELM

  volume/ion in A,a.u.               =      16.53       111.55
  Fermi-wavevector in a.u.,A,eV,Ry     =   0.926881  1.751552 11.688885  0.859109
  Thomas-Fermi vector in A             =   2.052891
 
 Write flags
   LWAVE        =      F    write WAVECAR
   LDOWNSAMPLE  =      F    k-point downsampling of WAVECAR
   LCHARG       =      F    write CHGCAR
   LVTOT        =      F    write LOCPOT, total local potential
   LVHAR        =      F    write LOCPOT, Hartree potential only
   WRT_POTENTIAL= false  ! write potential to hdf5 file
   LELF         =      F    write electronic localiz. function (ELF)
   LORBIT       =      0    0 simple, 1 ext, 2 COOP (PROOUT), +10 PAW based schemes


 Dipole corrections
   LMONO      =      F    monopole corrections only (constant potential shift)
   LDIPOL     =      F    correct potential (dipole corrections)
   IDIPOL     =      0    1-x, 2-y, 3-z, 4-all directions 
   EPSILON    =  1.0000000 bulk dielectric constant
   LVACPOTAV  =      F  vacuum potentials using an averaging scheme for the charge density
   VACPOTFLAT =  0.1000000 required flatness to determine vacuum potential
 Exchange correlation treatment:
   GGA     = PE    functional components
   XC_C    = 1    coefficients multiplying the functional components
   LIBXC   =     F    Libxc                    
   VOSKOWN =     0    Vosko Wilk Nusair interpolation
   LHFCALC =     F    Hartree Fock is set to
   LHFONE  =     F    Hartree Fock one center treatment
   AEXX    =    0.0000 exact exchange contribution

 Parameters of functionals:
   PE:
     No parameter
 
 Van der Waals corrections
   IVDW    =     0    specifies the selected vdW correction

 Linear response parameters
   LEPSILON=     F    determine dielectric tensor
   LRPA    =     F    only Hartree local field effects (RPA)
   LNABLA  =     F    use nabla operator in PAW spheres
   LVEL    =     F    velocity operator in full k-point grid
   CSHIFT  =0.1000    complex shift for real part using Kramers Kronig
   OMEGAMAX=  -1.0    maximum frequency
   DEG_THRESHOLD= 0.2000000E-02 threshold for treating states as degnerate
   RTIME   =   -0.100 relaxation time in fs
  (WPLASMAI=    0.000 imaginary part of plasma frequency in eV, 0.658/RTIME)
   DFIELD  = 0.0000000 0.0000000 0.0000000 field for delta impulse in time
 
  Optional k-point grid parameters
   LKPOINTS_OPT  =     F    use optional k-point grid
   KPOINTS_OPT_MODE=     1    mode for optional k-point grid
 
 Orbital magnetization related:
   ORBITALMAG=     F  switch on orbital magnetization
   LCHIMAG   =     F  perturbation theory with respect to B field
   DQ        =  0.001000  dq finite difference perturbation B field
   LLRAUG    =     F  two centre corrections for induced B field
   LBONE     =     F  B-component reconstruction in AE one-centre
   LVGVCALC  =     T  calculate vGv susceptibility
   LVGVAPPL  =     F  apply vGv susceptibility instead of pGv for G=0

 Random number generation:
   RANDOM_GENERATOR = DEFAULT
   PCG_SEED         = not used


--------------------------------------------------------------------------------------------------------


 Static calculation
 charge density and potential will be updated during run
 non-spin polarized calculation
 Variant of blocked Davidson
 Davidson routine will perform the subspace rotation
 perform sub-space diagonalisation
    after iterative eigenvector-optimisation
 modified Broyden-mixing scheme, WC =      100.0
 initial mixing is a Kerker type mixing with AMIX =  0.4000 and BMIX =      1.0000
 Hartree-type preconditioning will be used
 using additional bands          122
 reciprocal scheme for non local part
 use partial core corrections
 calculate Harris-corrections to forces 
   (improved forces if not selfconsistent)
 use gradient corrections 
 use of overlap-Matrix (Vanderbilt PP)
 Fermi weights with tetrahedron method with Bloechl corrections


--------------------------------------------------------------------------------------------------------


  energy-cutoff  :      520.00
  volume of cell :       66.12
      direct lattice vectors                 reciprocal lattice vectors
     4.043689723  0.000000000  0.000000000     0.247298895 -0.000000000  0.000000000
     0.000000000  4.043689723  0.000000000     0.000000000  0.247298895  0.000000000
     0.000000000  0.000000000  4.043689723    -0.000000000 -0.000000000  0.247298895

  length of vectors
     4.043689723  4.043689723  4.043689723     0.247298895  0.247298895  0.247298895


 
 k-points in units of 2pi/SCALE and weight: pymatgen with grid density = 6000 / numb
   0.00000000  0.00000000  0.00000000       0.001
   0.02248172  0.00000000  0.00000000       0.005
   0.04496344  0.00000000  0.00000000       0.005
   0.06744515  0.00000000  0.00000000       0.005
   0.08992687  0.00000000  0.00000000       0.005
   0.11240859  0.00000000  0.00000000       0.005
   0.02248172  0.02248172  0.00000000       0.009
   0.04496344  0.02248172  0.00000000       0.018
   0.06744515  0.02248172  0.00000000       0.018
   0.08992687  0.02248172  0.00000000       0.018
   0.11240859  0.02248172  0.00000000       0.018
   0.04496344  0.04496344  0.00000000       0.009
   0.06744515  0.04496344  0.00000000       0.018
   0.08992687  0.04496344  0.00000000       0.018
   0.11240859  0.04496344  0.00000000       0.018
   0.06744515  0.06744515  0.00000000       0.009
   0.08992687  0.06744515  0.00000000       0.018
   0.11240859  0.06744515  0.00000000       0.018
   0.08992687  0.08992687  0.00000000       0.009
   0.11240859  0.08992687  0.00000000       0.018
   0.11240859  0.11240859  0.00000000       0.009
   0.02248172  0.02248172  0.02248172       0.006
   0.04496344  0.02248172  0.02248172       0.018
   0.06744515  0.02248172  0.02248172       0.018
   0.08992687  0.02248172  0.02248172       0.018
   0.11240859  0.02248172  0.02248172       0.018
   0.04496344  0.04496344  0.02248172       0.018
   0.06744515  0.04496344  0.02248172       0.036
   0.08992687  0.04496344  0.02248172       0.036
   0.11240859  0.04496344  0.02248172       0.036
   0.06744515  0.06744515  0.02248172       0.018
   0.08992687  0.06744515  0.02248172       0.036
   0.11240859  0.06744515  0.02248172       0.036
   0.08992687  0.08992687  0.02248172       0.018
   0.11240859  0.08992687  0.02248172       0.036
   0.11240859  0.11240859  0.02248172       0.018
   0.04496344  0.04496344  0.04496344       0.006
   0.06744515  0.04496344  0.04496344       0.018
   0.08992687  0.04496344  0.04496344       0.018
   0.11240859  0.04496344  0.04496344       0.018
   0.06744515  0.06744515  0.04496344       0.018
   0.08992687  0.06744515  0.04496344       0.036
   0.11240859  0.06744515  0.04496344       0.036
   0.08992687  0.08992687  0.04496344       0.018
   0.11240859  0.08992687  0.04496344       0.036
   0.11240859  0.11240859  0.04496344       0.018
   0.06744515  0.06744515  0.06744515       0.006
   0.08992687  0.06744515  0.06744515       0.018
   0.11240859  0.06744515  0.06744515       0.018
   0.08992687  0.08992687  0.06744515       0.018
   0.11240859  0.08992687  0.06744515       0.036
   0.11240859  0.11240859  0.06744515       0.018
   0.08992687  0.08992687  0.08992687       0.006
   0.11240859  0.08992687  0.08992687       0.018
   0.11240859  0.11240859  0.08992687       0.018
   0.11240859  0.11240859  0.11240859       0.006
 
 k-points in reciprocal lattice and weights: pymatgen with grid density = 6000 / numb
   0.00000000  0.00000000  0.00000000       0.001
   0.09090909  0.00000000  0.00000000       0.005
   0.18181818  0.00000000  0.00000000       0.005
   0.27272727  0.00000000  0.00000000       0.005
   0.36363636  0.00000000  0.00000000       0.005
   0.45454545  0.00000000  0.00000000       0.005
   0.09090909  0.09090909  0.00000000       0.009
   0.18181818  0.09090909  0.00000000       0.018
   0.27272727  0.09090909  0.00000000       0.018
   0.36363636  0.09090909  0.00000000       0.018
   0.45454545  0.09090909  0.00000000       0.018
   0.18181818  0.18181818  0.00000000       0.009
   0.27272727  0.18181818  0.00000000       0.018
   0.36363636  0.18181818  0.00000000       0.018
   0.45454545  0.18181818  0.00000000       0.018
   0.27272727  0.27272727  0.00000000       0.009
   0.36363636  0.27272727  0.00000000       0.018
   0.45454545  0.27272727  0.00000000       0.018
   0.36363636  0.36363636  0.00000000       0.009
   0.45454545  0.36363636  0.00000000       0.018
   0.45454545  0.45454545  0.00000000       0.009
   0.09090909  0.09090909  0.09090909       0.006
   0.18181818  0.09090909  0.09090909       0.018
   0.27272727  0.09090909  0.09090909       0.018
   0.36363636  0.09090909  0.09090909       0.018
   0.45454545  0.09090909  0.09090909       0.018
   0.18181818  0.18181818  0.09090909       0.018
   0.27272727  0.18181818  0.09090909       0.036
   0.36363636  0.18181818  0.09090909       0.036
   0.45454545  0.18181818  0.09090909       0.036
   0.27272727  0.27272727  0.09090909       0.018
   0.36363636  0.27272727  0.09090909       0.036
   0.45454545  0.27272727  0.09090909       0.036
   0.36363636  0.36363636  0.09090909       0.018
   0.45454545  0.36363636  0.09090909       0.036
   0.45454545  0.45454545  0.09090909       0.018
   0.18181818  0.18181818  0.18181818       0.006
   0.27272727  0.18181818  0.18181818       0.018
   0.36363636  0.18181818  0.18181818       0.018
   0.45454545  0.18181818  0.18181818       0.018
   0.27272727  0.27272727  0.18181818       0.018
   0.36363636  0.27272727  0.18181818       0.036
   0.45454545  0.27272727  0.18181818       0.036
   0.36363636  0.36363636  0.18181818       0.018
   0.45454545  0.36363636  0.18181818       0.036
   0.45454545  0.45454545  0.18181818       0.018
   0.27272727  0.27272727  0.27272727       0.006
   0.36363636  0.27272727  0.27272727       0.018
   0.45454545  0.27272727  0.27272727       0.018
   0.36363636  0.36363636  0.27272727       0.018
   0.45454545  0.36363636  0.27272727       0.036
   0.45454545  0.45454545  0.27272727       0.018
   0.36363636  0.36363636  0.36363636       0.006
   0.45454545  0.36363636  0.36363636       0.018
   0.45454545  0.45454545  0.36363636       0.018
   0.45454545  0.45454545  0.45454545       0.006
 
 position of ions in fractional coordinates (direct lattice) 
   0.00000000  0.00000000  0.00000000
   0.00000000  0.50000000  0.50000000
   0.50000000  0.00000000  0.50000000
   0.50000000  0.50000000  0.00000000
 
 position of ions in cartesian coordinates  (Angst):
   0.00000000  0.00000000  0.00000000
   0.00000000  2.02184486  2.02184486
   2.02184486  0.00000000  2.02184486
   2.02184486  2.02184486  0.00000000
 


--------------------------------------------------------------------------------------------------------


 k-point     1 :   0.0000 0.0000 0.0000  plane waves:    1791
 k-point     2 :   0.0909 0.0000 0.0000  plane waves:    1791
 k-point     3 :   0.1818 0.0000 0.0000  plane waves:    1795
 k-point     4 :   0.2727 0.0000 0.0000  plane waves:    1791
 k-point     5 :   0.3636 0.0000 0.0000  plane waves:    1783
 k-point     6 :   0.4545 0.0000 0.0000  plane waves:    1787
 k-point     7 :   0.0909 0.0909 0.0000  plane waves:    1793
 k-point     8 :   0.1818 0.0909 0.0000  plane waves:    1798
 k-point     9 :   0.2727 0.0909 0.0000  plane waves:    1788
 k-point    10 :   0.3636 0.0909 0.0000  plane waves:    1785
 k-point    11 :   0.4545 0.0909 0.0000  plane waves:    1782
 k-point    12 :   0.1818 0.1818 0.0000  plane waves:    1781
 k-point    13 :   0.2727 0.1818 0.0000  plane waves:    1787
 k-point    14 :   0.3636 0.1818 0.0000  plane waves:    1789
 k-point    15 :   0.4545 0.1818 0.0000  plane waves:    1787
 k-point    16 :   0.2727 0.2727 0.0000  plane waves:    1781
 k-point    17 :   0.3636 0.2727 0.0000  plane waves:    1778
 k-point    18 :   0.4545 0.2727 0.0000  plane waves:    1779
 k-point    19 :   0.3636 0.3636 0.0000  plane waves:    1778
 k-point    20 :   0.4545 0.3636 0.0000  plane waves:    1766
 k-point    21 :   0.4545 0.4545 0.0000  plane waves:    1758
 k-point    22 :   0.0909 0.0909 0.0909  plane waves:    1803
 k-point    23 :   0.1818 0.0909 0.0909  plane waves:    1797
 k-point    24 :   0.2727 0.0909 0.0909  plane waves:    1780
 k-point    25 :   0.3636 0.0909 0.0909  plane waves:    1778
 k-point    26 :   0.4545 0.0909 0.0909  plane waves:    1787
 k-point    27 :   0.1818 0.1818 0.0909  plane waves:    1793
 k-point    28 :   0.2727 0.1818 0.0909  plane waves:    1783
 k-point    29 :   0.3636 0.1818 0.0909  plane waves:    1789
 k-point    30 :   0.4545 0.1818 0.0909  plane waves:    1777
 k-point    31 :   0.2727 0.2727 0.0909  plane waves:    1787
 k-point    32 :   0.3636 0.2727 0.0909  plane waves:    1788
 k-point    33 :   0.4545 0.2727 0.0909  plane waves:    1777
 k-point    34 :   0.3636 0.3636 0.0909  plane waves:    1776
 k-point    35 :   0.4545 0.3636 0.0909  plane waves:    1767
 k-point    36 :   0.4545 0.4545 0.0909  plane waves:    1760
 k-point    37 :   0.1818 0.1818 0.1818  plane waves:    1797
 k-point    38 :   0.2727 0.1818 0.1818  plane waves:    1786
 k-point    39 :   0.3636 0.1818 0.1818  plane waves:    1785
 k-point    40 :   0.4545 0.1818 0.1818  plane waves:    1769
 k-point    41 :   0.2727 0.2727 0.1818  plane waves:    1780
 k-point    42 :   0.3636 0.2727 0.1818  plane waves:    1778
 k-point    43 :   0.4545 0.2727 0.1818  plane waves:    1774
 k-point    44 :   0.3636 0.3636 0.1818  plane waves:    1774
 k-point    45 :   0.4545 0.3636 0.1818  plane waves:    1769
 k-point    46 :   0.4545 0.4545 0.1818  plane waves:    1770
 k-point    47 :   0.2727 0.2727 0.2727  plane waves:    1791
 k-point    48 :   0.3636 0.2727 0.2727  plane waves:    1779
 k-point    49 :   0.4545 0.2727 0.2727  plane waves:    1776
 k-point    50 :   0.3636 0.3636 0.2727  plane waves:    1770
 k-point    51 :   0.4545 0.3636 0.2727  plane waves:    1775
 k-point    52 :   0.4545 0.4545 0.2727  plane waves:    1774
 k-point    53 :   0.3636 0.3636 0.3636  plane waves:    1784
 k-point    54 :   0.4545 0.3636 0.3636  plane waves:    1778
 k-point    55 :   0.4545 0.4545 0.3636  plane waves:    1780
 k-point    56 :   0.4545 0.4545 0.4545  plane waves:    1784

 maximum and minimum number of plane-waves per node :      1803     1758

 maximum number of plane-waves:      1803
 maximum index in each direction: 
   IXMAX=    7   IYMAX=    7   IZMAX=    7
   IXMIN=   -7   IYMIN=   -7   IZMIN=   -7


 serial   3D FFT for wavefunctions
 parallel 3D FFT for charge:
    minimum data exchange during FFTs selected (reduces bandwidth)


 total amount of memory used by VASP MPI-rank0    40378. kBytes
=======================================================================

   base      :      30000. kBytes
   nonl-proj :       7004. kBytes
   fftplans  :        256. kBytes
   grid      :       1271. kBytes
   one-center:         12. kBytes
   wavefun   :       1835. kBytes
 
     INWAV:  cpu time      0.0000: real time      0.0000
 Broyden mixing: mesh for mixing (old mesh)
   NGX = 15   NGY = 15   NGZ = 15
  (NGX  = 60   NGY  = 60   NGZ  = 60)
  gives a total of   3375 points

 initial charge density was supplied:
 charge density of overlapping atoms calculated
 number of electron      12.0000000 magnetization 
 keeping initial charge density in first step


--------------------------------------------------------------------------------------------------------


 Maximum index for augmentation-charges          749 (set IRDMAX)


--------------------------------------------------------------------------------------------------------


 First call to EWALD:  gamma=   0.438
 Maximum number of real-space cells 3x 3x 3
 Maximum number of reciprocal cells 3x 3x 3

    FEWALD:  cpu time      0.0031: real time      0.0032


--------------------------------------- Ionic step        1  -------------------------------------------




--------------------------------------- Iteration      1(   1)  ---------------------------------------


    POTLOK:  cpu time      0.0190: real time      0.1696
    SETDIJ:  cpu time      0.0087: real time      0.0090
     EDDAV:  cpu time     31.3121: real time     31.4536
 BZINTS: Fermi energy:    8.085684;   12.000000 electrons
         Band energy: 0.437991E+02;  BLOECHL correction:   -0.184811
       DOS:  cpu time      0.0514: real time      0.0526
    --------------------------------------------
      LOOP:  cpu time     31.3913: real time     31.6848

 eigenvalue-minimisations  : 19840
 total energy-change (2. order) :-0.1430687E+02  (-0.4579139E+03)
 number of electron      12.0000000 magnetization 
 augmentation part       12.0000000 magnetization 

 Free energy of the ion-electron system (eV)
  ---------------------------------------------------
  alpha Z        PSCENC =        -0.81277799
  Ewald energy   TEWEN  =      -293.88473869
  -Hartree energ DENC   =        -0.40832449
  -exchange      EXHF   =         0.00000000
  -V(xc)+E(xc)   XCENC  =      -104.97206531
  PAW double counting   =       264.80062850     -136.98248303
  entropy T*S    EENTRO =         0.00000000
  eigenvalues    EBANDS =        43.79906697
  atomic energy  EATOM  =       214.15382826
  Solvation  Ediel_sol  =         0.00000000
  ---------------------------------------------------
  free energy    TOTEN  =       -14.30686578 eV

  energy without entropy =      -14.30686578  energy(sigma->0) =      -14.30686578


--------------------------------------------------------------------------------------------------------




--------------------------------------- Iteration      1(   2)  ---------------------------------------


     EDDAV:  cpu time     39.6599: real time     39.8414
 BZINTS: Fermi energy:    7.954874;   12.000000 electrons
         Band energy: 0.430349E+02;  BLOECHL correction:   -0.182359
       DOS:  cpu time      0.0332: real time      0.0334
    --------------------------------------------
      LOOP:  cpu time     39.6931: real time     39.8748

 eigenvalue-minimisations  : 22144
 total energy-change (2. order) :-0.7641626E+00  (-0.7609858E+00)
 number of electron      12.0000000 magnetization 
 augmentation part       12.0000000 magnetization 

 Free energy of the ion-electron system (eV)
  ---------------------------------------------------
  alpha Z        PSCENC =        -0.81277799
  Ewald energy   TEWEN  =      -293.88473869
  -Hartree energ DENC   =        -0.40832449
  -exchange      EXHF   =         0.00000000
  -V(xc)+E(xc)   XCENC  =      -104.97206531
  PAW double counting   =       264.80062850     -136.98248303
  entropy T*S    EENTRO =         0.00000000
  eigenvalues    EBANDS =        43.03490436
  atomic energy  EATOM  =       214.15382826
  Solvation  Ediel_sol  =         0.00000000
  ---------------------------------------------------
  free energy    TOTEN  =       -15.07102838 eV

  energy without entropy =      -15.07102838  energy(sigma->0) =      -15.07102838


--------------------------------------------------------------------------------------------------------




--------------------------------------- Iteration      1(   3)  ---------------------------------------


     EDDAV:  cpu time     18.5990: real time     18.6946
 BZINTS: Fermi energy:    7.954853;   12.000000 electrons
         Band energy: 0.430348E+02;  BLOECHL correction:   -0.182360
       DOS:  cpu time      0.0328: real time      0.0331
    --------------------------------------------
      LOOP:  cpu time     18.6318: real time     18.7277

 eigenvalue-minimisations  : 14848
 total energy-change (2. order) :-0.1088342E-03  (-0.1086109E-03)
 number of electron      12.0000000 magnetization 
 augmentation part       12.0000000 magnetization 

 Free energy of the ion-electron system (eV)
  ---------------------------------------------------
  alpha Z        PSCENC =        -0.81277799
  Ewald energy   TEWEN  =      -293.88473869
  -Hartree energ DENC   =        -0.40832449
  -exchange      EXHF   =         0.00000000
  -V(xc)+E(xc)   XCENC  =      -104.97206531
  PAW double counting   =       264.80062850     -136.98248303
  entropy T*S    EENTRO =         0.00000000
  eigenvalues    EBANDS =        43.03479553
  atomic energy  EATOM  =       214.15382826
  Solvation  Ediel_sol  =         0.00000000
  ---------------------------------------------------
  free energy    TOTEN  =       -15.07113722 eV

  energy without entropy =      -15.07113722  energy(sigma->0) =      -15.07113722


--------------------------------------------------------------------------------------------------------




--------------------------------------- Iteration      1(   4)  ---------------------------------------


     EDDAV:  cpu time     69.6939: real time     70.0040
 BZINTS: Fermi energy:    7.954853;   12.000000 electrons
         Band energy: 0.430348E+02;  BLOECHL correction:   -0.182360
       DOS:  cpu time      0.0329: real time      0.0333
    --------------------------------------------
      LOOP:  cpu time     69.7268: real time     70.0373

 eigenvalue-minimisations  : 28160
 total energy-change (2. order) :-0.3527759E-08  (-0.2226438E-08)
 number of electron      12.0000000 magnetization 
 augmentation part       12.0000000 magnetization 

 Free energy of the ion-electron system (eV)
  ---------------------------------------------------
  alpha Z        PSCENC =        -0.81277799
  Ewald energy   TEWEN  =      -293.88473869
  -Hartree energ DENC   =        -0.40832449
  -exchange      EXHF   =         0.00000000
  -V(xc)+E(xc)   XCENC  =      -104.97206531
  PAW double counting   =       264.80062850     -136.98248303
  entropy T*S    EENTRO =         0.00000000
  eigenvalues    EBANDS =        43.03479553
  atomic energy  EATOM  =       214.15382826
  Solvation  Ediel_sol  =         0.00000000
  ---------------------------------------------------
  free energy    TOTEN  =       -15.07113722 eV

  energy without entropy =      -15.07113722  energy(sigma->0) =      -15.07113722


--------------------------------------------------------------------------------------------------------




--------------------------------------- Iteration      1(   5)  ---------------------------------------


     EDDAV:  cpu time     19.8410: real time     19.9430
 BZINTS: Fermi energy:    7.954853;   12.000000 electrons
         Band energy: 0.430348E+02;  BLOECHL correction:   -0.182360
       DOS:  cpu time      0.0329: real time      0.0333
    CHARGE:  cpu time      0.0378: real time      0.0387
    MIXING:  cpu time      0.0082: real time      0.0085
    --------------------------------------------
      LOOP:  cpu time     19.9199: real time     20.0235

 eigenvalue-minimisations  : 14848
 total energy-change (2. order) : 0.6027108E-09  ( 0.2548366E-12)
 number of electron      12.0000000 magnetization 
 augmentation part       -0.1480185 magnetization 

 Broyden mixing:
  rms(total) = 0.26059E+00    rms(broyden)= 0.26059E+00
  rms(prec ) = 0.47129E+00
  weight for this iteration     100.00

 Free energy of the ion-electron system (eV)
  ---------------------------------------------------
  alpha Z        PSCENC =        -0.81277799
  Ewald energy   TEWEN  =      -293.88473869
  -Hartree energ DENC   =        -0.40832449
  -exchange      EXHF   =         0.00000000
  -V(xc)+E(xc)   XCENC  =      -104.97206531
  PAW double counting   =       264.80062850     -136.98248303
  entropy T*S    EENTRO =         0.00000000
  eigenvalues    EBANDS =        43.03479553
  atomic energy  EATOM  =       214.15382826
  Solvation  Ediel_sol  =         0.00000000
  ---------------------------------------------------
  free energy    TOTEN  =       -15.07113722 eV

  energy without entropy =      -15.07113722  energy(sigma->0) =      -15.07113722


--------------------------------------------------------------------------------------------------------




--------------------------------------- Iteration      1(   6)  ---------------------------------------


    POTLOK:  cpu time      0.0218: real time      0.0275
    SETDIJ:  cpu time      0.0011: real time      0.0011
     EDDAV:  cpu time     27.2990: real time     27.4249
 BZINTS: Fermi energy:    7.941560;   12.000000 electrons
         Band energy: 0.428911E+02;  BLOECHL correction:   -0.182611
       DOS:  cpu time      0.0332: real time      0.0335
    CHARGE:  cpu time      0.0270: real time      0.0271
    MIXING:  cpu time      0.0037: real time      0.0037
    --------------------------------------------
      LOOP:  cpu time     27.3858: real time     27.5180

 eigenvalue-minimisations  : 17280
 total energy-change (2. order) : 0.5191798E-01  (-0.6700722E-03)
 number of electron      12.0000000 magnetization 
 augmentation part       -0.1501726 magnetization 

 Broyden mixing:
  rms(total) = 0.15160E+00    rms(broyden)= 0.15160E+00
  rms(prec ) = 0.28869E+00
  weight for this iteration     100.00

 eigenvalues of (default mixing * dielectric matrix)
  average eigenvalue GAMMA=   2.3361
  2.3361

 Free energy of the ion-electron system (eV)
  ---------------------------------------------------
  alpha Z        PSCENC =        -0.81277799
  Ewald energy   TEWEN  =      -293.88473869
  -Hartree energ DENC   =        -0.34193129
  -exchange      EXHF   =         0.00000000
  -V(xc)+E(xc)   XCENC  =      -104.83126398
  PAW double counting   =       378.87073580     -251.06421401
  entropy T*S    EENTRO =         0.00000000
  eigenvalues    EBANDS =        42.89114267
  atomic energy  EATOM  =       214.15382826
  Solvation  Ediel_sol  =         0.00000000
  ---------------------------------------------------
  free energy    TOTEN  =       -15.01921924 eV

  energy without entropy =      -15.01921924  energy(sigma->0) =      -15.01921924


--------------------------------------------------------------------------------------------------------




--------------------------------------- Iteration      1(   7)  ---------------------------------------


    POTLOK:  cpu time      0.0252: real time      0.0262
    SETDIJ:  cpu time      0.0011: real time      0.0011
     EDDAV:  cpu time     35.1858: real time     35.3423
 BZINTS: Fermi energy:    7.926297;   12.000000 electrons
         Band energy: 0.427399E+02;  BLOECHL correction:   -0.183091
       DOS:  cpu time      0.0514: real time      0.0523
    CHARGE:  cpu time      0.0951: real time      0.0955
    MIXING:  cpu time      0.0025: real time      0.0026
    --------------------------------------------
      LOOP:  cpu time     35.3611: real time     35.5201

 eigenvalue-minimisations  : 19840
 total energy-change (2. order) : 0.3755783E-01  (-0.1910463E-02)
 number of electron      12.0000000 magnetization 
 augmentation part       -0.1542634 magnetization 

 Broyden mixing:
  rms(total) = 0.26941E-01    rms(broyden)= 0.26941E-01
  rms(prec ) = 0.29192E-01
  weight for this iteration     100.00

 eigenvalues of (default mixing * dielectric matrix)
  average eigenvalue GAMMA=   2.8563
  2.8563  2.8563

 Free energy of the ion-electron system (eV)
  ---------------------------------------------------
  alpha Z        PSCENC =        -0.81277799
  Ewald energy   TEWEN  =      -293.88473869
  -Hartree energ DENC   =        -0.40352087
  -exchange      EXHF   =         0.00000000
  -V(xc)+E(xc)   XCENC  =      -104.55586441
  PAW double counting   =       605.25009485     -477.46863120
  entropy T*S    EENTRO =         0.00000000
  eigenvalues    EBANDS =        42.73994865
  atomic energy  EATOM  =       214.15382826
  Solvation  Ediel_sol  =         0.00000000
  ---------------------------------------------------
  free energy    TOTEN  =       -14.98166141 eV

  energy without entropy =      -14.98166141  energy(sigma->0) =      -14.98166141


--------------------------------------------------------------------------------------------------------




--------------------------------------- Iteration      1(   8)  ---------------------------------------


    POTLOK:  cpu time      0.0204: real time      0.0260
    SETDIJ:  cpu time      0.0010: real time      0.0010
     EDDAV:  cpu time     31.8010: real time     31.9444
 BZINTS: Fermi energy:    7.926772;   12.000000 electrons
         Band energy: 0.427477E+02;  BLOECHL correction:   -0.183109
       DOS:  cpu time      0.0331: real time      0.0334
    CHARGE:  cpu time      0.0270: real time      0.0271
    MIXING:  cpu time      0.0004: real time      0.0004
    --------------------------------------------
      LOOP:  cpu time     31.8830: real time     32.0325

 eigenvalue-minimisations  : 18688
 total energy-change (2. order) : 0.9781269E-04  (-0.2897573E-05)
 number of electron      12.0000000 magnetization 
 augmentation part       -0.1545358 magnetization 

 Broyden mixing:
  rms(total) = 0.40925E-02    rms(broyden)= 0.40925E-02
  rms(prec ) = 0.52611E-02
  weight for this iteration     100.00

 eigenvalues of (default mixing * dielectric matrix)
  average eigenvalue GAMMA=   2.1083
  1.0641  2.5307  2.7299

 Free energy of the ion-electron system (eV)
  ---------------------------------------------------
  alpha Z        PSCENC =        -0.81277799
  Ewald energy   TEWEN  =      -293.88473869
  -Hartree energ DENC   =        -0.41795210
  -exchange      EXHF   =         0.00000000
  -V(xc)+E(xc)   XCENC  =      -104.53722088
  PAW double counting   =       553.16977320     -425.40018529
  entropy T*S    EENTRO =         0.00000000
  eigenvalues    EBANDS =        42.74770991
  atomic energy  EATOM  =       214.15382826
  Solvation  Ediel_sol  =         0.00000000
  ---------------------------------------------------
  free energy    TOTEN  =       -14.98156360 eV

  energy without entropy =      -14.98156360  energy(sigma->0) =      -14.98156360


--------------------------------------------------------------------------------------------------------




--------------------------------------- Iteration      1(   9)  ---------------------------------------


    POTLOK:  cpu time      0.0221: real time      0.0271
    SETDIJ:  cpu time      0.0011: real time      0.0011
     EDDAV:  cpu time     48.5460: real time     48.7550
 BZINTS: Fermi energy:    7.926530;   12.000000 electrons
         Band energy: 0.427452E+02;  BLOECHL correction:   -0.183116
       DOS:  cpu time      0.0332: real time      0.0335
    CHARGE:  cpu time      0.0273: real time      0.0275
    MIXING:  cpu time      0.0004: real time      0.0004
    --------------------------------------------
      LOOP:  cpu time     48.6301: real time     48.8445

 eigenvalue-minimisations  : 22656
 total energy-change (2. order) : 0.2582420E-05  (-0.4261309E-06)
 number of electron      12.0000000 magnetization 
 augmentation part       -0.1545859 magnetization 

 Broyden mixing:
  rms(total) = 0.12621E-03    rms(broyden)= 0.12621E-03
  rms(prec ) = 0.16165E-03
  weight for this iteration     100.00

 eigenvalues of (default mixing * dielectric matrix)
  average eigenvalue GAMMA=   2.2149
  0.9983  2.6690  2.6690  2.5233

 Free energy of the ion-electron system (eV)
  ---------------------------------------------------
  alpha Z        PSCENC =        -0.81277799
  Ewald energy   TEWEN  =      -293.88473869
  -Hartree energ DENC   =        -0.41968590
  -exchange      EXHF   =         0.00000000
  -V(xc)+E(xc)   XCENC  =      -104.53359215
  PAW double counting   =       560.26475371     -432.49458075
  entropy T*S    EENTRO =         0.00000000
  eigenvalues    EBANDS =        42.74523249
  atomic energy  EATOM  =       214.15382826
  Solvation  Ediel_sol  =         0.00000000
  ---------------------------------------------------
  free energy    TOTEN  =       -14.98156102 eV

  energy without entropy =      -14.98156102  energy(sigma->0) =      -14.98156102


--------------------------------------------------------------------------------------------------------




--------------------------------------- Iteration      1(  10)  ---------------------------------------


    POTLOK:  cpu time      0.0202: real time      0.0267
    SETDIJ:  cpu time      0.0010: real time      0.0010
     EDDAV:  cpu time     59.3245: real time     59.9886
 BZINTS: Fermi energy:    7.926509;   12.000000 electrons
         Band energy: 0.427450E+02;  BLOECHL correction:   -0.183116
       DOS:  cpu time      0.0332: real time      0.0335
    --------------------------------------------
      LOOP:  cpu time     59.3789: real time     60.0499

 eigenvalue-minimisations  : 18816
 total energy-change (2. order) : 0.9901387E-06  (-0.6234771E-09)
 number of electron      12.0000000 magnetization 
 augmentation part       -0.1545859 magnetization 

 Free energy of the ion-electron system (eV)
  ---------------------------------------------------
  alpha Z        PSCENC =        -0.81277799
  Ewald energy   TEWEN  =      -293.88473869
  -Hartree energ DENC   =        -0.41965490
  -exchange      EXHF   =         0.00000000
  -V(xc)+E(xc)   XCENC  =      -104.53366247
  PAW double counting   =       560.24839404     -432.47790812
  entropy T*S    EENTRO =         0.00000000
  eigenvalues    EBANDS =        42.74495985
  atomic energy  EATOM  =       214.15382826
  Solvation  Ediel_sol  =         0.00000000
  ---------------------------------------------------
  free energy    TOTEN  =       -14.98156003 eV

  energy without entropy =      -14.98156003  energy(sigma->0) =      -14.98156003


--------------------------------------------------------------------------------------------------------




 average (electrostatic) potential at core
  the test charge radii are     1.0406
  (the norm of the test charge is              1.0000)
       1 -72.6509       2 -72.6509       3 -72.6509       4 -72.6509
 
 
 
 E-fermi :   7.9265     XC(G=0): -10.1901     alpha+bet :-14.8493

 val. band max:        8.1256642242   @ k =   0.2727   0.0909   0.0909
 cond. band min:       7.6267508881   @ k =   0.0909   0.0909   0.0909
 fundamental gap:     -0.4989133361
 Fermi energy:         7.9265087847

 k-point     1 :       0.0000    0.0000    0.0000
  band No.  band energies     occupation 
      1      -3.1407      2.00000
      2       5.0618      2.00000
      3       5.0618      2.00000
      4       5.0618      2.00000
      5       6.3807      2.00000
      6       6.3807      2.00000
      7       6.3807      2.00000
      8      13.2387      0.00000
      9      13.2387      0.00000
     10      13.2387      0.00000
     11      13.5670      0.00000
     12      13.5670      0.00000
     13      13.5670      0.00000
     14      13.5670      0.00000
     15      13.5670      0.00000
     16      13.5670      0.00000
     17      17.0324      0.00000
     18      17.0324      0.00000
     19      17.0324      0.00000
     20      20.5902      0.00000
     21      20.5902      0.00000
     22      20.5902      0.00000
     23      22.0681      0.00000
     24      22.0681      0.00000
     25      22.0681      0.00000
     26      24.4339      0.00000
     27      27.3794      0.00000
     28      27.3794      0.00000
     29      30.2398      0.00000
     30      32.5918      0.00000
     31      32.5918      0.00000
     32      32.5918      0.00000
     33      33.3592      0.00000
     34      33.3592      0.00000
     35      33.3592      0.00000
     36      34.8680      0.00000
     37      34.8680      0.00000
     38      34.8680      0.00000
     39      34.8680      0.00000
     40      34.8680      0.00000
     41      34.8680      0.00000
     42      40.5324      0.00000
     43      40.5324      0.00000
     44      40.5324      0.00000
     45      41.1858      0.00000
     46      41.3351      0.00000
     47      41.3351      0.00000
     48      41.3351      0.00000
     49      41.3351      0.00000
     50      41.3351      0.00000
     51      41.3351      0.00000
     52      41.7461      0.00000
     53      41.7461      0.00000
     54      41.7461      0.00000
     55      42.6775      0.00000
     56      42.6775      0.00000
     57      42.6775      0.00000
     58      48.4095      0.00000
     59      48.4095      0.00000
     60      48.4095      0.00000
     61      48.4095      0.00000
     62      48.4095      0.00000
     63      48.4095      0.00000
     64      49.0195      0.00000
     65      49.0195      0.00000
     66      49.0195      0.00000
     67      49.4078      0.00000
     68      49.4078      0.00000
     69      49.4078      0.00000
     70      49.4078      0.00000
     71      49.4078      0.00000
     72      49.4078      0.00000
     73      50.3769      0.00000
     74      50.3769      0.00000
     75      50.3769      0.00000
     76      50.5642      0.00000
     77      50.5642      0.00000
     78      50.5642      0.00000
     79      52.5763      0.00000
     80      52.5763      0.00000
     81      52.5763      0.00000
     82      56.0670      0.00000
     83      56.0670      0.00000
     84      56.0670      0.00000
     85      56.1044      0.00000
     86      57.0553      0.00000
     87      57.0553      0.00000
     88      57.0553      0.00000
     89      57.0553      0.00000
     90      57.0553      0.00000
     91      57.0553      0.00000
     92      59.3526      0.00000
     93      59.3526      0.00000
     94      59.3526      0.00000
     95      59.5275      0.00000
     96      59.5275      0.00000
     97      59.5275      0.00000
     98      59.7946      0.00000
     99      59.7946      0.00000
    100      59.7946      0.00000
    101      62.9790      0.00000
    102      62.9790      0.00000
    103      63.9535      0.00000
    104      63.9535      0.00000
    105      63.9535      0.00000
    106      65.2203      0.00000
    107      65.2203      0.00000
    108      65.2203      0.00000
    109      72.1719      0.00000
    110      72.1719      0.00000
    111      72.1719      0.00000
    112      73.3529      0.00000
    113      73.3529      0.00000
    114      73.3529      0.00000
    115      75.2732      0.00000
    116      75.2732      0.00000
    117      75.2732      0.00000
    118      75.4155      0.00000
    119      75.4155      0.00000
    120      75.4155      0.00000
    121      75.4155      0.00000
    122      75.4155      0.00000
    123      75.4155      0.00000
    124      76.2584      0.00000
    125      76.2584      0.00000
    126      76.2584      0.00000
    127      77.0495      0.00000
    128      77.0495      0.00000

 k-point     2 :       0.0909    0.0000    0.0000
  band No.  band energies     occupation 
      1      -3.0659      2.00000
      2       4.0845      2.00000
      3       5.1303      2.00000
      4       5.1303      2.00000
      5       6.4530      2.00000
      6       6.4530      2.00000
      7       7.4876      1.60054
      8      11.9419      0.00000
      9      11.9419      0.00000
     10      13.0592      0.00000
     11      13.0592      0.00000
     12      13.3125      0.00000
     13      13.6305      0.00000
     14      13.6305      0.00000
     15      15.0022      0.00000
     16      15.0022      0.00000
     17      17.1008      0.00000
     18      17.6519      0.00000
     19      17.6519      0.00000
     20      19.8120      0.00000
     21      19.8120      0.00000
     22      20.0482      0.00000
     23      21.8851      0.00000
     24      22.9565      0.00000
     25      22.9565      0.00000
     26      25.1254      0.00000
     27      26.4221      0.00000
     28      27.4488      0.00000
     29      30.1999      0.00000
     30      32.6768      0.00000
     31      32.6768      0.00000
     32      32.9543      0.00000
     33      32.9543      0.00000
     34      33.0723      0.00000
     35      33.7376      0.00000
     36      33.9232      0.00000
     37      33.9232      0.00000
     38      34.6120      0.00000
     39      34.6120      0.00000
     40      34.8843      0.00000
     41      34.8843      0.00000
     42      40.7440      0.00000
     43      40.7440      0.00000
     44      40.8034      0.00000
     45      40.9307      0.00000
     46      40.9307      0.00000
     47      40.9661      0.00000
     48      41.3748      0.00000
     49      41.3748      0.00000
     50      41.4818      0.00000
     51      41.4818      0.00000
     52      41.4991      0.00000
     53      42.0779      0.00000
     54      42.0779      0.00000
     55      43.2530      0.00000
     56      43.3959      0.00000
     57      43.3959      0.00000
     58      46.3075      0.00000
     59      46.3075      0.00000
     60      46.4911      0.00000
     61      47.7501      0.00000
     62      47.7501      0.00000
     63      47.8380      0.00000
     64      47.8380      0.00000
     65      48.2495      0.00000
     66      48.2495      0.00000
     67      49.6635      0.00000
     68      49.6635      0.00000
     69      50.6414      0.00000
     70      50.6859      0.00000
     71      50.6859      0.00000
     72      51.2362      0.00000
     73      51.2362      0.00000
     74      51.2403      0.00000
     75      51.2403      0.00000
     76      51.8634      0.00000
     77      51.8634      0.00000
     78      52.7043      0.00000
     79      52.7043      0.00000
     80      52.8621      0.00000
     81      52.9920      0.00000
     82      55.8027      0.00000
     83      55.9417      0.00000
     84      55.9417      0.00000
     85      56.3604      0.00000
     86      56.8499      0.00000
     87      56.8499      0.00000
     88      56.9358      0.00000
     89      56.9358      0.00000
     90      57.0704      0.00000
     91      57.0704      0.00000
     92      58.6639      0.00000
     93      58.6639      0.00000
     94      59.0758      0.00000
     95      59.4023      0.00000
     96      59.5186      0.00000
     97      59.5186      0.00000
     98      60.1172      0.00000
     99      60.1278      0.00000
    100      60.1278      0.00000
    101      60.8364      0.00000
    102      62.9716      0.00000
    103      63.8065      0.00000
    104      63.8065      0.00000
    105      63.8933      0.00000
    106      66.0131      0.00000
    107      66.0131      0.00000
    108      67.4661      0.00000
    109      70.0662      0.00000
    110      72.2236      0.00000
    111      72.2236      0.00000
    112      72.4610      0.00000
    113      72.6215      0.00000
    114      72.6215      0.00000
    115      72.8545      0.00000
    116      72.8545      0.00000
    117      73.4218      0.00000
    118      73.4218      0.00000
    119      74.9568      0.00000
    120      74.9568      0.00000
    121      75.0826      0.00000
    122      75.0826      0.00000
    123      76.4826      0.00000
    124      77.0663      0.00000
    125      77.1024      0.00000
    126      77.4152      0.00000
    127      77.4152      0.00000
    128      78.1168      0.00000

 k-point     3 :       0.1818    0.0000    0.0000
  band No.  band energies     occupation 
      1      -2.8417      2.00000
      2       2.7776      2.00000
      3       5.3358      2.00000
      4       5.3358      2.00000
      5       6.6688      2.01291
      6       6.6688      2.21528
      7       9.1830     -0.11100
      8      10.6333      0.00000
      9      10.6333      0.00000
     10      12.0541      0.00000
     11      12.0541      0.00000
     12      13.5338      0.00000
     13      13.8211      0.00000
     14      13.8211      0.00000
     15      16.7251      0.00000
     16      16.7251      0.00000
     17      17.3047      0.00000
     18      18.6857      0.00000
     19      18.6857      0.00000
     20      18.9776      0.00000
     21      18.9903      0.00000
     22      18.9903      0.00000
     23      21.3999      0.00000
     24      24.3521      0.00000
     25      24.4062      0.00000
     26      24.4062      0.00000
     27      26.6443      0.00000
     28      27.6561      0.00000
     29      30.6711      0.00000
     30      31.8332      0.00000
     31      31.8332      0.00000
     32      31.9078      0.00000
     33      31.9078      0.00000
     34      32.3690      0.00000
     35      32.9376      0.00000
     36      32.9376      0.00000
     37      33.9425      0.00000
     38      33.9425      0.00000
     39      34.9288      0.00000
     40      34.9288      0.00000
     41      35.6597      0.00000
     42      39.3837      0.00000
     43      40.1552      0.00000
     44      40.1552      0.00000
     45      41.3126      0.00000
     46      41.3126      0.00000
     47      41.3711      0.00000
     48      41.3711      0.00000
     49      41.4935      0.00000
     50      41.4935      0.00000
     51      42.1094      0.00000
     52      42.4922      0.00000
     53      42.8397      0.00000
     54      42.8397      0.00000
     55      43.5105      0.00000
     56      43.5313      0.00000
     57      44.1326      0.00000
     58      44.1326      0.00000
     59      44.8023      0.00000
     60      44.8023      0.00000
     61      46.5979      0.00000
     62      46.5979      0.00000
     63      46.7722      0.00000
     64      46.7722      0.00000
     65      48.3753      0.00000
     66      48.3753      0.00000
     67      50.6340      0.00000
     68      50.6340      0.00000
     69      51.0597      0.00000
     70      52.1904      0.00000
     71      52.1904      0.00000
     72      52.8042      0.00000
     73      52.8042      0.00000
     74      52.8348      0.00000
     75      52.8348      0.00000
     76      53.0369      0.00000
     77      53.0369      0.00000
     78      53.5818      0.00000
     79      54.8598      0.00000
     80      54.8598      0.00000
     81      55.2785      0.00000
     82      55.2785      0.00000
     83      55.4657      0.00000
     84      56.1739      0.00000
     85      56.4212      0.00000
     86      56.4212      0.00000
     87      56.5903      0.00000
     88      56.5916      0.00000
     89      56.5916      0.00000
     90      57.2061      0.00000
     91      57.2061      0.00000
     92      57.5675      0.00000
     93      57.5675      0.00000
     94      57.9865      0.00000
     95      58.4400      0.00000
     96      59.4926      0.00000
     97      59.4926      0.00000
     98      59.5493      0.00000
     99      60.2019      0.00000
    100      60.9041      0.00000
    101      60.9041      0.00000
    102      62.9009      0.00000
    103      63.4472      0.00000
    104      63.4472      0.00000
    105      63.7997      0.00000
    106      67.3633      0.00000
    107      67.6241      0.00000
    108      67.6241      0.00000
    109      69.5961      0.00000
    110      69.5961      0.00000
    111      70.3454      0.00000
    112      70.3454      0.00000
    113      70.5568      0.00000
    114      70.5943      0.00000
    115      71.8518      0.00000
    116      71.8518      0.00000
    117      72.4042      0.00000
    118      72.4042      0.00000
    119      73.6102      0.00000
    120      73.6102      0.00000
    121      74.4185      0.00000
    122      74.4185      0.00000
    123      77.1268      0.00000
    124      77.2381      0.00000
    125      77.2381      0.00000
    126      77.2566      0.00000
    127      78.0159      0.00000
    128      78.0159      0.00000

 k-point     4 :       0.2727    0.0000    0.0000
  band No.  band energies     occupation 
      1      -2.4689      2.00000
      2       1.5643      2.00000
      3       5.6785      2.00000
      4       5.6785      2.00000
      5       7.0233      2.02074
      6       7.0233      2.48395
      7       9.4612      0.00000
      8       9.4612      0.00000
      9      10.9945      0.00000
     10      10.9945      0.00000
     11      11.0428      0.00000
     12      13.9020      0.00000
     13      14.1389      0.00000
     14      14.1389      0.00000
     15      17.6275      0.00000
     16      17.6275      0.00000
     17      17.6391      0.00000
     18      17.8515      0.00000
     19      18.5851      0.00000
     20      18.5851      0.00000
     21      20.5985      0.00000
     22      20.5985      0.00000
     23      20.7405      0.00000
     24      22.0126      0.00000
     25      25.9795      0.00000
     26      25.9795      0.00000
     27      27.9997      0.00000
     28      28.5169      0.00000
     29      29.5907      0.00000
     30      29.5907      0.00000
     31      30.2410      0.00000
     32      30.2410      0.00000
     33      31.5003      0.00000
     34      31.5275      0.00000
     35      33.0145      0.00000
     36      33.0145      0.00000
     37      33.3929      0.00000
     38      33.3929      0.00000
     39      34.9889      0.00000
     40      34.9889      0.00000
     41      37.4203      0.00000
     42      37.9144      0.00000
     43      39.8571      0.00000
     44      39.8571      0.00000
     45      39.9048      0.00000
     46      39.9048      0.00000
     47      40.6402      0.00000
     48      41.6889      0.00000
     49      41.6889      0.00000
     50      41.7666      0.00000
     51      41.7666      0.00000
     52      43.1679      0.00000
     53      43.1745      0.00000
     54      43.1745      0.00000
     55      43.7110      0.00000
     56      44.2394      0.00000
     57      44.3055      0.00000
     58      44.3055      0.00000
     59      45.1738      0.00000
     60      45.1738      0.00000
     61      45.4780      0.00000
     62      45.4780      0.00000
     63      45.9506      0.00000
     64      45.9506      0.00000
     65      49.2390      0.00000
     66      49.2390      0.00000
     67      51.8545      0.00000
     68      52.4034      0.00000
     69      52.4034      0.00000
     70      53.4971      0.00000
     71      53.4971      0.00000
     72      53.5898      0.00000
     73      53.5898      0.00000
     74      53.7540      0.00000
     75      53.7540      0.00000
     76      54.6019      0.00000
     77      54.6973      0.00000
     78      54.6973      0.00000
     79      54.9415      0.00000
     80      54.9415      0.00000
     81      55.0834      0.00000
     82      55.2114      0.00000
     83      55.9813      0.00000
     84      55.9813      0.00000
     85      56.1264      0.00000
     86      56.1264      0.00000
     87      56.6345      0.00000
     88      56.6345      0.00000
     89      56.8027      0.00000
     90      57.0654      0.00000
     91      57.0654      0.00000
     92      57.4404      0.00000
     93      58.7481      0.00000
     94      58.7481      0.00000
     95      59.0238      0.00000
     96      59.4581      0.00000
     97      59.4581      0.00000
     98      59.6285      0.00000
     99      59.7819      0.00000
    100      61.7414      0.00000
    101      61.7414      0.00000
    102      62.6059      0.00000
    103      63.0610      0.00000
    104      63.0610      0.00000
    105      64.0704      0.00000
    106      65.7395      0.00000
    107      66.7145      0.00000
    108      66.7145      0.00000
    109      68.0057      0.00000
    110      68.0057      0.00000
    111      68.5670      0.00000
    112      68.7361      0.00000
    113      68.7361      0.00000
    114      69.2073      0.00000
    115      69.2073      0.00000
    116      72.6220      0.00000
    117      72.6220      0.00000
    118      73.2150      0.00000
    119      73.2150      0.00000
    120      73.6922      0.00000
    121      73.6922      0.00000
    122      73.7131      0.00000
    123      73.7189      0.00000
    124      73.7189      0.00000
    125      76.9367      0.00000
    126      76.9367      0.00000
    127      77.4953      0.00000
    128      77.7007      0.00000

 k-point     5 :       0.3636    0.0000    0.0000
  band No.  band energies     occupation 
      1      -1.9485      2.00000
      2       0.4779      2.00000
      3       6.1586      2.00000
      4       6.1586      2.00000
      5       7.5018      2.00028
      6       7.5018      2.10908
      7       8.4276      0.00000
      8       8.4276      0.00000
      9      10.0174      0.00000
     10      10.0174      0.00000
     11      13.0321      0.00000
     12      14.4159      0.00000
     13      14.5841      0.00000
     14      14.5841      0.00000
     15      16.6807      0.00000
     16      16.6807      0.00000
     17      16.8028      0.00000
     18      18.0952      0.00000
     19      19.6454      0.00000
     20      20.0274      0.00000
     21      20.5759      0.00000
     22      20.5759      0.00000
     23      22.3205      0.00000
     24      22.3205      0.00000
     25      27.2287      0.00000
     26      27.2287      0.00000
     27      27.5907      0.00000
     28      27.5907      0.00000
     29      28.4443      0.00000
     30      28.4443      0.00000
     31      28.4763      0.00000
     32      30.6101      0.00000
     33      30.6194      0.00000
     34      31.9037      0.00000
     35      31.9037      0.00000
     36      32.5947      0.00000
     37      34.0791      0.00000
     38      34.0791      0.00000
     39      35.0459      0.00000
     40      35.0459      0.00000
     41      36.4740      0.00000
     42      37.9060      0.00000
     43      38.0106      0.00000
     44      38.0106      0.00000
     45      38.8862      0.00000
     46      39.8636      0.00000
     47      39.8636      0.00000
     48      41.9558      0.00000
     49      41.9558      0.00000
     50      42.2408      0.00000
     51      42.2408      0.00000
     52      42.3621      0.00000
     53      43.0346      0.00000
     54      43.0346      0.00000
     55      44.1648      0.00000
     56      44.1648      0.00000
     57      44.4865      0.00000
     58      44.4865      0.00000
     59      45.3719      0.00000
     60      45.3719      0.00000
     61      45.6167      0.00000
     62      46.4774      0.00000
     63      46.4774      0.00000
     64      46.6498      0.00000
     65      50.5579      0.00000
     66      50.5579      0.00000
     67      51.8632      0.00000
     68      51.8632      0.00000
     69      52.5679      0.00000
     70      52.7326      0.00000
     71      53.7660      0.00000
     72      53.7660      0.00000
     73      54.0735      0.00000
     74      54.0735      0.00000
     75      54.6501      0.00000
     76      54.6724      0.00000
     77      54.6724      0.00000
     78      55.1904      0.00000
     79      55.8640      0.00000
     80      55.8640      0.00000
     81      56.0534      0.00000
     82      56.2730      0.00000
     83      56.2730      0.00000
     84      56.7574      0.00000
     85      56.7574      0.00000
     86      56.8102      0.00000
     87      56.8102      0.00000
     88      56.9176      0.00000
     89      56.9176      0.00000
     90      56.9975      0.00000
     91      57.3149      0.00000
     92      57.3149      0.00000
     93      59.0264      0.00000
     94      59.5496      0.00000
     95      59.5496      0.00000
     96      60.0838      0.00000
     97      60.5270      0.00000
     98      61.8170      0.00000
     99      62.0168      0.00000
    100      62.0168      0.00000
    101      62.0179      0.00000
    102      62.0179      0.00000
    103      62.8191      0.00000
    104      62.8191      0.00000
    105      63.9871      0.00000
    106      63.9871      0.00000
    107      65.3875      0.00000
    108      65.7586      0.00000
    109      66.0119      0.00000
    110      66.0119      0.00000
    111      66.1306      0.00000
    112      66.1306      0.00000
    113      67.0274      0.00000
    114      69.2168      0.00000
    115      69.2168      0.00000
    116      70.2218      0.00000
    117      70.2218      0.00000
    118      72.6421      0.00000
    119      72.6421      0.00000
    120      72.9083      0.00000
    121      72.9083      0.00000
    122      73.0598      0.00000
    123      73.0598      0.00000
    124      75.8529      0.00000
    125      75.8529      0.00000
    126      76.3828      0.00000
    127      76.4263      0.00000
    128      77.2315      0.00000

 k-point     6 :       0.4545    0.0000    0.0000
  band No.  band energies     occupation 
      1      -1.2823      2.00000
      2      -0.4725      2.00000
      3       6.7766      2.00000
      4       6.7766      2.00000
      5       7.5329      2.00000
      6       7.5329      2.00000
      7       8.0265      0.00000
      8       8.0265      0.00000
      9       9.2376      0.00000
     10       9.2376      0.00000
     11      15.0737      0.00000
     12      15.1380      0.00000
     13      15.1565      0.00000
     14      15.1565      0.00000
     15      15.8558      0.00000
     16      15.8558      0.00000
     17      15.8717      0.00000
     18      17.3493      0.00000
     19      18.6596      0.00000
     20      19.3124      0.00000
     21      22.6897      0.00000
     22      22.6897      0.00000
     23      23.9449      0.00000
     24      23.9449      0.00000
     25      24.9144      0.00000
     26      24.9144      0.00000
     27      26.7588      0.00000
     28      26.7588      0.00000
     29      29.0800      0.00000
     30      29.1635      0.00000
     31      29.1635      0.00000
     32      29.8007      0.00000
     33      30.6181      0.00000
     34      30.6181      0.00000
     35      32.8826      0.00000
     36      33.7957      0.00000
     37      35.0505      0.00000
     38      35.0505      0.00000
     39      35.0807      0.00000
     40      35.0807      0.00000
     41      35.0951      0.00000
     42      35.3177      0.00000
     43      36.3613      0.00000
     44      36.3613      0.00000
     45      39.8878      0.00000
[...]
     56      47.1195      0.00000
     57      47.2335      0.00000
     58      47.5524      0.00000
     59      48.2740      0.00000
     60      48.3939      0.00000
     61      48.8547      0.00000
     62      49.5478      0.00000
     63      49.5478      0.00000
     64      49.9280      0.00000
     65      50.1197      0.00000
     66      50.1197      0.00000
     67      50.8747      0.00000
     68      50.8747      0.00000
     69      53.2709      0.00000
     70      54.1628      0.00000
     71      54.1628      0.00000
     72      54.3012      0.00000
     73      54.6313      0.00000
     74      54.6313      0.00000
     75      55.1472      0.00000
     76      55.6691      0.00000
     77      55.7457      0.00000
     78      55.7703      0.00000
     79      55.7703      0.00000
     80      56.0699      0.00000
     81      56.1263      0.00000
     82      56.1263      0.00000
     83      56.2735      0.00000
     84      56.3349      0.00000
     85      56.9068      0.00000
     86      57.0391      0.00000
     87      57.0391      0.00000
     88      57.3117      0.00000
     89      57.3825      0.00000
     90      57.3825      0.00000
     91      58.8723      0.00000
     92      59.2133      0.00000
     93      59.3532      0.00000
     94      59.3532      0.00000
     95      59.9078      0.00000
     96      60.3356      0.00000
     97      60.8139      0.00000
     98      60.8139      0.00000
     99      62.2151      0.00000
    100      62.2151      0.00000
    101      62.2205      0.00000
    102      62.9676      0.00000
    103      63.1001      0.00000
    104      63.6361      0.00000
    105      63.6361      0.00000
    106      64.0007      0.00000
    107      64.0215      0.00000
    108      64.1301      0.00000
    109      64.7494      0.00000
    110      64.7494      0.00000
    111      66.2306      0.00000
    112      66.8008      0.00000
    113      66.8008      0.00000
    114      67.8022      0.00000
    115      69.2777      0.00000
    116      69.3086      0.00000
    117      69.3086      0.00000
    118      69.6260      0.00000
    119      69.9262      0.00000
    120      72.1083      0.00000
    121      72.4067      0.00000
    122      72.4182      0.00000
    123      72.6531      0.00000
    124      72.6531      0.00000
    125      73.7688      0.00000
    126      73.7688      0.00000
    127      75.1303      0.00000
    128      75.6165      0.00000

 k-point    55 :       0.4545    0.4545    0.3636
  band No.  band energies     occupation 
      1       1.7144      2.00000
      2       2.5066      2.00000
      3       2.5066      2.00000
      4       3.2869      2.00000
      5       4.1026      2.00000
      6       4.8756      2.00000
      7       4.8756      2.00000
      8       5.6532      2.01367
      9      16.3345      0.00000
     10      16.9640      0.00000
     11      16.9640      0.00000
     12      17.6226      0.00000
     13      17.7053      0.00000
     14      17.7053      0.00000
     15      17.8056      0.00000
     16      19.2179      0.00000
     17      19.5160      0.00000
     18      19.9381      0.00000
     19      20.0895      0.00000
     20      20.0895      0.00000
     21      20.5227      0.00000
     22      20.8444      0.00000
     23      20.8444      0.00000
     24      21.3572      0.00000
     25      23.0578      0.00000
     26      24.2177      0.00000
     27      24.2177      0.00000
     28      24.3283      0.00000
     29      24.5977      0.00000
     30      25.0813      0.00000
     31      25.0813      0.00000
     32      25.5365      0.00000
     33      30.9249      0.00000
     34      30.9663      0.00000
     35      30.9663      0.00000
     36      31.8137      0.00000
     37      31.9700      0.00000
     38      32.0227      0.00000
     39      32.6033      0.00000
     40      32.6033      0.00000
     41      38.1338      0.00000
     42      38.4838      0.00000
     43      38.4838      0.00000
     44      38.6222      0.00000
     45      39.3616      0.00000
     46      39.7312      0.00000
     47      39.7312      0.00000
     48      39.8814      0.00000
     49      40.3725      0.00000
     50      40.3725      0.00000
     51      40.6293      0.00000
     52      40.8914      0.00000
     53      46.5043      0.00000
     54      46.6100      0.00000
     55      46.6479      0.00000
     56      46.6479      0.00000
     57      48.0391      0.00000
     58      48.7774      0.00000
     59      48.7774      0.00000
     60      48.7926      0.00000
     61      49.5146      0.00000
     62      49.8817      0.00000
     63      49.8817      0.00000
     64      49.9357      0.00000
     65      50.7326      0.00000
     66      51.2791      0.00000
     67      51.2791      0.00000
     68      51.5287      0.00000
     69      53.7277      0.00000
     70      54.0476      0.00000
     71      54.0476      0.00000
     72      54.4514      0.00000
     73      54.9567      0.00000
     74      54.9567      0.00000
     75      55.0303      0.00000
     76      55.0390      0.00000
     77      55.3905      0.00000
     78      55.7608      0.00000
     79      55.8435      0.00000
     80      55.8435      0.00000
     81      56.1276      0.00000
     82      56.1517      0.00000
     83      56.1517      0.00000
     84      56.4911      0.00000
     85      56.9214      0.00000
     86      56.9214      0.00000
     87      57.0378      0.00000
     88      57.2799      0.00000
     89      57.4795      0.00000
     90      58.1376      0.00000
     91      58.1376      0.00000
     92      58.5826      0.00000
     93      58.8874      0.00000
     94      58.8874      0.00000
     95      58.9774      0.00000
     96      59.4669      0.00000
     97      61.8035      0.00000
     98      61.8035      0.00000
     99      61.8362      0.00000
    100      61.9599      0.00000
    101      62.3194      0.00000
    102      62.3194      0.00000
    103      62.4149      0.00000
    104      62.9118      0.00000
    105      63.1856      0.00000
    106      64.0292      0.00000
    107      64.0292      0.00000
    108      64.4750      0.00000
    109      64.9040      0.00000
    110      64.9102      0.00000
    111      64.9102      0.00000
    112      65.8831      0.00000
    113      69.0145      0.00000
    114      69.3585      0.00000
    115      69.3585      0.00000
    116      69.4798      0.00000
    117      69.8998      0.00000
    118      71.3576      0.00000
    119      71.3576      0.00000
    120      71.7744      0.00000
    121      71.7744      0.00000
    122      71.8614      0.00000
    123      72.3258      0.00000
    124      72.5903      0.00000
    125      73.1839      0.00000
    126      73.1839      0.00000
    127      74.8341      0.00000
    128      74.9954      0.00000

 k-point    56 :       0.4545    0.4545    0.4545
  band No.  band energies     occupation 
      1       2.3632      2.00000
      2       3.1450      2.00000
      3       3.1450      2.00000
      4       3.1450      2.00000
      5       3.9601      2.00000
      6       3.9601      2.00000
      7       3.9601      2.00000
      8       4.7347      2.00000
      9      18.2134      0.00000
     10      18.2134      0.00000
     11      18.2134      0.00000
     12      18.3856      0.00000
     13      18.3856      0.00000
     14      18.3856      0.00000
     15      19.0939      0.00000
     16      19.0939      0.00000
     17      19.6701      0.00000
     18      19.6701      0.00000
     19      19.6701      0.00000
     20      19.8053      0.00000
     21      19.8053      0.00000
     22      20.5159      0.00000
     23      20.5159      0.00000
     24      20.5159      0.00000
     25      22.7945      0.00000
     26      23.6360      0.00000
     27      23.6581      0.00000
     28      23.6581      0.00000
     29      23.6581      0.00000
     30      23.7604      0.00000
     31      23.7604      0.00000
     32      23.7604      0.00000
     33      32.1829      0.00000
     34      32.1829      0.00000
     35      32.1829      0.00000
     36      32.2890      0.00000
     37      32.2890      0.00000
     38      32.7647      0.00000
     39      32.7647      0.00000
     40      32.7647      0.00000
     41      38.8560      0.00000
     42      38.8560      0.00000
     43      38.8560      0.00000
     44      38.9271      0.00000
     45      38.9271      0.00000
     46      38.9271      0.00000
     47      39.1093      0.00000
     48      39.3219      0.00000
     49      39.3219      0.00000
     50      39.8074      0.00000
     51      39.8074      0.00000
     52      39.8074      0.00000
     53      45.8442      0.00000
     54      45.8442      0.00000
     55      45.8442      0.00000
     56      45.9219      0.00000
     57      49.7416      0.00000
     58      50.4367      0.00000
     59      50.4367      0.00000
     60      50.4835      0.00000
     61      50.4835      0.00000
     62      50.4835      0.00000
     63      50.9971      0.00000
     64      50.9971      0.00000
     65      50.9971      0.00000
     66      51.4524      0.00000
     67      51.4524      0.00000
     68      51.4524      0.00000
     69      53.7998      0.00000
     70      53.7998      0.00000
     71      53.7998      0.00000
     72      54.2797      0.00000
     73      54.6465      0.00000
     74      54.6465      0.00000
     75      54.6465      0.00000
     76      55.2549      0.00000
     77      55.2549      0.00000
     78      55.2549      0.00000
     79      55.5386      0.00000
     80      55.5476      0.00000
     81      55.5476      0.00000
     82      56.3057      0.00000
     83      56.3057      0.00000
     84      56.3057      0.00000
     85      57.2567      0.00000
     86      57.2567      0.00000
     87      57.2567      0.00000
     88      57.6566      0.00000
     89      57.6566      0.00000
     90      57.6566      0.00000
     91      57.7608      0.00000
     92      58.0599      0.00000
     93      58.0599      0.00000
     94      58.6162      0.00000
     95      58.6162      0.00000
     96      58.6162      0.00000
     97      61.3179      0.00000
     98      61.3179      0.00000
     99      61.3179      0.00000
    100      61.7989      0.00000
    101      62.8556      0.00000
    102      62.8556      0.00000
    103      62.8556      0.00000
    104      63.5351      0.00000
    105      63.5351      0.00000
    106      63.5351      0.00000
    107      63.7676      0.00000
    108      64.3829      0.00000
    109      64.3829      0.00000
    110      64.4484      0.00000
    111      64.4484      0.00000
    112      64.4484      0.00000
    113      69.1087      0.00000
    114      70.2960      0.00000
    115      70.2960      0.00000
    116      70.2960      0.00000
    117      71.9363      0.00000
    118      71.9363      0.00000
    119      71.9363      0.00000
    120      71.9588      0.00000
    121      71.9588      0.00000
    122      71.9588      0.00000
    123      73.7669      0.00000
    124      73.7669      0.00000
    125      74.7421      0.00000
    126      74.7421      0.00000
    127      74.7421      0.00000
    128      75.6963      0.00000


--------------------------------------------------------------------------------------------------------


 soft charge-density along one line, spin component           1
         0         1         2         3         4         5         6         7         8         9
 total charge-density along one line
 
 pseudopotential strength for first ion, spin component:           1
  8.444  14.392   0.000  -0.000   0.000   0.000  -0.000   0.000
 14.392  24.529   0.000  -0.000   0.000   0.000  -0.000   0.000
  0.000   0.000   1.988   0.000   0.000   5.731   0.000   0.000
 -0.000  -0.000   0.000   1.988   0.000   0.000   5.731   0.000
  0.000   0.000   0.000   0.000   1.988   0.000   0.000   5.731
  0.000   0.000   5.731   0.000   0.000  16.436   0.000   0.000
 -0.000  -0.000   0.000   5.731   0.000   0.000  16.436   0.000
  0.000   0.000   0.000   0.000   5.731   0.000   0.000  16.436
 total augmentation occupancy for first ion, spin component:           1
  3.346  -0.822   0.000   0.000   0.000   0.000  -0.000  -0.000
 -0.822   0.270  -0.000   0.000  -0.000   0.000   0.000   0.000
  0.000  -0.000   1.100   0.000   0.000  -0.070  -0.000  -0.000
  0.000   0.000   0.000   1.100   0.000  -0.000  -0.070  -0.000
  0.000  -0.000   0.000   0.000   1.100  -0.000  -0.000  -0.070
  0.000   0.000  -0.070  -0.000  -0.000   0.005   0.000   0.000
 -0.000   0.000  -0.000  -0.070  -0.000   0.000   0.005   0.000
 -0.000   0.000  -0.000  -0.000  -0.070   0.000   0.000   0.005


------------------------ aborting loop because EDIFF is reached ----------------------------------------


    CHARGE:  cpu time      0.0291: real time      0.0293
    FORLOC:  cpu time      0.0011: real time      0.0011
    FORNL :  cpu time      0.0328: real time      0.0340
    STRESS:  cpu time      0.4131: real time      0.4178
    FORCOR:  cpu time      0.0065: real time      0.0067
    FORHAR:  cpu time      0.0035: real time      0.0036
    MIXING:  cpu time      0.0005: real time      0.0006
    OFIELD:  cpu time      0.0011: real time      0.0011

  FORCE on cell =-STRESS in cart. coord.  units (eV):
  Direction    XX          YY          ZZ          XY          YZ          ZX
  --------------------------------------------------------------------------------------
  Alpha Z    -0.81278    -0.81278    -0.81278
  Ewald     -97.96162   -97.96162   -97.96162    -0.00000     0.00000     0.00000
  Hartree     0.13989     0.13989     0.13989    -0.00000    -0.00000    -0.00000
  E(xc)     -34.23160   -34.23160   -34.23160     0.00000     0.00000     0.00000
  Local       1.38293     1.38293     1.38293     0.00000     0.00000     0.00000
  n-local    74.16685    75.11388    77.14780     0.27295     0.98378     0.40398
  augment    -4.12353    -4.12353    -4.12353     0.00000     0.00000     0.00000
  Kinetic    57.36864    59.39418    63.21691     1.62128    -8.24670    -1.59833
  Fock        0.00000     0.00000     0.00000     0.00000     0.00000     0.00000
  -------------------------------------------------------------------------------------
  Total      -0.13730    -0.13730    -0.13730     0.00000     0.00000     0.00000
  in kB      -3.32691    -3.32691    -3.32691     0.00000     0.00000     0.00000
  external pressure =       -3.33 kB  Pullay stress =        0.00 kB


 VOLUME and BASIS-vectors are now :
 -----------------------------------------------------------------------------
  energy-cutoff  :      520.00
  volume of cell :       66.12
      direct lattice vectors                 reciprocal lattice vectors
     4.043689723  0.000000000  0.000000000     0.247298895 -0.000000000  0.000000000
     0.000000000  4.043689723  0.000000000     0.000000000  0.247298895  0.000000000
     0.000000000  0.000000000  4.043689723    -0.000000000 -0.000000000  0.247298895

  length of vectors
     4.043689723  4.043689723  4.043689723     0.247298895  0.247298895  0.247298895


 FORCES acting on ions
    electron-ion (+dipol)            ewald-force                    non-local-force                 convergence-correction
 -----------------------------------------------------------------------------------------------
   -.153E-14 -.196E-15 -.101E-14   0.489E-15 0.764E-15 -.890E-15   0.220E-19 0.284E-19 0.999E-19   -.118E-15 0.165E-16 0.270E-16
   -.161E-14 -.162E-14 -.194E-14   0.516E-15 -.538E-15 0.377E-15   0.190E-19 -.901E-20 -.131E-19   -.127E-15 -.108E-16 -.297E-16
   -.313E-14 0.249E-16 0.222E-13   -.475E-15 0.591E-15 0.377E-15   0.130E-19 0.142E-19 0.517E-19   0.143E-15 0.238E-16 -.260E-16
   -.397E-14 -.812E-14 -.182E-13   -.448E-15 -.707E-15 0.305E-15   0.128E-19 0.162E-19 0.648E-19   0.133E-15 -.281E-16 0.264E-16
 -----------------------------------------------------------------------------------------------
   -.102E-13 -.991E-14 0.106E-14   0.811E-16 0.111E-15 0.169E-15   0.668E-19 0.497E-19 0.203E-18   0.301E-16 0.139E-17 -.235E-17
 
 
 POSITION                                       TOTAL-FORCE (eV/Angst)
 -----------------------------------------------------------------------------------
      0.00000      0.00000      0.00000         0.000000     -0.000000      0.000000
      0.00000      2.02184      2.02184        -0.000000     -0.000000     -0.000000
      2.02184      0.00000      2.02184         0.000000     -0.000000     -0.000000
      2.02184      2.02184      0.00000        -0.000000      0.000000      0.000000
 -----------------------------------------------------------------------------------
    total drift:                               -0.000000     -0.000000      0.000000


--------------------------------------------------------------------------------------------------------



  FREE ENERGIE OF THE ION-ELECTRON SYSTEM (eV)
  ---------------------------------------------------
  free  energy   TOTEN  =       -14.98156003 eV

  energy  without entropy=      -14.98156003  energy(sigma->0) =      -14.98156003
 


--------------------------------------------------------------------------------------------------------


    POTLOK:  cpu time      0.0105: real time      0.0109


--------------------------------------------------------------------------------------------------------


     LOOP+:  cpu time    382.5381: real time    384.9473
 -----------------------------------------------------------------------------
|                                                                             |
|           W    W    AA    RRRRR   N    N  II  N    N   GGGG   !!!           |
|           W    W   A  A   R    R  NN   N  II  NN   N  G    G  !!!           |
|           W    W  A    A  R    R  N N  N  II  N N  N  G       !!!           |
|           W WW W  AAAAAA  RRRRR   N  N N  II  N  N N  G  GGG   !            |
|           WW  WW  A    A  R   R   N   NN  II  N   NN  G    G                |
|           W    W  A    A  R    R  N    N  II  N    N   GGGG   !!!           |
|                                                                             |
|     Tetrahedron method does not include variations of the Fermi             |
|     occupations, so forces and stress will be inaccurate. We suggest        |
|     using a different smearing scheme ISMEAR = 1 or 2 for metals in         |
|     relaxations.                                                            |
|                                                                             |
 -----------------------------------------------------------------------------

    4ORBIT:  cpu time      0.0000: real time      0.0000
 BZINTS: Fermi energy:    7.926509;   12.000000 electrons
         Band energy: 0.427450E+02;  BLOECHL correction:   -0.183116

 total amount of memory used by VASP MPI-rank0    40378. kBytes
=======================================================================

   base      :      30000. kBytes
   nonl-proj :       7004. kBytes
   fftplans  :        256. kBytes
   grid      :       1271. kBytes
   one-center:         12. kBytes
   wavefun   :       1835. kBytes
 
  
  
 General timing and accounting informations for this job:
 ========================================================
  
                  Total CPU time used (sec):      390.640
                            User time (sec):      385.576
                          System time (sec):        5.064
                         Elapsed time (sec):      398.559
  
                   Maximum memory used (kb):     1025716.
                   Average memory used (kb):          N/A
  
                          Minor page faults:       228233
                          Major page faults:          104
                 Voluntary context switches:         6963
