 vasp.6.4.3 19Mar24 (build Mar 26 2024 14:05:37) complex                        
  
 executed on             LinuxIFC date 2025.01.02  09:06:06
 running  128 mpi-ranks, on    1 nodes
 distrk:  each k-point on  128 cores,    1 groups
 distr:  one band on NCORE=   1 cores,  128 groups


--------------------------------------------------------------------------------------------------------


 INCAR:
   EDIFF = 1e-06
   EDIFFG = -0.01
   ENCUT = 520
   GGA = Pe
   IBRION = -1
   ISIF = 2
   ISMEAR = -5
   LCHARG = False
   LREAL = False
   LWAVE = False
   NELM = 200
   NSW = 0
   PREC = Accurate
   SIGMA = 0.2

 POTCAR:    PAW_PBE Al 04Jan2001                  
 -----------------------------------------------------------------------------
|                                                                             |
|           W    W    AA    RRRRR   N    N  II  N    N   GGGG   !!!           |
|           W    W   A  A   R    R  NN   N  II  NN   N  G    G  !!!           |
|           W    W  A    A  R    R  N N  N  II  N N  N  G       !!!           |
|           W WW W  AAAAAA  RRRRR   N  N N  II  N  N N  G  GGG   !            |
|           WW  WW  A    A  R   R   N   NN  II  N   NN  G    G                |
|           W    W  A    A  R    R  N    N  II  N    N   GGGG   !!!           |
|                                                                             |
|     For optimal performance we recommend to set                             |
|       NCORE = 2 up to number-of-cores-per-socket                            |
|     NCORE specifies how many cores store one orbital (NPAR=cpu/NCORE).      |
|     This setting can greatly improve the performance of VASP for DFT.       |
|     The default, NCORE=1 might be grossly inefficient on modern             |
|     multi-core architectures or massively parallel machines. Do your        |
|     own testing! More info at https://www.vasp.at/wiki/index.php/NCORE      |
|     Unfortunately you need to use the default for GW and RPA                |
|     calculations (for HF NCORE is supported but not extensively tested      |
|     yet).                                                                   |
|                                                                             |
 -----------------------------------------------------------------------------

 POTCAR:    PAW_PBE Al 04Jan2001                  
   SHA256 =  17880443556af62b473fe41b62a467bd001ad55d2cabe504a3f22e34d4e9db96 Al/POTCAR             
   COPYR  = (c) Copyright 04Jan2001 Georg Kresse                                                    
   COPYR  = This file is part of the software VASP. Any use, copying, and all other rights are regul
   COPYR  = If you do not have a valid VASP license, you may not use, copy or distribute this file. 
   VRHFIN =Al: s2p1                                                                                 
   LEXCH  = PE                                                                                      
   EATOM  =    53.5387 eV,    3.9350 Ry                                                             
                                                                                                    
   TITEL  = PAW_PBE Al 04Jan2001                                                                    
   LULTRA =        F    use ultrasoft PP ?                                                          
   IUNSCR =        1    unscreen: 0-lin 1-nonlin 2-no                                               
   RPACOR =    1.500    partial core radius                                                         
   POMASS =   26.981; ZVAL   =    3.000    mass and valenz                                          
   RCORE  =    1.900    outmost cutoff radius                                                       
   RWIGS  =    2.650; RWIGS  =    1.402    wigner-seitz radius (au A)                               
   ENMAX  =  240.300; ENMIN  =  180.225 eV                                                          
   ICORE  =        2    local potential                                                             
   LCOR   =        T    correct aug charges                                                         
   LPAW   =        T    paw PP                                                                      
   EAUG   =  291.052                                                                                
   DEXC   =    0.000                                                                                
   RMAX   =    1.939    core radius for proj-oper                                                   
   RAUG   =    1.300    factor for augmentation sphere                                              
   RDEP   =    1.966    radius for radial grids                                                     
   RDEPT  =    1.856    core radius for aug-charge                                                  
                                                                                                    
   Atomic configuration                                                                             
    6 entries                                                                                       
     n  l   j            E        occ.                                                              
     1  0  0.50     -1511.1048   2.0000                                                             
     2  0  0.50      -108.1629   2.0000                                                             
     2  1  1.50       -69.6402   6.0000                                                             
     3  0  0.50        -7.7528   2.0000                                                             
     3  1  1.50        -2.7121   1.0000                                                             
     3  2  2.50        -2.7212   0.0000                                                             
   Description                                                                                      
     l       E           TYP  RCUT    TYP  RCUT                                                     
     0     -7.7528455     23  1.900                                                                 
     0     -3.3096929     23  1.900                                                                 
     1     -2.7120682     23  1.900                                                                 
     1     13.6058260     23  1.900                                                                 
     2     -2.7211652      7  1.900                                                                 
  local pseudopotential read in
  partial core-charges read in
  partial kinetic energy density read in
  atomic valenz-charges read in
  non local Contribution for L=           0  read in
    real space projection operators read in
  non local Contribution for L=           0  read in
    real space projection operators read in
  non local Contribution for L=           1  read in
    real space projection operators read in
  non local Contribution for L=           1  read in
    real space projection operators read in
    PAW grid and wavefunctions read in
 
   number of l-projection  operators is LMAX  =           4
   number of lm-projection operators is LMMAX =           8
 
  PAW_PBE Al 04Jan2001                  :
 energy of atom  1       EATOM=  -53.5387
 kinetic energy error for atom=    0.0002 (will be added to EATOM!!)
 
 
 POSCAR: Al4
  positions in direct lattice
  velocities in cartesian coordinates


 exchange-correlation table for PE
   RHO(1)=    0.500       N(1)  =     2000
   RHO(2)=  100.500       N(2)  =     4000
 


--------------------------------------------------------------------------------------------------------


 ion  position               nearest neighbor table
   1  0.000  0.000  0.000-   2 2.86   3 2.86   2 2.86   3 2.86   2 2.86   4 2.86   2 2.86   3 2.86
                             4 2.86   3 2.86   4 2.86   4 2.86
   2  0.000  0.500  0.500-   1 2.86   4 2.86   1 2.86   4 2.86   1 2.86   3 2.86   1 2.86   3 2.86
                             4 2.86   4 2.86   3 2.86   3 2.86
   3  0.500  0.000  0.500-   1 2.86   4 2.86   1 2.86   4 2.86   2 2.86   4 2.86   4 2.86   1 2.86
                             2 2.86   1 2.86   2 2.86   2 2.86
   4  0.500  0.500  0.000-   2 2.86   3 2.86   2 2.86   3 2.86   1 2.86   3 2.86   3 2.86   1 2.86
                             2 2.86   2 2.86   1 2.86   1 2.86
 
  LATTYP: Found a simple cubic cell.
 ALAT       =     4.0436897231
  
  Lattice vectors:
  
 A1 = (   4.0436897231,   0.0000000000,   0.0000000000)
 A2 = (   0.0000000000,   4.0436897231,   0.0000000000)
 A3 = (   0.0000000000,   0.0000000000,   4.0436897231)


Analysis of symmetry for initial positions (statically):
=====================================================================
 Subroutine PRICEL returns following result:
 
  LATTYP: Found a face centered cubic cell.
 ALAT       =     4.0436897231
  
  Lattice vectors:
  
 A1 = (   2.0218448615,  -2.0218448615,   0.0000000000)
 A2 = (   2.0218448615,   0.0000000000,   2.0218448615)
 A3 = (  -0.0000000000,  -2.0218448615,   2.0218448615)
 
   4 primitive cells build up your supercell.
 

 Routine SETGRP: Setting up the symmetry group for a 
 simple cubic supercell.


 Subroutine GETGRP returns: Found 48 space group operations
 (whereof 48 operations were pure point group operations)
 out of a pool of 48 trial point group operations.


The static configuration has the point symmetry O_h .


Analysis of symmetry for dynamics (positions and initial velocities):
=====================================================================
 Subroutine PRICEL returns following result:
 
  LATTYP: Found a face centered cubic cell.
 ALAT       =     4.0436897231
  
  Lattice vectors:
  
 A1 = (   2.0218448615,  -2.0218448615,   0.0000000000)
 A2 = (   2.0218448615,   0.0000000000,   2.0218448615)
 A3 = (  -0.0000000000,  -2.0218448615,   2.0218448615)
 
   4 primitive cells build up your supercell.
 

 Routine SETGRP: Setting up the symmetry group for a 
 simple cubic supercell.


 Subroutine GETGRP returns: Found 48 space group operations
 (whereof 48 operations were pure point group operations)
 out of a pool of 48 trial point group operations.


The dynamic configuration has the point symmetry O_h .


 Subroutine INISYM returns: Found 48 space group operations
 (whereof 48 operations are pure point group operations),
 and found     4 'primitive' translations


----------------------------------------------------------------------------------------

                                     Primitive cell                                     

  volume of cell :      16.5300

  direct lattice vectors                    reciprocal lattice vectors
     2.021844862 -2.021844862  0.000000000     0.247298895 -0.247298895 -0.247298895
     2.021844862  0.000000000  2.021844862     0.247298895  0.247298895  0.247298895
    -0.000000000 -2.021844862  2.021844862    -0.247298895 -0.247298895  0.247298895

  length of vectors
     2.859320424  2.859320424  2.859320424     0.428334251  0.428334251  0.428334251

  position of ions in fractional coordinates (direct lattice)
     0.000000000  0.000000000  0.000000000

  ion indices of the primitive-cell ions
   primitive index   ion index
                 1           1

----------------------------------------------------------------------------------------

 
 
 KPOINTS: pymatgen with grid density = 5000 / numb

Automatic generation of k-mesh.
 Grid dimensions read from file:
 generate k-points for:   10   10   10

 Generating k-lattice:

  Cartesian coordinates                     Fractional coordinates (reciprocal lattice)
     0.024729889 -0.000000000  0.000000000     0.100000000  0.000000000  0.000000000
     0.000000000  0.024729889  0.000000000     0.000000000  0.100000000  0.000000000
    -0.000000000 -0.000000000  0.024729889     0.000000000  0.000000000  0.100000000

  Length of vectors
     0.024729889  0.024729889  0.024729889

  Shift w.r.t. Gamma in fractional coordinates (k-lattice)
     0.000000000  0.000000000  0.000000000

 TETIRR: Found    492 inequivalent tetrahedra from     6000
 
 Subroutine IBZKPT returns following result:
 ===========================================
 
 Found     56 irreducible k-points:
 
 Following reciprocal coordinates:
            Coordinates               Weight
  0.000000  0.000000  0.000000      1.000000
  0.100000  0.000000  0.000000      6.000000
  0.200000  0.000000  0.000000      6.000000
  0.300000  0.000000  0.000000      6.000000
  0.400000  0.000000  0.000000      6.000000
  0.500000  0.000000  0.000000      3.000000
  0.100000  0.100000  0.000000     12.000000
  0.200000  0.100000  0.000000     24.000000
  0.300000  0.100000  0.000000     24.000000
  0.400000  0.100000  0.000000     24.000000
  0.500000  0.100000  0.000000     12.000000
  0.200000  0.200000  0.000000     12.000000
  0.300000  0.200000  0.000000     24.000000
  0.400000  0.200000  0.000000     24.000000
  0.500000  0.200000  0.000000     12.000000
  0.300000  0.300000  0.000000     12.000000
  0.400000  0.300000  0.000000     24.000000
  0.500000  0.300000  0.000000     12.000000
  0.400000  0.400000  0.000000     12.000000
  0.500000  0.400000  0.000000     12.000000
  0.500000  0.500000  0.000000      3.000000
  0.100000  0.100000  0.100000      8.000000
  0.200000  0.100000  0.100000     24.000000
  0.300000  0.100000  0.100000     24.000000
  0.400000  0.100000  0.100000     24.000000
  0.500000  0.100000  0.100000     12.000000
  0.200000  0.200000  0.100000     24.000000
  0.300000  0.200000  0.100000     48.000000
  0.400000  0.200000  0.100000     48.000000
  0.500000  0.200000  0.100000     24.000000
  0.300000  0.300000  0.100000     24.000000
  0.400000  0.300000  0.100000     48.000000
  0.500000  0.300000  0.100000     24.000000
  0.400000  0.400000  0.100000     24.000000
  0.500000  0.400000  0.100000     24.000000
  0.500000  0.500000  0.100000      6.000000
  0.200000  0.200000  0.200000      8.000000
  0.300000  0.200000  0.200000     24.000000
  0.400000  0.200000  0.200000     24.000000
  0.500000  0.200000  0.200000     12.000000
  0.300000  0.300000  0.200000     24.000000
  0.400000  0.300000  0.200000     48.000000
  0.500000  0.300000  0.200000     24.000000
  0.400000  0.400000  0.200000     24.000000
  0.500000  0.400000  0.200000     24.000000
  0.500000  0.500000  0.200000      6.000000
  0.300000  0.300000  0.300000      8.000000
  0.400000  0.300000  0.300000     24.000000
  0.500000  0.300000  0.300000     12.000000
  0.400000  0.400000  0.300000     24.000000
  0.500000  0.400000  0.300000     24.000000
  0.500000  0.500000  0.300000      6.000000
  0.400000  0.400000  0.400000      8.000000
  0.500000  0.400000  0.400000     12.000000
  0.500000  0.500000  0.400000      6.000000
  0.500000  0.500000  0.500000      1.000000
 
 Following cartesian coordinates:
            Coordinates               Weight
  0.000000  0.000000  0.000000      1.000000
  0.024730  0.000000  0.000000      6.000000
  0.049460  0.000000  0.000000      6.000000
  0.074190  0.000000  0.000000      6.000000
  0.098920  0.000000  0.000000      6.000000
  0.123649  0.000000  0.000000      3.000000
  0.024730  0.024730  0.000000     12.000000
  0.049460  0.024730  0.000000     24.000000
  0.074190  0.024730  0.000000     24.000000
  0.098920  0.024730  0.000000     24.000000
  0.123649  0.024730  0.000000     12.000000
  0.049460  0.049460  0.000000     12.000000
  0.074190  0.049460  0.000000     24.000000
  0.098920  0.049460  0.000000     24.000000
  0.123649  0.049460  0.000000     12.000000
  0.074190  0.074190  0.000000     12.000000
  0.098920  0.074190  0.000000     24.000000
  0.123649  0.074190  0.000000     12.000000
  0.098920  0.098920  0.000000     12.000000
  0.123649  0.098920  0.000000     12.000000
  0.123649  0.123649  0.000000      3.000000
  0.024730  0.024730  0.024730      8.000000
  0.049460  0.024730  0.024730     24.000000
  0.074190  0.024730  0.024730     24.000000
  0.098920  0.024730  0.024730     24.000000
  0.123649  0.024730  0.024730     12.000000
  0.049460  0.049460  0.024730     24.000000
  0.074190  0.049460  0.024730     48.000000
  0.098920  0.049460  0.024730     48.000000
  0.123649  0.049460  0.024730     24.000000
  0.074190  0.074190  0.024730     24.000000
  0.098920  0.074190  0.024730     48.000000
  0.123649  0.074190  0.024730     24.000000
  0.098920  0.098920  0.024730     24.000000
  0.123649  0.098920  0.024730     24.000000
  0.123649  0.123649  0.024730      6.000000
  0.049460  0.049460  0.049460      8.000000
  0.074190  0.049460  0.049460     24.000000
  0.098920  0.049460  0.049460     24.000000
  0.123649  0.049460  0.049460     12.000000
  0.074190  0.074190  0.049460     24.000000
  0.098920  0.074190  0.049460     48.000000
  0.123649  0.074190  0.049460     24.000000
  0.098920  0.098920  0.049460     24.000000
  0.123649  0.098920  0.049460     24.000000
  0.123649  0.123649  0.049460      6.000000
  0.074190  0.074190  0.074190      8.000000
  0.098920  0.074190  0.074190     24.000000
  0.123649  0.074190  0.074190     12.000000
  0.098920  0.098920  0.074190     24.000000
  0.123649  0.098920  0.074190     24.000000
  0.123649  0.123649  0.074190      6.000000
  0.098920  0.098920  0.098920      8.000000
  0.123649  0.098920  0.098920     12.000000
  0.123649  0.123649  0.098920      6.000000
  0.123649  0.123649  0.123649      1.000000
 


--------------------------------------------------------------------------------------------------------




 Dimension of arrays:
   k-points           NKPTS =     56   k-points in BZ     NKDIM =     56   number of bands    NBANDS=    128
   number of dos      NEDOS =    301   number of ions     NIONS =      4
   non local maximal  LDIM  =      4   non local SUM 2l+1 LMDIM =      8
   total plane-waves  NPLWV =  27000
   max r-space proj   IRMAX =      1   max aug-charges    IRDMAX=  16090
   dimension x,y,z NGX =    30 NGY =   30 NGZ =   30
   dimension x,y,z NGXF=    60 NGYF=   60 NGZF=   60
   support grid    NGXF=    60 NGYF=   60 NGZF=   60
   ions per type =               4
   NGX,Y,Z   is equivalent  to a cutoff of  12.33, 12.33, 12.33 a.u.
   NGXF,Y,Z  is equivalent  to a cutoff of  24.67, 24.67, 24.67 a.u.

 SYSTEM =  unknown system                          
 POSCAR =  Al4                                     

 Startparameter for this run:
   NWRITE =      2    write-flag & timer
   PREC   = accura    normal or accurate (medium, high low for compatibility)
   ISTART =      0    job   : 0-new  1-cont  2-samecut
   ICHARG =      2    charge: 1-file 2-atom 10-const
   ISPIN  =      1    spin polarized calculation?
   LNONCOLLINEAR =      F non collinear calculations
   LSORBIT =      F    spin-orbit coupling
   INIWAV =      1    electr: 0-lowe 1-rand  2-diag
   LASPH  =      F    aspherical Exc in radial PAW
 Electronic Relaxation 1
   ENCUT  =  520.0 eV  38.22 Ry    6.18 a.u.   7.52  7.52  7.52*2*pi/ulx,y,z
   ENINI  =  520.0     initial cutoff
   ENAUG  =  291.1 eV  augmentation charge cutoff
   NELM   =    200;   NELMIN=  2; NELMDL=  0     # of ELM steps 
   EDIFF  = 0.1E-05   stopping-criterion for ELM
   LREAL  =      F    real-space projection
   NLSPLINE    = F    spline interpolate recip. space projectors
   LCOMPAT=      F    compatible to vasp.4.4
   GGA_COMPAT  = T    GGA compatible to vasp.4.4-vasp.4.6
   LMAXPAW     = -100 max onsite density
   LMAXMIX     =    2 max onsite mixed and CHGCAR
   VOSKOWN=      0    Vosko Wilk Nusair interpolation
   ROPT   =    0.00000
 Ionic relaxation
   EDIFFG = -.1E-01   stopping-criterion for IOM
   NSW    =      0    number of steps for IOM
   NBLOCK =      1;   KBLOCK =      1    inner block; outer block 
   IBRION =     -1    ionic relax: 0-MD 1-quasi-New 2-CG
   NFREE  =      0    steps in history (QN), initial steepest desc. (CG)
   ISIF   =      2    stress and relaxation
   IWAVPR =     10    prediction:  0-non 1-charg 2-wave 3-comb
   ISYM   =      2    0-nonsym 1-usesym 2-fastsym
   LCORR  =      T    Harris-Foulkes like correction to forces

   POTIM  = 0.5000    time-step for ionic-motion
   TEIN   =    0.0    initial temperature
   TEBEG  =    0.0;   TEEND  =   0.0 temperature during run
   SMASS  =  -3.00    Nose mass-parameter (am)
   estimated Nose-frequenzy (Omega)   =  0.10E-29 period in steps = 0.13E+47 mass=  -0.374E-27a.u.
   SCALEE = 1.0000    scale energy and forces
   NPACO  =    256;   APACO  = 10.0  distance and # of slots for P.C.
   PSTRESS=    0.0 pullay stress

  Mass of Ions in am
   POMASS =  26.98
  Ionic Valenz
   ZVAL   =   3.00
  Atomic Wigner-Seitz radii
   RWIGS  =  -1.00
  virtual crystal weights 
   VCA    =   1.00
   NELECT =      12.0000    total number of electrons
   NUPDOWN=      -1.0000    fix difference up-down

 DOS related values:
   EMIN   =  10.00;   EMAX   =-10.00  energy-range for DOS
   EFERMI =   0.00;   METHOD = LEGACY      
   ISMEAR =    -5;   SIGMA  =   0.20  broadening in eV -4-tet -1-fermi 0-gaus

 Electronic relaxation 2 (details)
   IALGO  =     38    algorithm
   LDIAG  =      T    sub-space diagonalisation (order eigenvalues)
   LSUBROT=      F    optimize rotation matrix (better conditioning)
   TURBO    =      0    0=normal 1=particle mesh
   IRESTART =      0    0=no restart 2=restart with 2 vectors
   NREBOOT  =      0    no. of reboots
   NMIN     =      0    reboot dimension
   EREF     =   0.00    reference energy to select bands
   IMIX   =      4    mixing-type and parameters
     AMIX     =   0.40;   BMIX     =  1.00
     AMIX_MAG =   1.60;   BMIX_MAG =  1.00
     AMIN     =   0.10
     WC   =   100.;   INIMIX=   1;  MIXPRE=   1;  MAXMIX= -45

 Intra band minimization:
   WEIMIN = 0.0000     energy-eigenvalue tresh-hold
   EBREAK =  0.20E-08  absolut break condition
   DEPER  =   0.30     relativ break condition  

   TIME   =   0.40     timestep for ELM

  volume/ion in A,a.u.               =      16.53       111.55
  Fermi-wavevector in a.u.,A,eV,Ry     =   0.926881  1.751552 11.688885  0.859109
  Thomas-Fermi vector in A             =   2.052891
 
 Write flags
   LWAVE        =      F    write WAVECAR
   LDOWNSAMPLE  =      F    k-point downsampling of WAVECAR
   LCHARG       =      F    write CHGCAR
   LVTOT        =      F    write LOCPOT, total local potential
   LVHAR        =      F    write LOCPOT, Hartree potential only
   WRT_POTENTIAL= false  ! write potential to hdf5 file
   LELF         =      F    write electronic localiz. function (ELF)
   LORBIT       =      0    0 simple, 1 ext, 2 COOP (PROOUT), +10 PAW based schemes


 Dipole corrections
   LMONO      =      F    monopole corrections only (constant potential shift)
   LDIPOL     =      F    correct potential (dipole corrections)
   IDIPOL     =      0    1-x, 2-y, 3-z, 4-all directions 
   EPSILON    =  1.0000000 bulk dielectric constant
   LVACPOTAV  =      F  vacuum potentials using an averaging scheme for the charge density
   VACPOTFLAT =  0.1000000 required flatness to determine vacuum potential
 Exchange correlation treatment:
   GGA     = PE    functional components
   XC_C    = 1    coefficients multiplying the functional components
   LIBXC   =     F    Libxc                    
   VOSKOWN =     0    Vosko Wilk Nusair interpolation
   LHFCALC =     F    Hartree Fock is set to
   LHFONE  =     F    Hartree Fock one center treatment
   AEXX    =    0.0000 exact exchange contribution

 Parameters of functionals:
   PE:
     No parameter
 
 Van der Waals corrections
   IVDW    =     0    specifies the selected vdW correction

 Linear response parameters
   LEPSILON=     F    determine dielectric tensor
   LRPA    =     F    only Hartree local field effects (RPA)
   LNABLA  =     F    use nabla operator in PAW spheres
   LVEL    =     F    velocity operator in full k-point grid
   CSHIFT  =0.1000    complex shift for real part using Kramers Kronig
   OMEGAMAX=  -1.0    maximum frequency
   DEG_THRESHOLD= 0.2000000E-02 threshold for treating states as degnerate
   RTIME   =   -0.100 relaxation time in fs
  (WPLASMAI=    0.000 imaginary part of plasma frequency in eV, 0.658/RTIME)
   DFIELD  = 0.0000000 0.0000000 0.0000000 field for delta impulse in time
 
  Optional k-point grid parameters
   LKPOINTS_OPT  =     F    use optional k-point grid
   KPOINTS_OPT_MODE=     1    mode for optional k-point grid
 
 Orbital magnetization related:
   ORBITALMAG=     F  switch on orbital magnetization
   LCHIMAG   =     F  perturbation theory with respect to B field
   DQ        =  0.001000  dq finite difference perturbation B field
   LLRAUG    =     F  two centre corrections for induced B field
   LBONE     =     F  B-component reconstruction in AE one-centre
   LVGVCALC  =     T  calculate vGv susceptibility
   LVGVAPPL  =     F  apply vGv susceptibility instead of pGv for G=0

 Random number generation:
   RANDOM_GENERATOR = DEFAULT
   PCG_SEED         = not used


--------------------------------------------------------------------------------------------------------


 Static calculation
 charge density and potential will be updated during run
 non-spin polarized calculation
 Variant of blocked Davidson
 Davidson routine will perform the subspace rotation
 perform sub-space diagonalisation
    after iterative eigenvector-optimisation
 modified Broyden-mixing scheme, WC =      100.0
 initial mixing is a Kerker type mixing with AMIX =  0.4000 and BMIX =      1.0000
 Hartree-type preconditioning will be used
 using additional bands          122
 reciprocal scheme for non local part
 use partial core corrections
 calculate Harris-corrections to forces 
   (improved forces if not selfconsistent)
 use gradient corrections 
 use of overlap-Matrix (Vanderbilt PP)
 Fermi weights with tetrahedron method with Bloechl corrections


--------------------------------------------------------------------------------------------------------


  energy-cutoff  :      520.00
  volume of cell :       66.12
      direct lattice vectors                 reciprocal lattice vectors
     4.043689723  0.000000000  0.000000000     0.247298895 -0.000000000  0.000000000
     0.000000000  4.043689723  0.000000000     0.000000000  0.247298895  0.000000000
     0.000000000  0.000000000  4.043689723    -0.000000000 -0.000000000  0.247298895

  length of vectors
     4.043689723  4.043689723  4.043689723     0.247298895  0.247298895  0.247298895


 
 k-points in units of 2pi/SCALE and weight: pymatgen with grid density = 5000 / numb
   0.00000000  0.00000000  0.00000000       0.001
   0.02472989  0.00000000  0.00000000       0.006
   0.04945978  0.00000000  0.00000000       0.006
   0.07418967  0.00000000  0.00000000       0.006
   0.09891956  0.00000000  0.00000000       0.006
   0.12364945  0.00000000  0.00000000       0.003
   0.02472989  0.02472989  0.00000000       0.012
   0.04945978  0.02472989  0.00000000       0.024
   0.07418967  0.02472989  0.00000000       0.024
   0.09891956  0.02472989  0.00000000       0.024
   0.12364945  0.02472989  0.00000000       0.012
   0.04945978  0.04945978  0.00000000       0.012
   0.07418967  0.04945978  0.00000000       0.024
   0.09891956  0.04945978  0.00000000       0.024
   0.12364945  0.04945978  0.00000000       0.012
   0.07418967  0.07418967  0.00000000       0.012
   0.09891956  0.07418967  0.00000000       0.024
   0.12364945  0.07418967  0.00000000       0.012
   0.09891956  0.09891956  0.00000000       0.012
   0.12364945  0.09891956  0.00000000       0.012
   0.12364945  0.12364945  0.00000000       0.003
   0.02472989  0.02472989  0.02472989       0.008
   0.04945978  0.02472989  0.02472989       0.024
   0.07418967  0.02472989  0.02472989       0.024
   0.09891956  0.02472989  0.02472989       0.024
   0.12364945  0.02472989  0.02472989       0.012
   0.04945978  0.04945978  0.02472989       0.024
   0.07418967  0.04945978  0.02472989       0.048
   0.09891956  0.04945978  0.02472989       0.048
   0.12364945  0.04945978  0.02472989       0.024
   0.07418967  0.07418967  0.02472989       0.024
   0.09891956  0.07418967  0.02472989       0.048
   0.12364945  0.07418967  0.02472989       0.024
   0.09891956  0.09891956  0.02472989       0.024
   0.12364945  0.09891956  0.02472989       0.024
   0.12364945  0.12364945  0.02472989       0.006
   0.04945978  0.04945978  0.04945978       0.008
   0.07418967  0.04945978  0.04945978       0.024
   0.09891956  0.04945978  0.04945978       0.024
   0.12364945  0.04945978  0.04945978       0.012
   0.07418967  0.07418967  0.04945978       0.024
   0.09891956  0.07418967  0.04945978       0.048
   0.12364945  0.07418967  0.04945978       0.024
   0.09891956  0.09891956  0.04945978       0.024
   0.12364945  0.09891956  0.04945978       0.024
   0.12364945  0.12364945  0.04945978       0.006
   0.07418967  0.07418967  0.07418967       0.008
   0.09891956  0.07418967  0.07418967       0.024
   0.12364945  0.07418967  0.07418967       0.012
   0.09891956  0.09891956  0.07418967       0.024
   0.12364945  0.09891956  0.07418967       0.024
   0.12364945  0.12364945  0.07418967       0.006
   0.09891956  0.09891956  0.09891956       0.008
   0.12364945  0.09891956  0.09891956       0.012
   0.12364945  0.12364945  0.09891956       0.006
   0.12364945  0.12364945  0.12364945       0.001
 
 k-points in reciprocal lattice and weights: pymatgen with grid density = 5000 / numb
   0.00000000  0.00000000  0.00000000       0.001
   0.10000000  0.00000000  0.00000000       0.006
   0.20000000  0.00000000  0.00000000       0.006
   0.30000000  0.00000000  0.00000000       0.006
   0.40000000  0.00000000  0.00000000       0.006
   0.50000000  0.00000000  0.00000000       0.003
   0.10000000  0.10000000  0.00000000       0.012
   0.20000000  0.10000000  0.00000000       0.024
   0.30000000  0.10000000  0.00000000       0.024
   0.40000000  0.10000000  0.00000000       0.024
   0.50000000  0.10000000  0.00000000       0.012
   0.20000000  0.20000000  0.00000000       0.012
   0.30000000  0.20000000  0.00000000       0.024
   0.40000000  0.20000000  0.00000000       0.024
   0.50000000  0.20000000  0.00000000       0.012
   0.30000000  0.30000000  0.00000000       0.012
   0.40000000  0.30000000  0.00000000       0.024
   0.50000000  0.30000000  0.00000000       0.012
   0.40000000  0.40000000  0.00000000       0.012
   0.50000000  0.40000000  0.00000000       0.012
   0.50000000  0.50000000  0.00000000       0.003
   0.10000000  0.10000000  0.10000000       0.008
   0.20000000  0.10000000  0.10000000       0.024
   0.30000000  0.10000000  0.10000000       0.024
   0.40000000  0.10000000  0.10000000       0.024
   0.50000000  0.10000000  0.10000000       0.012
   0.20000000  0.20000000  0.10000000       0.024
   0.30000000  0.20000000  0.10000000       0.048
   0.40000000  0.20000000  0.10000000       0.048
   0.50000000  0.20000000  0.10000000       0.024
   0.30000000  0.30000000  0.10000000       0.024
   0.40000000  0.30000000  0.10000000       0.048
   0.50000000  0.30000000  0.10000000       0.024
   0.40000000  0.40000000  0.10000000       0.024
   0.50000000  0.40000000  0.10000000       0.024
   0.50000000  0.50000000  0.10000000       0.006
   0.20000000  0.20000000  0.20000000       0.008
   0.30000000  0.20000000  0.20000000       0.024
   0.40000000  0.20000000  0.20000000       0.024
   0.50000000  0.20000000  0.20000000       0.012
   0.30000000  0.30000000  0.20000000       0.024
   0.40000000  0.30000000  0.20000000       0.048
   0.50000000  0.30000000  0.20000000       0.024
   0.40000000  0.40000000  0.20000000       0.024
   0.50000000  0.40000000  0.20000000       0.024
   0.50000000  0.50000000  0.20000000       0.006
   0.30000000  0.30000000  0.30000000       0.008
   0.40000000  0.30000000  0.30000000       0.024
   0.50000000  0.30000000  0.30000000       0.012
   0.40000000  0.40000000  0.30000000       0.024
   0.50000000  0.40000000  0.30000000       0.024
   0.50000000  0.50000000  0.30000000       0.006
   0.40000000  0.40000000  0.40000000       0.008
   0.50000000  0.40000000  0.40000000       0.012
   0.50000000  0.50000000  0.40000000       0.006
   0.50000000  0.50000000  0.50000000       0.001
 
 position of ions in fractional coordinates (direct lattice) 
   0.00000000  0.00000000  0.00000000
   0.00000000  0.50000000  0.50000000
   0.50000000  0.00000000  0.50000000
   0.50000000  0.50000000  0.00000000
 
 position of ions in cartesian coordinates  (Angst):
   0.00000000  0.00000000  0.00000000
   0.00000000  2.02184486  2.02184486
   2.02184486  0.00000000  2.02184486
   2.02184486  2.02184486  0.00000000
 


--------------------------------------------------------------------------------------------------------


 k-point     1 :   0.0000 0.0000 0.0000  plane waves:    1791
 k-point     2 :   0.1000 0.0000 0.0000  plane waves:    1791
 k-point     3 :   0.2000 0.0000 0.0000  plane waves:    1795
 k-point     4 :   0.3000 0.0000 0.0000  plane waves:    1783
 k-point     5 :   0.4000 0.0000 0.0000  plane waves:    1779
 k-point     6 :   0.5000 0.0000 0.0000  plane waves:    1800
 k-point     7 :   0.1000 0.1000 0.0000  plane waves:    1793
 k-point     8 :   0.2000 0.1000 0.0000  plane waves:    1802
 k-point     9 :   0.3000 0.1000 0.0000  plane waves:    1785
 k-point    10 :   0.4000 0.1000 0.0000  plane waves:    1778
 k-point    11 :   0.5000 0.1000 0.0000  plane waves:    1788
 k-point    12 :   0.2000 0.2000 0.0000  plane waves:    1781
 k-point    13 :   0.3000 0.2000 0.0000  plane waves:    1785
 k-point    14 :   0.4000 0.2000 0.0000  plane waves:    1793
 k-point    15 :   0.5000 0.2000 0.0000  plane waves:    1786
 k-point    16 :   0.3000 0.3000 0.0000  plane waves:    1785
 k-point    17 :   0.4000 0.3000 0.0000  plane waves:    1787
 k-point    18 :   0.5000 0.3000 0.0000  plane waves:    1768
 k-point    19 :   0.4000 0.4000 0.0000  plane waves:    1774
 k-point    20 :   0.5000 0.4000 0.0000  plane waves:    1760
 k-point    21 :   0.5000 0.5000 0.0000  plane waves:    1772
 k-point    22 :   0.1000 0.1000 0.1000  plane waves:    1806
 k-point    23 :   0.2000 0.1000 0.1000  plane waves:    1793
 k-point    24 :   0.3000 0.1000 0.1000  plane waves:    1792
 k-point    25 :   0.4000 0.1000 0.1000  plane waves:    1778
 k-point    26 :   0.5000 0.1000 0.1000  plane waves:    1786
 k-point    27 :   0.2000 0.2000 0.1000  plane waves:    1791
 k-point    28 :   0.3000 0.2000 0.1000  plane waves:    1784
 k-point    29 :   0.4000 0.2000 0.1000  plane waves:    1781
 k-point    30 :   0.5000 0.2000 0.1000  plane waves:    1776
 k-point    31 :   0.3000 0.3000 0.1000  plane waves:    1781
 k-point    32 :   0.4000 0.3000 0.1000  plane waves:    1781
 k-point    33 :   0.5000 0.3000 0.1000  plane waves:    1764
 k-point    34 :   0.4000 0.4000 0.1000  plane waves:    1772
 k-point    35 :   0.5000 0.4000 0.1000  plane waves:    1768
 k-point    36 :   0.5000 0.5000 0.1000  plane waves:    1776
 k-point    37 :   0.2000 0.2000 0.2000  plane waves:    1794
 k-point    38 :   0.3000 0.2000 0.2000  plane waves:    1776
 k-point    39 :   0.4000 0.2000 0.2000  plane waves:    1777
 k-point    40 :   0.5000 0.2000 0.2000  plane waves:    1770
 k-point    41 :   0.3000 0.3000 0.2000  plane waves:    1783
 k-point    42 :   0.4000 0.3000 0.2000  plane waves:    1775
 k-point    43 :   0.5000 0.3000 0.2000  plane waves:    1770
 k-point    44 :   0.4000 0.4000 0.2000  plane waves:    1769
 k-point    45 :   0.5000 0.4000 0.2000  plane waves:    1776
 k-point    46 :   0.5000 0.5000 0.2000  plane waves:    1768
 k-point    47 :   0.3000 0.3000 0.3000  plane waves:    1785
 k-point    48 :   0.4000 0.3000 0.3000  plane waves:    1770
 k-point    49 :   0.5000 0.3000 0.3000  plane waves:    1784
 k-point    50 :   0.4000 0.4000 0.3000  plane waves:    1768
 k-point    51 :   0.5000 0.4000 0.3000  plane waves:    1772
 k-point    52 :   0.5000 0.5000 0.3000  plane waves:    1780
 k-point    53 :   0.4000 0.4000 0.4000  plane waves:    1778
 k-point    54 :   0.5000 0.4000 0.4000  plane waves:    1776
 k-point    55 :   0.5000 0.5000 0.4000  plane waves:    1788
 k-point    56 :   0.5000 0.5000 0.5000  plane waves:    1736

 maximum and minimum number of plane-waves per node :      1806     1736

 maximum number of plane-waves:      1806
 maximum index in each direction: 
   IXMAX=    7   IYMAX=    7   IZMAX=    7
   IXMIN=   -8   IYMIN=   -8   IZMIN=   -7


 serial   3D FFT for wavefunctions
 parallel 3D FFT for charge:
    minimum data exchange during FFTs selected (reduces bandwidth)


 total amount of memory used by VASP MPI-rank0    40378. kBytes
=======================================================================

   base      :      30000. kBytes
   nonl-proj :       7004. kBytes
   fftplans  :        256. kBytes
   grid      :       1271. kBytes
   one-center:         12. kBytes
   wavefun   :       1835. kBytes
 
     INWAV:  cpu time      0.0000: real time      0.0000
 Broyden mixing: mesh for mixing (old mesh)
   NGX = 15   NGY = 15   NGZ = 15
  (NGX  = 60   NGY  = 60   NGZ  = 60)
  gives a total of   3375 points

 initial charge density was supplied:
 charge density of overlapping atoms calculated
 number of electron      12.0000000 magnetization 
 keeping initial charge density in first step


--------------------------------------------------------------------------------------------------------


 Maximum index for augmentation-charges          749 (set IRDMAX)


--------------------------------------------------------------------------------------------------------


 First call to EWALD:  gamma=   0.438
 Maximum number of real-space cells 3x 3x 3
 Maximum number of reciprocal cells 3x 3x 3

    FEWALD:  cpu time      0.0038: real time      0.0039


--------------------------------------- Ionic step        1  -------------------------------------------




--------------------------------------- Iteration      1(   1)  ---------------------------------------


    POTLOK:  cpu time      0.0189: real time      0.0400
    SETDIJ:  cpu time      0.0095: real time      0.0101
     EDDAV:  cpu time     32.6612: real time     32.8108
 BZINTS: Fermi energy:    8.091547;   12.000000 electrons
         Band energy: 0.437703E+02;  BLOECHL correction:   -0.243977
       DOS:  cpu time      0.0344: real time      0.0351
    --------------------------------------------
      LOOP:  cpu time     32.7239: real time     32.8960

 eigenvalue-minimisations  : 20224
 total energy-change (2. order) :-0.1433563E+02  (-0.4708423E+03)
 number of electron      12.0000000 magnetization 
 augmentation part       12.0000000 magnetization 

 Free energy of the ion-electron system (eV)
  ---------------------------------------------------
  alpha Z        PSCENC =        -0.81277799
  Ewald energy   TEWEN  =      -293.88473869
  -Hartree energ DENC   =        -0.40832449
  -exchange      EXHF   =         0.00000000
  -V(xc)+E(xc)   XCENC  =      -104.97206531
  PAW double counting   =       264.80062850     -136.98248303
  entropy T*S    EENTRO =         0.00000000
  eigenvalues    EBANDS =        43.77030772
  atomic energy  EATOM  =       214.15382826
  Solvation  Ediel_sol  =         0.00000000
  ---------------------------------------------------
  free energy    TOTEN  =       -14.33562503 eV

  energy without entropy =      -14.33562503  energy(sigma->0) =      -14.33562503


--------------------------------------------------------------------------------------------------------




--------------------------------------- Iteration      1(   2)  ---------------------------------------


     EDDAV:  cpu time     41.0961: real time     41.2828
 BZINTS: Fermi energy:    7.985615;   12.000000 electrons
         Band energy: 0.430437E+02;  BLOECHL correction:   -0.239065
       DOS:  cpu time      0.0265: real time      0.0266
    --------------------------------------------
      LOOP:  cpu time     41.1225: real time     41.3094

 eigenvalue-minimisations  : 22144
 total energy-change (2. order) :-0.7266478E+00  (-0.7244294E+00)
 number of electron      12.0000000 magnetization 
 augmentation part       12.0000000 magnetization 

 Free energy of the ion-electron system (eV)
  ---------------------------------------------------
  alpha Z        PSCENC =        -0.81277799
  Ewald energy   TEWEN  =      -293.88473869
  -Hartree energ DENC   =        -0.40832449
  -exchange      EXHF   =         0.00000000
  -V(xc)+E(xc)   XCENC  =      -104.97206531
  PAW double counting   =       264.80062850     -136.98248303
  entropy T*S    EENTRO =         0.00000000
  eigenvalues    EBANDS =        43.04365995
  atomic energy  EATOM  =       214.15382826
  Solvation  Ediel_sol  =         0.00000000
  ---------------------------------------------------
  free energy    TOTEN  =       -15.06227280 eV

  energy without entropy =      -15.06227280  energy(sigma->0) =      -15.06227280


--------------------------------------------------------------------------------------------------------




--------------------------------------- Iteration      1(   3)  ---------------------------------------


     EDDAV:  cpu time     22.7132: real time     22.8266
 BZINTS: Fermi energy:    7.985598;   12.000000 electrons
         Band energy: 0.430436E+02;  BLOECHL correction:   -0.239065
       DOS:  cpu time      0.0253: real time      0.0255
    --------------------------------------------
      LOOP:  cpu time     22.7385: real time     22.8522

 eigenvalue-minimisations  : 15872
 total energy-change (2. order) :-0.1070943E-03  (-0.1064826E-03)
 number of electron      12.0000000 magnetization 
 augmentation part       12.0000000 magnetization 

 Free energy of the ion-electron system (eV)
  ---------------------------------------------------
  alpha Z        PSCENC =        -0.81277799
  Ewald energy   TEWEN  =      -293.88473869
  -Hartree energ DENC   =        -0.40832449
  -exchange      EXHF   =         0.00000000
  -V(xc)+E(xc)   XCENC  =      -104.97206531
  PAW double counting   =       264.80062850     -136.98248303
  entropy T*S    EENTRO =         0.00000000
  eigenvalues    EBANDS =        43.04355285
  atomic energy  EATOM  =       214.15382826
  Solvation  Ediel_sol  =         0.00000000
  ---------------------------------------------------
  free energy    TOTEN  =       -15.06237990 eV

  energy without entropy =      -15.06237990  energy(sigma->0) =      -15.06237990


--------------------------------------------------------------------------------------------------------




--------------------------------------- Iteration      1(   4)  ---------------------------------------


     EDDAV:  cpu time     70.5732: real time     70.8865
 BZINTS: Fermi energy:    7.985598;   12.000000 electrons
         Band energy: 0.430436E+02;  BLOECHL correction:   -0.239065
       DOS:  cpu time      0.0259: real time      0.0261
    --------------------------------------------
      LOOP:  cpu time     70.5991: real time     70.9126

 eigenvalue-minimisations  : 26880
 total energy-change (2. order) :-0.1888452E-08  (-0.1954245E-08)
 number of electron      12.0000000 magnetization 
 augmentation part       12.0000000 magnetization 

 Free energy of the ion-electron system (eV)
  ---------------------------------------------------
  alpha Z        PSCENC =        -0.81277799
  Ewald energy   TEWEN  =      -293.88473869
  -Hartree energ DENC   =        -0.40832449
  -exchange      EXHF   =         0.00000000
  -V(xc)+E(xc)   XCENC  =      -104.97206531
  PAW double counting   =       264.80062850     -136.98248303
  entropy T*S    EENTRO =         0.00000000
  eigenvalues    EBANDS =        43.04355285
  atomic energy  EATOM  =       214.15382826
  Solvation  Ediel_sol  =         0.00000000
  ---------------------------------------------------
  free energy    TOTEN  =       -15.06237990 eV

  energy without entropy =      -15.06237990  energy(sigma->0) =      -15.06237990


--------------------------------------------------------------------------------------------------------




--------------------------------------- Iteration      1(   5)  ---------------------------------------


     EDDAV:  cpu time     24.4445: real time     24.5643
 BZINTS: Fermi energy:    7.985598;   12.000000 electrons
         Band energy: 0.430436E+02;  BLOECHL correction:   -0.239065
       DOS:  cpu time      0.0259: real time      0.0261
    CHARGE:  cpu time      0.0385: real time      0.0393
    MIXING:  cpu time      0.0066: real time      0.0069
    --------------------------------------------
      LOOP:  cpu time     24.5156: real time     24.6366

 eigenvalue-minimisations  : 15872
 total energy-change (2. order) : 0.8450343E-09  ( 0.4457727E-12)
 number of electron      12.0000000 magnetization 
 augmentation part       -0.1486734 magnetization 

 Broyden mixing:
  rms(total) = 0.25977E+00    rms(broyden)= 0.25977E+00
  rms(prec ) = 0.46962E+00
  weight for this iteration     100.00

 Free energy of the ion-electron system (eV)
  ---------------------------------------------------
  alpha Z        PSCENC =        -0.81277799
  Ewald energy   TEWEN  =      -293.88473869
  -Hartree energ DENC   =        -0.40832449
  -exchange      EXHF   =         0.00000000
  -V(xc)+E(xc)   XCENC  =      -104.97206531
  PAW double counting   =       264.80062850     -136.98248303
  entropy T*S    EENTRO =         0.00000000
  eigenvalues    EBANDS =        43.04355285
  atomic energy  EATOM  =       214.15382826
  Solvation  Ediel_sol  =         0.00000000
  ---------------------------------------------------
  free energy    TOTEN  =       -15.06237990 eV

  energy without entropy =      -15.06237990  energy(sigma->0) =      -15.06237990


--------------------------------------------------------------------------------------------------------




--------------------------------------- Iteration      1(   6)  ---------------------------------------


    POTLOK:  cpu time      0.0260: real time      0.0267
    SETDIJ:  cpu time      0.0012: real time      0.0012
     EDDAV:  cpu time     28.9361: real time     29.0665
 BZINTS: Fermi energy:    7.972483;   12.000000 electrons
         Band energy: 0.428988E+02;  BLOECHL correction:   -0.239471
       DOS:  cpu time      0.0249: real time      0.0252
    CHARGE:  cpu time      0.0270: real time      0.0271
    MIXING:  cpu time      0.0038: real time      0.0039
    --------------------------------------------
      LOOP:  cpu time     29.0191: real time     29.1506

 eigenvalue-minimisations  : 17408
 total energy-change (2. order) : 0.5193823E-01  (-0.6772624E-03)
 number of electron      12.0000000 magnetization 
 augmentation part       -0.1508404 magnetization 

 Broyden mixing:
  rms(total) = 0.15102E+00    rms(broyden)= 0.15102E+00
  rms(prec ) = 0.28755E+00
  weight for this iteration     100.00

 eigenvalues of (default mixing * dielectric matrix)
  average eigenvalue GAMMA=   2.3340
  2.3340

 Free energy of the ion-electron system (eV)
  ---------------------------------------------------
  alpha Z        PSCENC =        -0.81277799
  Ewald energy   TEWEN  =      -293.88473869
  -Hartree energ DENC   =        -0.34009813
  -exchange      EXHF   =         0.00000000
  -V(xc)+E(xc)   XCENC  =      -104.83196996
  PAW double counting   =       378.61769490     -250.81116601
  entropy T*S    EENTRO =         0.00000000
  eigenvalues    EBANDS =        42.89878597
  atomic energy  EATOM  =       214.15382826
  Solvation  Ediel_sol  =         0.00000000
  ---------------------------------------------------
  free energy    TOTEN  =       -15.01044166 eV

  energy without entropy =      -15.01044166  energy(sigma->0) =      -15.01044166


--------------------------------------------------------------------------------------------------------




--------------------------------------- Iteration      1(   7)  ---------------------------------------


    POTLOK:  cpu time      0.0252: real time      0.0260
    SETDIJ:  cpu time      0.0011: real time      0.0011
     EDDAV:  cpu time     36.9851: real time     37.1488
 BZINTS: Fermi energy:    7.957245;   12.000000 electrons
         Band energy: 0.427447E+02;  BLOECHL correction:   -0.240172
       DOS:  cpu time      0.0253: real time      0.0256
    CHARGE:  cpu time      0.0270: real time      0.0272
    MIXING:  cpu time      0.0026: real time      0.0027
    --------------------------------------------
      LOOP:  cpu time     37.0663: real time     37.2313

 eigenvalue-minimisations  : 19968
 total energy-change (2. order) : 0.3728198E-01  (-0.1922430E-02)
 number of electron      12.0000000 magnetization 
 augmentation part       -0.1549424 magnetization 

 Broyden mixing:
  rms(total) = 0.26862E-01    rms(broyden)= 0.26862E-01
  rms(prec ) = 0.29132E-01
  weight for this iteration     100.00

 eigenvalues of (default mixing * dielectric matrix)
  average eigenvalue GAMMA=   2.8552
  2.8552  2.8552

 Free energy of the ion-electron system (eV)
  ---------------------------------------------------
  alpha Z        PSCENC =        -0.81277799
  Ewald energy   TEWEN  =      -293.88473869
  -Hartree energ DENC   =        -0.39723577
  -exchange      EXHF   =         0.00000000
  -V(xc)+E(xc)   XCENC  =      -104.55844516
  PAW double counting   =       604.14454625     -476.36308436
  entropy T*S    EENTRO =         0.00000000
  eigenvalues    EBANDS =        42.74474778
  atomic energy  EATOM  =       214.15382826
  Solvation  Ediel_sol  =         0.00000000
  ---------------------------------------------------
  free energy    TOTEN  =       -14.97315969 eV

  energy without entropy =      -14.97315969  energy(sigma->0) =      -14.97315969


--------------------------------------------------------------------------------------------------------




--------------------------------------- Iteration      1(   8)  ---------------------------------------


    POTLOK:  cpu time      0.0254: real time      0.0261
    SETDIJ:  cpu time      0.0011: real time      0.0011
     EDDAV:  cpu time     33.1200: real time     33.2696
 BZINTS: Fermi energy:    7.957692;   12.000000 electrons
         Band energy: 0.427523E+02;  BLOECHL correction:   -0.240191
       DOS:  cpu time      0.0254: real time      0.0256
    CHARGE:  cpu time      0.0272: real time      0.0273
    MIXING:  cpu time      0.0004: real time      0.0004
    --------------------------------------------
      LOOP:  cpu time     33.1995: real time     33.3501

 eigenvalue-minimisations  : 18688
 total energy-change (2. order) : 0.1001214E-03  (-0.2962993E-05)
 number of electron      12.0000000 magnetization 
 augmentation part       -0.1552188 magnetization 

 Broyden mixing:
  rms(total) = 0.40423E-02    rms(broyden)= 0.40423E-02
  rms(prec ) = 0.51764E-02
  weight for this iteration     100.00

 eigenvalues of (default mixing * dielectric matrix)
  average eigenvalue GAMMA=   2.1084
  1.0652  2.5307  2.7294

 Free energy of the ion-electron system (eV)
  ---------------------------------------------------
  alpha Z        PSCENC =        -0.81277799
  Ewald energy   TEWEN  =      -293.88473869
  -Hartree energ DENC   =        -0.41156964
  -exchange      EXHF   =         0.00000000
  -V(xc)+E(xc)   XCENC  =      -104.53962904
  PAW double counting   =       552.40796591     -424.63845217
  entropy T*S    EENTRO =         0.00000000
  eigenvalues    EBANDS =        42.75231381
  atomic energy  EATOM  =       214.15382826
  Solvation  Ediel_sol  =         0.00000000
  ---------------------------------------------------
  free energy    TOTEN  =       -14.97305957 eV

  energy without entropy =      -14.97305957  energy(sigma->0) =      -14.97305957


--------------------------------------------------------------------------------------------------------




--------------------------------------- Iteration      1(   9)  ---------------------------------------


    POTLOK:  cpu time      0.0211: real time      0.0267
    SETDIJ:  cpu time      0.0010: real time      0.0010
     EDDAV:  cpu time     48.9278: real time     49.1405
 BZINTS: Fermi energy:    7.957452;   12.000000 electrons
         Band energy: 0.427498E+02;  BLOECHL correction:   -0.240198
       DOS:  cpu time      0.0253: real time      0.0254
    --------------------------------------------
      LOOP:  cpu time     48.9752: real time     49.1937

 eigenvalue-minimisations  : 22528
 total energy-change (2. order) : 0.6962636E-06  (-0.4144728E-06)
 number of electron      12.0000000 magnetization 
 augmentation part       -0.1552188 magnetization 

 Free energy of the ion-electron system (eV)
  ---------------------------------------------------
  alpha Z        PSCENC =        -0.81277799
  Ewald energy   TEWEN  =      -293.88473869
  -Hartree energ DENC   =        -0.41318524
  -exchange      EXHF   =         0.00000000
  -V(xc)+E(xc)   XCENC  =      -104.53611324
  PAW double counting   =       559.41261367     -431.64250163
  entropy T*S    EENTRO =         0.00000000
  eigenvalues    EBANDS =        42.74981600
  atomic energy  EATOM  =       214.15382826
  Solvation  Ediel_sol  =         0.00000000
  ---------------------------------------------------
  free energy    TOTEN  =       -14.97305887 eV

  energy without entropy =      -14.97305887  energy(sigma->0) =      -14.97305887


--------------------------------------------------------------------------------------------------------




 average (electrostatic) potential at core
  the test charge radii are     1.0406
  (the norm of the test charge is              1.0000)
       1 -72.6508       2 -72.6508       3 -72.6508       4 -72.6508
 
 
 
 E-fermi :   7.9575     XC(G=0): -10.1903     alpha+bet :-14.8493

 val. band max:        8.3134854420   @ k =   0.2000   0.2000   0.2000
 cond. band min:       7.7308253213   @ k =   0.1000   0.1000   0.0000
 fundamental gap:     -0.5826601206
 Fermi energy:         7.9574524542

 k-point     1 :       0.0000    0.0000    0.0000
  band No.  band energies     occupation 
      1      -3.1410      2.00000
      2       5.0614      2.00000
      3       5.0614      2.00000
      4       5.0614      2.00000
      5       6.3806      2.00000
      6       6.3806      2.00000
      7       6.3806      2.00000
      8      13.2381      0.00000
      9      13.2381      0.00000
     10      13.2381      0.00000
     11      13.5668      0.00000
     12      13.5668      0.00000
     13      13.5668      0.00000
     14      13.5668      0.00000
     15      13.5668      0.00000
     16      13.5668      0.00000
     17      17.0322      0.00000
     18      17.0322      0.00000
     19      17.0322      0.00000
     20      20.5898      0.00000
     21      20.5898      0.00000
     22      20.5898      0.00000
     23      22.0678      0.00000
     24      22.0678      0.00000
     25      22.0678      0.00000
     26      24.4330      0.00000
     27      27.3790      0.00000
     28      27.3790      0.00000
     29      30.2402      0.00000
     30      32.5918      0.00000
     31      32.5918      0.00000
     32      32.5918      0.00000
     33      33.3588      0.00000
     34      33.3588      0.00000
     35      33.3588      0.00000
     36      34.8674      0.00000
     37      34.8674      0.00000
     38      34.8674      0.00000
     39      34.8674      0.00000
     40      34.8674      0.00000
     41      34.8674      0.00000
     42      40.5320      0.00000
     43      40.5320      0.00000
     44      40.5320      0.00000
     45      41.1850      0.00000
     46      41.3351      0.00000
     47      41.3351      0.00000
     48      41.3351      0.00000
     49      41.3351      0.00000
     50      41.3351      0.00000
     51      41.3351      0.00000
     52      41.7453      0.00000
     53      41.7453      0.00000
     54      41.7453      0.00000
     55      42.6774      0.00000
     56      42.6774      0.00000
     57      42.6774      0.00000
     58      48.4096      0.00000
     59      48.4096      0.00000
     60      48.4096      0.00000
     61      48.4096      0.00000
     62      48.4096      0.00000
     63      48.4096      0.00000
     64      49.0187      0.00000
     65      49.0187      0.00000
     66      49.0187      0.00000
     67      49.4074      0.00000
     68      49.4074      0.00000
     69      49.4074      0.00000
     70      49.4074      0.00000
     71      49.4074      0.00000
     72      49.4074      0.00000
     73      50.3763      0.00000
     74      50.3763      0.00000
     75      50.3763      0.00000
     76      50.5646      0.00000
     77      50.5646      0.00000
     78      50.5646      0.00000
     79      52.5768      0.00000
     80      52.5768      0.00000
     81      52.5768      0.00000
     82      56.0677      0.00000
     83      56.0677      0.00000
     84      56.0677      0.00000
     85      56.1053      0.00000
     86      57.0560      0.00000
     87      57.0560      0.00000
     88      57.0560      0.00000
     89      57.0560      0.00000
     90      57.0560      0.00000
     91      57.0560      0.00000
     92      59.3524      0.00000
     93      59.3524      0.00000
     94      59.3524      0.00000
     95      59.5282      0.00000
     96      59.5282      0.00000
     97      59.5282      0.00000
     98      59.7947      0.00000
     99      59.7947      0.00000
    100      59.7947      0.00000
    101      62.9785      0.00000
    102      62.9785      0.00000
    103      63.9533      0.00000
    104      63.9533      0.00000
    105      63.9533      0.00000
    106      65.2200      0.00000
    107      65.2200      0.00000
    108      65.2200      0.00000
    109      72.1721      0.00000
    110      72.1721      0.00000
    111      72.1721      0.00000
    112      73.3527      0.00000
    113      73.3527      0.00000
    114      73.3527      0.00000
    115      75.2725      0.00000
    116      75.2725      0.00000
    117      75.2725      0.00000
    118      75.4151      0.00000
    119      75.4151      0.00000
    120      75.4151      0.00000
    121      75.4151      0.00000
    122      75.4151      0.00000
    123      75.4151      0.00000
    124      76.2582      0.00000
    125      76.2582      0.00000
    126      76.2582      0.00000
    127      77.0498      0.00000
    128      77.0498      0.00000

 k-point     2 :       0.1000    0.0000    0.0000
  band No.  band energies     occupation 
      1      -3.0505      2.00000
      2       3.9522      2.00000
      3       5.1442      2.00000
      4       5.1442      2.00000
      5       6.4681      2.00320
      6       6.4681      2.07720
      7       7.6465      1.46526
      8      11.8047      0.00000
      9      11.8047      0.00000
     10      12.9693      0.00000
     11      12.9693      0.00000
     12      13.3274      0.00000
     13      13.6436      0.00000
     14      13.6436      0.00000
     15      15.1675      0.00000
     16      15.1675      0.00000
     17      17.1151      0.00000
     18      17.7648      0.00000
     19      17.7648      0.00000
     20      19.6998      0.00000
     21      19.6998      0.00000
     22      19.9521      0.00000
     23      21.8479      0.00000
     24      23.0909      0.00000
     25      23.0909      0.00000
     26      25.2516      0.00000
     27      26.2441      0.00000
     28      27.4629      0.00000
     29      30.2217      0.00000
     30      32.6948      0.00000
     31      32.6948      0.00000
     32      32.8708      0.00000
     33      32.8708      0.00000
     34      33.0156      0.00000
     35      33.7502      0.00000
     36      33.7502      0.00000
     37      33.9221      0.00000
     38      34.5602      0.00000
     39      34.5602      0.00000
     40      34.8870      0.00000
     41      34.8870      0.00000
     42      40.6680      0.00000
     43      40.6702      0.00000
     44      40.6702      0.00000
     45      40.9832      0.00000
     46      40.9832      0.00000
     47      41.0527      0.00000
     48      41.3832      0.00000
     49      41.3832      0.00000
     50      41.5010      0.00000
     51      41.5010      0.00000
     52      41.5654      0.00000
     53      42.1475      0.00000
     54      42.1475      0.00000
     55      43.3090      0.00000
     56      43.4901      0.00000
     57      43.4901      0.00000
     58      46.0921      0.00000
     59      46.0921      0.00000
     60      46.1895      0.00000
     61      47.6512      0.00000
     62      47.6512      0.00000
     63      47.7086      0.00000
     64      47.7086      0.00000
     65      48.2356      0.00000
     66      48.2356      0.00000
     67      49.7227      0.00000
     68      49.7227      0.00000
     69      50.6642      0.00000
     70      50.8341      0.00000
     71      50.8341      0.00000
     72      51.3620      0.00000
     73      51.3620      0.00000
     74      51.3817      0.00000
     75      51.3817      0.00000
     76      52.1611      0.00000
     77      52.1611      0.00000
     78      52.7303      0.00000
     79      52.7303      0.00000
     80      52.9185      0.00000
     81      53.3094      0.00000
     82      55.7731      0.00000
     83      55.9087      0.00000
     84      55.9087      0.00000
     85      56.3850      0.00000
     86      56.8135      0.00000
     87      56.8135      0.00000
     88      56.9121      0.00000
     89      56.9121      0.00000
     90      57.0759      0.00000
     91      57.0759      0.00000
     92      58.5462      0.00000
     93      58.5462      0.00000
     94      59.0187      0.00000
     95      59.4124      0.00000
     96      59.5182      0.00000
     97      59.5182      0.00000
     98      60.1468      0.00000
     99      60.1915      0.00000
    100      60.1915      0.00000
    101      60.5524      0.00000
    102      62.9685      0.00000
    103      63.7774      0.00000
    104      63.7774      0.00000
    105      63.8822      0.00000
    106      66.1556      0.00000
    107      66.1556      0.00000
    108      67.7699      0.00000
    109      69.7769      0.00000
    110      72.2343      0.00000
    111      72.2343      0.00000
    112      72.2966      0.00000
    113      72.3129      0.00000
    114      72.3129      0.00000
    115      72.6001      0.00000
    116      72.6001      0.00000
    117      73.4357      0.00000
    118      73.4357      0.00000
    119      74.6665      0.00000
    120      74.6665      0.00000
    121      75.0231      0.00000
    122      75.0231      0.00000
    123      76.5288      0.00000
    124      77.1137      0.00000
    125      77.2652      0.00000
    126      77.5752      0.00000
    127      77.5752      0.00000
    128      78.1333      0.00000

 k-point     3 :       0.2000    0.0000    0.0000
  band No.  band energies     occupation 
      1      -2.7793      2.00000
      2       2.5253      2.00000
      3       5.3929      2.00000
      4       5.3929      2.00000
      5       6.7288      2.02456
      6       6.7288      2.54203
      7       9.5434     -0.15124
      8      10.3874      0.00000
      9      10.3874      0.00000
     10      11.8399      0.00000
     11      11.8399      0.00000
     12      13.5951      0.00000
     13      13.8742      0.00000
     14      13.8742      0.00000
     15      17.0859      0.00000
     16      17.0859      0.00000
     17      17.3612      0.00000
     18      18.4659      0.00000
     19      18.4659      0.00000
     20      18.7495      0.00000
     21      19.2970      0.00000
     22      19.2970      0.00000
     23      21.2776      0.00000
     24      23.8926      0.00000
     25      24.7140      0.00000
     26      24.7140      0.00000
     27      26.9965      0.00000
     28      27.7136      0.00000
     29      30.8194      0.00000
     30      31.4555      0.00000
     31      31.4555      0.00000
     32      31.5430      0.00000
     33      31.5430      0.00000
     34      32.2016      0.00000
     35      33.0122      0.00000
     36      33.0122      0.00000
     37      33.7731      0.00000
     38      33.7731      0.00000
     39      34.9395      0.00000
     40      34.9395      0.00000
     41      36.0351      0.00000
     42      39.0898      0.00000
     43      40.0807      0.00000
     44      40.0807      0.00000
     45      41.1144      0.00000
     46      41.1144      0.00000
     47      41.4464      0.00000
     48      41.4464      0.00000
     49      41.5265      0.00000
     50      41.5265      0.00000
     51      42.3992      0.00000
     52      42.7802      0.00000
     53      42.9255      0.00000
     54      42.9564      0.00000
     55      42.9564      0.00000
     56      43.5057      0.00000
     57      44.2093      0.00000
     58      44.2093      0.00000
     59      44.7387      0.00000
     60      44.7387      0.00000
     61      46.3633      0.00000
     62      46.3633      0.00000
     63      46.5911      0.00000
     64      46.5911      0.00000
     65      48.4900      0.00000
     66      48.4900      0.00000
     67      50.9327      0.00000
     68      50.9327      0.00000
     69      51.1957      0.00000
     70      52.4886      0.00000
     71      52.4886      0.00000
     72      53.1194      0.00000
     73      53.1194      0.00000
     74      53.1891      0.00000
     75      53.1891      0.00000
     76      53.1917      0.00000
     77      53.1917      0.00000
     78      53.7633      0.00000
     79      55.0347      0.00000
     80      55.0347      0.00000
     81      55.3958      0.00000
     82      55.4182      0.00000
     83      55.4182      0.00000
     84      56.3301      0.00000
     85      56.3301      0.00000
     86      56.5010      0.00000
     87      56.5010      0.00000
     88      56.6349      0.00000
     89      56.7920      0.00000
     90      57.2986      0.00000
     91      57.2986      0.00000
     92      57.4166      0.00000
     93      57.4166      0.00000
     94      57.4221      0.00000
     95      58.2873      0.00000
     96      59.4874      0.00000
     97      59.4874      0.00000
     98      59.5890      0.00000
     99      60.1413      0.00000
    100      61.0783      0.00000
    101      61.0783      0.00000
    102      62.8671      0.00000
    103      63.3654      0.00000
    104      63.3654      0.00000
    105      63.8013      0.00000
    106      66.9248      0.00000
    107      67.9609      0.00000
    108      67.9609      0.00000
    109      69.0075      0.00000
    110      69.0075      0.00000
    111      69.8585      0.00000
    112      69.8585      0.00000
    113      70.1454      0.00000
    114      71.2277      0.00000
    115      71.2283      0.00000
    116      71.2283      0.00000
    117      72.4332      0.00000
    118      72.4332      0.00000
    119      73.6525      0.00000
    120      73.6525      0.00000
    121      74.2768      0.00000
    122      74.2768      0.00000
    123      76.4966      0.00000
    124      76.4966      0.00000
    125      77.2987      0.00000
    126      77.2999      0.00000
    127      77.8194      0.00000
    128      77.8194      0.00000

 k-point     4 :       0.3000    0.0000    0.0000
  band No.  band energies     occupation 
      1      -2.3285      2.00000
      2       1.2242      2.00000
      3       5.8077      2.00000
      4       5.8077      2.00000
      5       7.1550      2.03014
      6       7.1550      2.54785
      7       9.1361      0.00000
      8       9.1361      0.00000
      9      10.6888      0.00000
     10      10.6888      0.00000
     11      11.6265      0.00000
     12      14.0403      0.00000
     13      14.2588      0.00000
     14      14.2588      0.00000
     15      17.3307      0.00000
     16      17.3307      0.00000
     17      17.5255      0.00000
     18      17.7635      0.00000
     19      19.1685      0.00000
     20      19.1685      0.00000
     21      20.5253      0.00000
     22      21.1082      0.00000
     23      21.1082      0.00000
     24      21.3028      0.00000
     25      26.4616      0.00000
     26      26.4616      0.00000
     27      28.1285      0.00000
     28      28.8805      0.00000
     29      28.8805      0.00000
     30      29.1236      0.00000
     31      29.7121      0.00000
     32      29.7121      0.00000
     33      31.2324      0.00000
     34      31.8303      0.00000
     35      32.6987      0.00000
     36      32.6987      0.00000
     37      33.5724      0.00000
     38      33.5724      0.00000
     39      35.0066      0.00000
     40      35.0066      0.00000
     41      37.4771      0.00000
     42      37.8876      0.00000
     43      39.3018      0.00000
     44      39.3018      0.00000
     45      39.8044      0.00000
     46      39.8775      0.00000
     47      39.8775      0.00000
     48      41.7618      0.00000
     49      41.7618      0.00000
     50      41.8987      0.00000
     51      41.8987      0.00000
     52      42.9609      0.00000
     53      43.1661      0.00000
     54      43.1661      0.00000
     55      44.2549      0.00000
     56      44.2796      0.00000
     57      44.2796      0.00000
     58      44.9021      0.00000
     59      45.1662      0.00000
     60      45.1662      0.00000
     61      45.5100      0.00000
     62      45.5100      0.00000
     63      45.7492      0.00000
     64      45.7492      0.00000
     65      49.6081      0.00000
     66      49.6081      0.00000
     67      52.1241      0.00000
     68      52.9964      0.00000
     69      52.9964      0.00000
     70      53.2025      0.00000
     71      53.2025      0.00000
     72      53.6922      0.00000
     73      53.6922      0.00000
     74      53.8993      0.00000
     75      53.8993      0.00000
     76      54.4030      0.00000
     77      54.9441      0.00000
     78      54.9609      0.00000
     79      55.2955      0.00000
     80      55.2955      0.00000
     81      55.6621      0.00000
     82      55.6621      0.00000
     83      55.8743      0.00000
     84      55.8743      0.00000
     85      56.0440      0.00000
     86      56.0440      0.00000
     87      56.7308      0.00000
     88      56.7308      0.00000
     89      56.8645      0.00000
     90      56.9675      0.00000
     91      57.0021      0.00000
     92      57.0021      0.00000
     93      59.3964      0.00000
     94      59.4513      0.00000
     95      59.4513      0.00000
     96      59.6656      0.00000
     97      59.6743      0.00000
     98      59.6743      0.00000
     99      59.8662      0.00000
    100      61.9350      0.00000
    101      61.9350      0.00000
    102      62.4329      0.00000
    103      62.9685      0.00000
    104      62.9685      0.00000
    105      64.3756      0.00000
    106      65.5281      0.00000
    107      65.8794      0.00000
    108      65.8794      0.00000
    109      67.3605      0.00000
    110      67.3605      0.00000
    111      67.8572      0.00000
    112      67.8572      0.00000
    113      68.0394      0.00000
    114      69.6001      0.00000
    115      69.6001      0.00000
    116      71.9874      0.00000
    117      71.9874      0.00000
    118      72.7048      0.00000
    119      72.7048      0.00000
    120      73.5156      0.00000
    121      73.5156      0.00000
    122      73.5552      0.00000
    123      73.5552      0.00000
    124      74.5930      0.00000
    125      76.5971      0.00000
    126      76.5971      0.00000
    127      77.5400      0.00000
    128      77.5785      0.00000

 k-point     5 :       0.4000    0.0000    0.0000
  band No.  band energies     occupation 
      1      -1.6997      2.00000
      2       0.0808      2.00000
      3       6.3889      2.00000
      4       6.3889      2.00000
      5       7.7174      1.99137
      6       7.7174      2.04304
      7       8.0526      0.00000
      8       8.0526      0.00000
      9       9.6692      0.00000
     10       9.6692      0.00000
     11      13.8608      0.00000
     12      14.6613      0.00000
     13      14.7975      0.00000
     14      14.7975      0.00000
     15      16.3355      0.00000
     16      16.3355      0.00000
     17      16.4145      0.00000
     18      18.3088      0.00000
     19      18.7194      0.00000
     20      19.7349      0.00000
     21      21.4067      0.00000
     22      21.4067      0.00000
     23      23.0084      0.00000
     24      23.0084      0.00000
     25      26.2937      0.00000
     26      26.2937      0.00000
     27      27.7261      0.00000
     28      27.7261      0.00000
     29      28.2286      0.00000
     30      28.2286      0.00000
     31      28.7026      0.00000
     32      30.2814      0.00000
     33      31.4102      0.00000
     34      31.4102      0.00000
     35      31.4980      0.00000
     36      33.0616      0.00000
     37      34.4301      0.00000
     38      34.4301      0.00000
     39      35.0628      0.00000
     40      35.0628      0.00000
     41      35.9137      0.00000
     42      36.8520      0.00000
     43      37.3149      0.00000
     44      37.3149      0.00000
     45      39.4121      0.00000
     46      39.8719      0.00000
     47      39.8719      0.00000
     48      41.9657      0.00000
     49      42.0799      0.00000
     50      42.0799      0.00000
     51      42.4460      0.00000
     52      42.4460      0.00000
     53      42.9307      0.00000
     54      42.9307      0.00000
     55      44.0933      0.00000
     56      44.0933      0.00000
     57      44.1264      0.00000
     58      44.1264      0.00000
     59      45.2172      0.00000
     60      45.2172      0.00000
     61      46.4452      0.00000
     62      47.1059      0.00000
     63      47.1059      0.00000
     64      47.7474      0.00000
     65      51.0900      0.00000
     66      51.0900      0.00000
     67      51.1221      0.00000
     68      51.1221      0.00000
     69      51.5515      0.00000
     70      53.0422      0.00000
     71      53.8256      0.00000
     72      53.8256      0.00000
     73      53.9608      0.00000
     74      53.9608      0.00000
     75      54.2309      0.00000
     76      54.4579      0.00000
     77      54.9650      0.00000
     78      54.9650      0.00000
     79      56.4295      0.00000
     80      56.4366      0.00000
     81      56.4366      0.00000
     82      56.6600      0.00000
     83      56.6600      0.00000
     84      56.8288      0.00000
     85      56.8288      0.00000
     86      56.8946      0.00000
     87      56.8946      0.00000
     88      57.0772      0.00000
     89      57.6311      0.00000
     90      57.6311      0.00000
     91      57.9594      0.00000
     92      57.9594      0.00000
     93      58.9846      0.00000
     94      59.9186      0.00000
     95      59.9186      0.00000
     96      60.2161      0.00000
     97      60.6817      0.00000
     98      61.3334      0.00000
     99      61.6605      0.00000
    100      61.6605      0.00000
    101      62.7793      0.00000
    102      62.7793      0.00000
    103      62.9403      0.00000
    104      62.9403      0.00000
    105      63.4021      0.00000
    106      63.4021      0.00000
    107      65.3767      0.00000
    108      65.3767      0.00000
    109      65.4454      0.00000
    110      65.5109      0.00000
    111      65.5109      0.00000
    112      66.6017      0.00000
    113      66.9084      0.00000
    114      67.7250      0.00000
    115      67.7250      0.00000
    116      70.1313      0.00000
    117      70.1313      0.00000
    118      72.0426      0.00000
    119      72.0426      0.00000
    120      72.8094      0.00000
    121      72.8094      0.00000
    122      73.0229      0.00000
    123      73.0229      0.00000
    124      74.8855      0.00000
    125      75.4926      0.00000
    126      75.4926      0.00000
    127      77.1258      0.00000
    128      77.1330      0.00000

 k-point     6 :       0.5000    0.0000    0.0000
  band No.  band energies     occupation 
      1      -0.8955      2.00000
      2      -0.8955      2.00000
      3       7.1370      2.00000
      4       7.1370      2.00000
      5       7.1370      2.00000
      6       7.1370      2.00000
      7       8.1542      0.00000
      8       8.1542      0.00000
      9       9.0774      0.00000
     10       9.0774      0.00000
     11      15.4549      0.00000
     12      15.4549      0.00000
     13      15.4900      0.00000
     14      15.4900      0.00000
     15      15.4900      0.00000
     16      15.4900      0.00000
     17      16.2311      0.00000
     18      16.2311      0.00000
     19      18.9763      0.00000
     20      18.9763      0.00000
     21      23.7888      0.00000
     22      23.7888      0.00000
     23      23.7888      0.00000
     24      23.7888      0.00000
     25      24.3295      0.00000
     26      24.3295      0.00000
     27      26.3650      0.00000
     28      26.3650      0.00000
     29      29.4261      0.00000
     30      29.4261      0.00000
     31      29.9093      0.00000
     32      29.9093      0.00000
     33      29.9093      0.00000
     34      29.9093      0.00000
     35      34.0798      0.00000
     36      34.0798      0.00000
     37      34.4343      0.00000
     38      34.4343      0.00000
     39      35.0847      0.00000
     40      35.0847      0.00000
     41      35.6615      0.00000
     42      35.6615      0.00000
     43      35.6615      0.00000
     44      35.6615      0.00000
     45      39.8931      0.00000
     46      39.8931      0.00000
     47      40.7539      0.00000
     48      40.7539      0.00000
     49      42.4500      0.00000
     50      42.4500      0.00000
     51      42.4500      0.00000
     52      42.4500      0.00000
     53      43.2570      0.00000
     54      43.2570      0.00000
     55      43.2570      0.00000
     56      43.2570      0.00000
     57      43.9924      0.00000
     58      43.9924      0.00000
     59      45.0353      0.00000
     60      45.0353      0.00000
     61      48.8903      0.00000
     62      48.8903      0.00000
     63      49.0144      0.00000
     64      49.0144      0.00000
     65      49.0144      0.00000
     66      49.0144      0.00000
     67      50.9684      0.00000
     68      50.9684      0.00000
     69      52.6170      0.00000
     70      52.6170      0.00000
     71      52.6170      0.00000
     72      52.6170      0.00000
     73      53.8461      0.00000
     74      53.8461      0.00000
     75      54.2496      0.00000
     76      54.2496      0.00000
     77      54.8630      0.00000
     78      54.8630      0.00000
     79      56.8475      0.00000
     80      56.8475      0.00000
     81      56.8475      0.00000
     82      56.8475      0.00000
     83      57.1073      0.00000
     84      57.1073      0.00000
     85      57.7881      0.00000
     86      57.7881      0.00000
     87      57.7881      0.00000
     88      57.7881      0.00000
     89      59.0675      0.00000
     90      59.0675      0.00000
     91      59.4287      0.00000
     92      59.4287      0.00000
     93      59.7898      0.00000
     94      59.7898      0.00000
     95      60.0066      0.00000
     96      60.0066      0.00000
     97      60.3646      0.00000
     98      60.3646      0.00000
     99      60.5650      0.00000
    100      60.5650      0.00000
    101      62.2579      0.00000
    102      62.2579      0.00000
    103      62.2579      0.00000
    104      62.2579      0.00000
[...]
     56      46.5917      0.00000
     57      48.6421      0.00000
     58      48.6421      0.00000
     59      48.9687      0.00000
     60      48.9687      0.00000
     61      50.1621      0.00000
     62      50.1621      0.00000
     63      50.2640      0.00000
     64      50.2640      0.00000
     65      50.5053      0.00000
     66      50.5053      0.00000
     67      51.2533      0.00000
     68      51.2533      0.00000
     69      53.8496      0.00000
     70      53.8496      0.00000
     71      54.6593      0.00000
     72      54.6593      0.00000
     73      54.8893      0.00000
     74      54.8893      0.00000
     75      54.9645      0.00000
     76      54.9645      0.00000
     77      55.2864      0.00000
     78      55.2864      0.00000
     79      55.7053      0.00000
     80      55.7053      0.00000
     81      56.1618      0.00000
     82      56.1618      0.00000
     83      56.3615      0.00000
     84      56.3615      0.00000
     85      57.0105      0.00000
     86      57.0105      0.00000
     87      57.1875      0.00000
     88      57.1875      0.00000
     89      57.4820      0.00000
     90      57.4820      0.00000
     91      58.6759      0.00000
     92      58.6759      0.00000
     93      58.9806      0.00000
     94      58.9806      0.00000
     95      59.0033      0.00000
     96      59.0033      0.00000
     97      61.5231      0.00000
     98      61.5231      0.00000
     99      62.2276      0.00000
    100      62.2276      0.00000
    101      62.5943      0.00000
    102      62.5943      0.00000
    103      62.6401      0.00000
    104      62.6401      0.00000
    105      63.5270      0.00000
    106      63.5270      0.00000
    107      64.1981      0.00000
    108      64.1981      0.00000
    109      64.6592      0.00000
    110      64.6592      0.00000
    111      65.2019      0.00000
    112      65.2019      0.00000
    113      68.7096      0.00000
    114      68.7096      0.00000
    115      70.1742      0.00000
    116      70.1742      0.00000
    117      71.0585      0.00000
    118      71.0585      0.00000
    119      71.8577      0.00000
    120      71.8577      0.00000
    121      71.9520      0.00000
    122      71.9520      0.00000
    123      72.2177      0.00000
    124      72.2177      0.00000
    125      72.7808      0.00000
    126      72.7808      0.00000
    127      75.0682      0.00000
    128      75.0682      0.00000

 k-point    55 :       0.5000    0.5000    0.4000
  band No.  band energies     occupation 
      1       2.7110      2.00000
      2       2.7110      2.00000
      3       2.7110      2.00000
      4       2.7110      2.00000
      5       4.4554      2.00000
      6       4.4554      2.00000
      7       4.4554      2.00000
      8       4.4554      2.00000
      9      17.6929      0.00000
     10      17.6929      0.00000
     11      17.6929      0.00000
     12      17.6929      0.00000
     13      18.6978      0.00000
     14      18.6978      0.00000
     15      18.6978      0.00000
     16      18.6978      0.00000
     17      20.0619      0.00000
     18      20.0619      0.00000
     19      20.0619      0.00000
     20      20.0619      0.00000
     21      20.2633      0.00000
     22      20.2633      0.00000
     23      20.2633      0.00000
     24      20.2633      0.00000
     25      23.4065      0.00000
     26      23.4065      0.00000
     27      23.4065      0.00000
     28      23.4065      0.00000
     29      24.2475      0.00000
     30      24.2475      0.00000
     31      24.2475      0.00000
     32      24.2475      0.00000
     33      31.9798      0.00000
     34      31.9798      0.00000
     35      31.9798      0.00000
     36      31.9798      0.00000
     37      32.5166      0.00000
     38      32.5166      0.00000
     39      32.5166      0.00000
     40      32.5166      0.00000
     41      38.5319      0.00000
     42      38.5319      0.00000
     43      38.5319      0.00000
     44      38.5319      0.00000
     45      39.6836      0.00000
     46      39.6836      0.00000
     47      39.6836      0.00000
     48      39.6836      0.00000
     49      39.6888      0.00000
     50      39.6888      0.00000
     51      39.6888      0.00000
     52      39.6888      0.00000
     53      46.0528      0.00000
     54      46.0528      0.00000
     55      46.0528      0.00000
     56      46.0528      0.00000
     57      49.6929      0.00000
     58      49.6929      0.00000
     59      49.6929      0.00000
     60      49.6929      0.00000
     61      50.3947      0.00000
     62      50.3947      0.00000
     63      50.3947      0.00000
     64      50.3947      0.00000
     65      51.5277      0.00000
     66      51.5277      0.00000
     67      51.5277      0.00000
     68      51.5277      0.00000
     69      53.9658      0.00000
     70      53.9658      0.00000
     71      53.9658      0.00000
     72      53.9658      0.00000
     73      54.9033      0.00000
     74      54.9033      0.00000
     75      54.9033      0.00000
     76      54.9033      0.00000
     77      55.5905      0.00000
     78      55.5905      0.00000
     79      55.5905      0.00000
     80      55.5905      0.00000
     81      56.1025      0.00000
     82      56.1025      0.00000
     83      56.1025      0.00000
     84      56.1025      0.00000
     85      57.4202      0.00000
     86      57.4202      0.00000
     87      57.4202      0.00000
     88      57.4202      0.00000
     89      57.6138      0.00000
     90      57.6138      0.00000
     91      57.6138      0.00000
     92      57.6138      0.00000
     93      58.5449      0.00000
     94      58.5449      0.00000
     95      58.5449      0.00000
     96      58.5449      0.00000
     97      61.6527      0.00000
     98      61.6527      0.00000
     99      61.6527      0.00000
    100      61.6527      0.00000
    101      63.2316      0.00000
    102      63.2316      0.00000
    103      63.2316      0.00000
    104      63.2316      0.00000
    105      63.3616      0.00000
    106      63.3616      0.00000
    107      63.3616      0.00000
    108      63.3616      0.00000
    109      64.6416      0.00000
    110      64.6416      0.00000
    111      64.6416      0.00000
    112      64.6416      0.00000
    113      70.4056      0.00000
    114      70.4056      0.00000
    115      70.4056      0.00000
    116      70.4056      0.00000
    117      71.5997      0.00000
    118      71.5997      0.00000
    119      71.5997      0.00000
    120      71.5997      0.00000
    121      71.8411      0.00000
    122      71.8411      0.00000
    123      71.8411      0.00000
    124      71.8411      0.00000
    125      74.7560      0.00000
    126      74.7560      0.00000
    127      74.7560      0.00000
    128      74.7560      0.00000

 k-point    56 :       0.5000    0.5000    0.5000
  band No.  band energies     occupation 
      1       3.3953      2.00000
      2       3.3953      2.00000
      3       3.3953      2.00000
      4       3.3953      2.00000
      5       3.6034      2.00000
      6       3.6034      2.00000
      7       3.6034      2.00000
      8       3.6034      2.00000
      9      19.3709      0.00000
     10      19.3709      0.00000
     11      19.3709      0.00000
     12      19.3709      0.00000
     13      19.3709      0.00000
     14      19.3709      0.00000
     15      19.3709      0.00000
     16      19.3709      0.00000
     17      19.4334      0.00000
     18      19.4334      0.00000
     19      19.4334      0.00000
     20      19.4334      0.00000
     21      19.4334      0.00000
     22      19.4334      0.00000
     23      19.4334      0.00000
     24      19.4334      0.00000
     25      23.0966      0.00000
     26      23.0966      0.00000
     27      23.0966      0.00000
     28      23.0966      0.00000
     29      23.2373      0.00000
     30      23.2373      0.00000
     31      23.2373      0.00000
     32      23.2373      0.00000
     33      32.7476      0.00000
     34      32.7476      0.00000
     35      32.7476      0.00000
     36      32.7476      0.00000
     37      32.7476      0.00000
     38      32.7476      0.00000
     39      32.7476      0.00000
     40      32.7476      0.00000
     41      38.7848      0.00000
     42      38.7848      0.00000
     43      38.7848      0.00000
     44      38.7848      0.00000
     45      38.7848      0.00000
     46      38.7848      0.00000
     47      38.7848      0.00000
     48      38.7848      0.00000
     49      39.5879      0.00000
     50      39.5879      0.00000
     51      39.5879      0.00000
     52      39.5879      0.00000
     53      45.5149      0.00000
     54      45.5149      0.00000
     55      45.5149      0.00000
     56      45.5149      0.00000
     57      50.6793      0.00000
     58      50.6793      0.00000
     59      50.6793      0.00000
     60      50.6793      0.00000
     61      51.6528      0.00000
     62      51.6528      0.00000
     63      51.6528      0.00000
     64      51.6528      0.00000
     65      51.6528      0.00000
     66      51.6528      0.00000
     67      51.6528      0.00000
     68      51.6528      0.00000
     69      53.5844      0.00000
     70      53.5844      0.00000
     71      53.5844      0.00000
     72      53.5844      0.00000
     73      54.7404      0.00000
     74      54.7404      0.00000
     75      54.7404      0.00000
     76      54.7404      0.00000
     77      54.7404      0.00000
     78      54.7404      0.00000
     79      54.7404      0.00000
     80      54.7404      0.00000
     81      56.3135      0.00000
     82      56.3135      0.00000
     83      56.3135      0.00000
     84      56.3135      0.00000
     85      57.5879      0.00000
     86      57.5879      0.00000
     87      57.5879      0.00000
     88      57.5879      0.00000
     89      57.5879      0.00000
     90      57.5879      0.00000
     91      57.5879      0.00000
     92      57.5879      0.00000
     93      58.5431      0.00000
     94      58.5431      0.00000
     95      58.5431      0.00000
     96      58.5431      0.00000
     97      60.7458      0.00000
     98      60.7458      0.00000
     99      60.7458      0.00000
    100      60.7458      0.00000
    101      62.7617      0.00000
    102      62.7617      0.00000
    103      62.7617      0.00000
    104      62.7617      0.00000
    105      64.4246      0.00000
    106      64.4246      0.00000
    107      64.4246      0.00000
    108      64.4246      0.00000
    109      64.4246      0.00000
    110      64.4246      0.00000
    111      64.4246      0.00000
    112      64.4246      0.00000
    113      69.2738      0.00000
    114      69.2738      0.00000
    115      69.2738      0.00000
    116      69.2738      0.00000
    117      73.7435      0.00000
    118      73.7435      0.00000
    119      73.7435      0.00000
    120      73.7435      0.00000
    121      73.7435      0.00000
    122      73.7435      0.00000
    123      73.7435      0.00000
    124      73.7435      0.00000
    125      75.4985      0.00000
    126      75.4985      0.00000
    127      75.4985      0.00000
    128      75.4985      0.00000


--------------------------------------------------------------------------------------------------------


 soft charge-density along one line, spin component           1
         0         1         2         3         4         5         6         7         8         9
 total charge-density along one line
 
 pseudopotential strength for first ion, spin component:           1
  8.445  14.392   0.000  -0.000   0.000   0.000  -0.000  -0.000
 14.392  24.529   0.000  -0.000  -0.000   0.000  -0.000  -0.000
  0.000   0.000   1.988   0.000   0.000   5.731   0.000   0.000
 -0.000  -0.000   0.000   1.988   0.000   0.000   5.731   0.000
  0.000  -0.000   0.000   0.000   1.988   0.000   0.000   5.731
  0.000   0.000   5.731   0.000   0.000  16.436   0.000   0.000
 -0.000  -0.000   0.000   5.731   0.000   0.000  16.436   0.000
 -0.000  -0.000   0.000   0.000   5.731   0.000   0.000  16.436
 total augmentation occupancy for first ion, spin component:           1
  3.350  -0.823   0.000   0.000  -0.000   0.000   0.000   0.000
 -0.823   0.271  -0.000   0.000   0.000  -0.000  -0.000  -0.000
  0.000  -0.000   1.097   0.000   0.000  -0.070  -0.000  -0.000
  0.000   0.000   0.000   1.097   0.000  -0.000  -0.070  -0.000
 -0.000   0.000   0.000   0.000   1.097  -0.000  -0.000  -0.070
  0.000  -0.000  -0.070  -0.000  -0.000   0.005   0.000   0.000
  0.000  -0.000  -0.000  -0.070  -0.000   0.000   0.005   0.000
  0.000  -0.000  -0.000  -0.000  -0.070   0.000   0.000   0.005


------------------------ aborting loop because EDIFF is reached ----------------------------------------


    CHARGE:  cpu time      0.0276: real time      0.0278
    FORLOC:  cpu time      0.0008: real time      0.0009
    FORNL :  cpu time      0.0345: real time      0.0356
    STRESS:  cpu time      0.4317: real time      0.4365
    FORCOR:  cpu time      0.0068: real time      0.0070
    FORHAR:  cpu time      0.0023: real time      0.0023
    MIXING:  cpu time      0.0017: real time      0.0017
    OFIELD:  cpu time      0.0011: real time      0.0013

  FORCE on cell =-STRESS in cart. coord.  units (eV):
  Direction    XX          YY          ZZ          XY          YZ          ZX
  --------------------------------------------------------------------------------------
  Alpha Z    -0.81278    -0.81278    -0.81278
  Ewald     -97.96162   -97.96162   -97.96162    -0.00000     0.00000     0.00000
  Hartree     0.13773     0.13773     0.13773    -0.00000    -0.00000    -0.00000
  E(xc)     -34.23344   -34.23344   -34.23344     0.00000     0.00000     0.00000
  Local       1.37212     1.37212     1.37212     0.00000     0.00000     0.00000
  n-local    74.37907    75.24911    77.03507     0.24703     0.97471     0.37852
  augment    -4.14170    -4.14170    -4.14170     0.00000     0.00000     0.00000
  Kinetic    57.41138    59.42710    63.11278     1.61735    -8.09042    -1.37168
  Fock        0.00000     0.00000     0.00000     0.00000     0.00000     0.00000
  -------------------------------------------------------------------------------------
  Total      -0.10152    -0.10152    -0.10152     0.00000    -0.00000    -0.00000
  in kB      -2.46001    -2.46001    -2.46001     0.00000    -0.00000    -0.00000
  external pressure =       -2.46 kB  Pullay stress =        0.00 kB


 VOLUME and BASIS-vectors are now :
 -----------------------------------------------------------------------------
  energy-cutoff  :      520.00
  volume of cell :       66.12
      direct lattice vectors                 reciprocal lattice vectors
     4.043689723  0.000000000  0.000000000     0.247298895 -0.000000000  0.000000000
     0.000000000  4.043689723  0.000000000     0.000000000  0.247298895  0.000000000
     0.000000000  0.000000000  4.043689723    -0.000000000 -0.000000000  0.247298895

  length of vectors
     4.043689723  4.043689723  4.043689723     0.247298895  0.247298895  0.247298895


 FORCES acting on ions
    electron-ion (+dipol)            ewald-force                    non-local-force                 convergence-correction
 -----------------------------------------------------------------------------------------------
   -.384E-14 0.359E-15 -.137E-14   0.489E-15 0.764E-15 -.890E-15   0.805E-19 -.160E-19 -.169E-18   0.153E-14 0.505E-15 -.167E-15
   -.360E-14 -.262E-14 -.195E-14   0.516E-15 -.538E-15 0.377E-15   0.439E-19 0.594E-19 -.176E-18   0.152E-14 -.494E-15 0.152E-15
   -.130E-14 -.224E-15 0.226E-13   -.475E-15 0.591E-15 0.377E-15   -.931E-19 -.515E-19 -.273E-18   -.150E-14 0.533E-15 0.183E-15
   -.236E-14 -.833E-14 -.186E-13   -.448E-15 -.707E-15 0.305E-15   0.125E-18 -.947E-19 -.342E-19   -.151E-14 -.541E-15 -.166E-15
 -----------------------------------------------------------------------------------------------
   -.111E-13 -.108E-13 0.658E-15   0.811E-16 0.111E-15 0.169E-15   0.156E-18 -.103E-18 -.653E-18   0.345E-16 0.296E-17 0.227E-17
 
 
 POSITION                                       TOTAL-FORCE (eV/Angst)
 -----------------------------------------------------------------------------------
      0.00000      0.00000      0.00000        -0.000000     -0.000000     -0.000000
      0.00000      2.02184      2.02184         0.000000      0.000000     -0.000000
      2.02184      0.00000      2.02184         0.000000     -0.000000      0.000000
      2.02184      2.02184      0.00000         0.000000      0.000000      0.000000
 -----------------------------------------------------------------------------------
    total drift:                               -0.000000     -0.000000      0.000000


--------------------------------------------------------------------------------------------------------



  FREE ENERGIE OF THE ION-ELECTRON SYSTEM (eV)
  ---------------------------------------------------
  free  energy   TOTEN  =       -14.97305887 eV

  energy  without entropy=      -14.97305887  energy(sigma->0) =      -14.97305887
 


--------------------------------------------------------------------------------------------------------


    POTLOK:  cpu time      0.0098: real time      0.0102


--------------------------------------------------------------------------------------------------------


     LOOP+:  cpu time    340.5158: real time    342.1505
 -----------------------------------------------------------------------------
|                                                                             |
|           W    W    AA    RRRRR   N    N  II  N    N   GGGG   !!!           |
|           W    W   A  A   R    R  NN   N  II  NN   N  G    G  !!!           |
|           W    W  A    A  R    R  N N  N  II  N N  N  G       !!!           |
|           W WW W  AAAAAA  RRRRR   N  N N  II  N  N N  G  GGG   !            |
|           WW  WW  A    A  R   R   N   NN  II  N   NN  G    G                |
|           W    W  A    A  R    R  N    N  II  N    N   GGGG   !!!           |
|                                                                             |
|     Tetrahedron method does not include variations of the Fermi             |
|     occupations, so forces and stress will be inaccurate. We suggest        |
|     using a different smearing scheme ISMEAR = 1 or 2 for metals in         |
|     relaxations.                                                            |
|                                                                             |
 -----------------------------------------------------------------------------

    4ORBIT:  cpu time      0.0000: real time      0.0000
 BZINTS: Fermi energy:    7.957452;   12.000000 electrons
         Band energy: 0.427498E+02;  BLOECHL correction:   -0.240198

 total amount of memory used by VASP MPI-rank0    40378. kBytes
=======================================================================

   base      :      30000. kBytes
   nonl-proj :       7004. kBytes
   fftplans  :        256. kBytes
   grid      :       1271. kBytes
   one-center:         12. kBytes
   wavefun   :       1835. kBytes
 
  
  
 General timing and accounting informations for this job:
 ========================================================
  
                  Total CPU time used (sec):      348.745
                            User time (sec):      343.616
                          System time (sec):        5.129
                         Elapsed time (sec):      355.799
  
                   Maximum memory used (kb):      997568.
                   Average memory used (kb):          N/A
  
                          Minor page faults:       233618
                          Major page faults:          130
                 Voluntary context switches:         6929
