       N       E                     dE             d eps       ncg     rms          rms(c)
DAV:   1     0.196106229598E+04    0.19611E+04   -0.90531E+04 92736   0.205E+03
DAV:   2     0.937903188028E+02   -0.18673E+04   -0.18345E+04 85008   0.584E+02
DAV:   3    -0.942226292474E+02   -0.18801E+03   -0.18191E+03124512   0.184E+02
DAV:   4    -0.104959832263E+03   -0.10737E+02   -0.10688E+02120408   0.456E+01
DAV:   5    -0.105265854160E+03   -0.30602E+00   -0.30570E+00113472   0.718E+00    0.258E+01
RMM:   6    -0.112485782576E+03   -0.72199E+01   -0.13426E+02 85488   0.813E+01    0.383E+01
RMM:   7    -0.965612694824E+02    0.15925E+02   -0.36237E+01 85036   0.473E+01    0.116E+01
RMM:   8    -0.995224081541E+02   -0.29611E+01   -0.75494E+00 97037   0.138E+01    0.268E+01
RMM:   9    -0.959797023292E+02    0.35427E+01   -0.54927E+00 93770   0.130E+01    0.205E+00
RMM:  10    -0.962290365836E+02   -0.24933E+00   -0.19577E+00138574   0.401E+00    0.450E+00
RMM:  11    -0.962063510980E+02    0.22685E-01   -0.28178E-01130277   0.168E+00    0.288E+00
RMM:  12    -0.962165394612E+02   -0.10188E-01   -0.60586E-02127710   0.815E-01    0.290E+00
RMM:  13    -0.961674510926E+02    0.49088E-01   -0.28621E-02104180   0.824E-01    0.220E+00
RMM:  14    -0.961936970722E+02   -0.26246E-01   -0.49201E-02125748   0.902E-01    0.271E+00
RMM:  15    -0.961541001942E+02    0.39597E-01   -0.10865E-01142034   0.163E+00    0.182E+00
RMM:  16    -0.961387044051E+02    0.15396E-01   -0.17013E-01150469   0.215E+00    0.104E+00
RMM:  17    -0.961390125465E+02   -0.30814E-03   -0.96206E-03 99251   0.537E-01    0.462E-01
RMM:  18    -0.961372304693E+02    0.17821E-02   -0.65591E-03 97872   0.448E-01    0.194E-01
RMM:  19    -0.961376220431E+02   -0.39157E-03   -0.39134E-03 97705   0.226E-01    0.242E-01
RMM:  20    -0.961375074019E+02    0.11464E-03   -0.17212E-03 85895   0.216E-01
   1 F= -.10152038E+03 E0= -.10152038E+03  d E =0.000000E+00  mag=     0.0000
