       N       E                     dE             d eps       ncg     rms          rms(c)
DAV:   1     0.196621342981E+04    0.19662E+04   -0.90682E+04 92976   0.206E+03
DAV:   2     0.941727245205E+02   -0.18720E+04   -0.18388E+04 84984   0.584E+02
DAV:   3    -0.941418242959E+02   -0.18831E+03   -0.18220E+03123984   0.185E+02
DAV:   4    -0.104745709646E+03   -0.10604E+02   -0.10545E+02119616   0.456E+01
DAV:   5    -0.105051779980E+03   -0.30607E+00   -0.30558E+00113880   0.726E+00    0.254E+01
RMM:   6    -0.110836946592E+03   -0.57852E+01   -0.12573E+02 84870   0.790E+01    0.362E+01
RMM:   7    -0.965376389824E+02    0.14299E+02   -0.33530E+01 85029   0.457E+01    0.117E+01
RMM:   8    -0.993080558899E+02   -0.27704E+01   -0.75564E+00 95406   0.140E+01    0.259E+01
RMM:   9    -0.959226201885E+02    0.33854E+01   -0.55536E+00 91885   0.131E+01    0.178E+00
RMM:  10    -0.961288165130E+02   -0.20620E+00   -0.19087E+00126596   0.404E+00    0.354E+00
RMM:  11    -0.961235660154E+02    0.52505E-02   -0.25631E-01122690   0.148E+00    0.237E+00
RMM:  12    -0.961295490118E+02   -0.59830E-02   -0.52241E-02 96898   0.106E+00    0.254E+00
RMM:  13    -0.960812857633E+02    0.48263E-01   -0.71770E-02 98034   0.137E+00    0.133E+00
RMM:  14    -0.960821873066E+02   -0.90154E-03   -0.89036E-02110775   0.928E-01    0.379E-01
RMM:  15    -0.960807868631E+02    0.14004E-02   -0.43507E-02 93176   0.126E+00    0.292E-01
RMM:  16    -0.960809577597E+02   -0.17090E-03   -0.65274E-03 89519   0.384E-01    0.191E-01
RMM:  17    -0.960811352782E+02   -0.17752E-03   -0.21004E-03 81370   0.138E-01    0.204E-01
RMM:  18    -0.960810059388E+02    0.12934E-03   -0.62676E-04 58811   0.126E-01
   1 F= -.10147322E+03 E0= -.10145880E+03  d E =-.101473E+03  mag=     0.0000
       N       E                     dE             d eps       ncg     rms          rms(c)
DAV:   1    -0.961201458504E+02   -0.39011E-01   -0.22475E+00114576   0.535E+00    0.107E+00
RMM:   2    -0.961296248108E+02   -0.94790E-02   -0.18307E-01 91016   0.272E+00    0.163E+00
RMM:   3    -0.961397927418E+02   -0.10168E-01   -0.83144E-02 90769   0.185E+00    0.242E+00
RMM:   4    -0.961165978006E+02    0.23195E-01   -0.31774E-02 90865   0.121E+00    0.754E-01
RMM:   5    -0.961295048566E+02   -0.12907E-01   -0.15027E-02 97111   0.641E-01    0.208E+00
RMM:   6    -0.961209398993E+02    0.85650E-02   -0.55237E-03 84154   0.465E-01    0.113E+00
RMM:   7    -0.961128266948E+02    0.81132E-02   -0.40220E-03 81852   0.357E-01    0.195E-01
RMM:   8    -0.961134261460E+02   -0.59945E-03   -0.21660E-03 86278   0.171E-01    0.801E-02
RMM:   9    -0.961136411136E+02   -0.21497E-03   -0.47449E-04 54180   0.114E-01    0.117E-01
RMM:  10    -0.961135964571E+02    0.44656E-04   -0.12833E-04 48489   0.824E-02
   2 F= -.10150400E+03 E0= -.10148957E+03  d E =-.307855E-01  mag=     0.0000
       N       E                     dE             d eps       ncg     rms          rms(c)
DAV:   1    -0.961248131213E+02   -0.11172E-01   -0.14085E+00 99144   0.420E+00    0.827E-01
RMM:   2    -0.961299633231E+02   -0.51502E-02   -0.10944E-01 91199   0.209E+00    0.120E+00
RMM:   3    -0.961375760672E+02   -0.76127E-02   -0.50762E-02 90751   0.143E+00    0.192E+00
RMM:   4    -0.961242759235E+02    0.13300E-01   -0.19821E-02 91791   0.932E-01    0.784E-01
RMM:   5    -0.961292471700E+02   -0.49712E-02   -0.94612E-03 92211   0.538E-01    0.144E+00
RMM:   6    -0.961238023497E+02    0.54448E-02   -0.40403E-03 80807   0.413E-01    0.605E-01
RMM:   7    -0.961217645924E+02    0.20378E-02   -0.15412E-03 77892   0.195E-01    0.200E-01
RMM:   8    -0.961217935721E+02   -0.28980E-04   -0.73146E-04 61984   0.122E-01
   3 F= -.10151091E+03 E0= -.10149646E+03  d E =-.376930E-01  mag=    -0.0000
       N       E                     dE             d eps       ncg     rms          rms(c)
DAV:   1    -0.963478917516E+02   -0.22613E+00   -0.57698E+00 98352   0.139E+01    0.362E+00
RMM:   2    -0.962240226199E+02    0.12387E+00   -0.72471E-01104213   0.552E+00    0.257E+00
RMM:   3    -0.961687162166E+02    0.55306E-01   -0.41108E-01 86631   0.485E+00    0.154E+00
RMM:   4    -0.963439697398E+02   -0.17525E+00   -0.18133E-01 95877   0.255E+00    0.784E+00
RMM:   5    -0.961491535074E+02    0.19482E+00   -0.86094E-02 89260   0.203E+00    0.117E+00
RMM:   6    -0.961523975801E+02   -0.32441E-02   -0.25166E-02107770   0.516E-01    0.117E+00
RMM:   7    -0.961483876180E+02    0.40100E-02   -0.38430E-03 83230   0.365E-01    0.972E-01
RMM:   8    -0.961478000476E+02    0.58757E-03   -0.34546E-03 79015   0.310E-01    0.931E-01
RMM:   9    -0.961468620258E+02    0.93802E-03   -0.42712E-02134039   0.872E-01    0.478E-01
RMM:  10    -0.961447380249E+02    0.21240E-02   -0.35115E-03 79281   0.327E-01    0.439E-01
RMM:  11    -0.961449357649E+02   -0.19774E-03   -0.67402E-04 64328   0.136E-01
   4 F= -.10152935E+03 E0= -.10151469E+03  d E =-.184382E-01  mag=    -0.0000
       N       E                     dE             d eps       ncg     rms          rms(c)
DAV:   1    -0.980969312663E+02   -0.19522E+01   -0.53494E+01 95952   0.413E+01    0.114E+01
RMM:   2    -0.967204844475E+02    0.13764E+01   -0.58074E+00105485   0.154E+01    0.745E+00
RMM:   3    -0.971179253930E+02   -0.39744E+00   -0.41826E+00 87593   0.145E+01    0.137E+01
RMM:   4    -0.972020526736E+02   -0.84127E-01   -0.16812E+00 95983   0.827E+00    0.174E+01
RMM:   5    -0.968941805931E+02    0.30787E+00   -0.11445E+00 92583   0.666E+00    0.158E+01
RMM:   6    -0.961062684209E+02    0.78791E+00   -0.48302E-01 88480   0.445E+00    0.189E+00
RMM:   7    -0.961128879429E+02   -0.66195E-02   -0.16155E-01120710   0.149E+00    0.150E+00
RMM:   8    -0.961207699288E+02   -0.78820E-02   -0.27159E-02122526   0.521E-01    0.175E+00
RMM:   9    -0.961006669184E+02    0.20103E-01   -0.24551E-02102712   0.763E-01    0.843E-01
RMM:  10    -0.961019546067E+02   -0.12877E-02   -0.69673E-03 92582   0.433E-01    0.858E-01
RMM:  11    -0.960990624444E+02    0.28922E-02   -0.27558E-03 89690   0.243E-01    0.590E-01
RMM:  12    -0.960964245635E+02    0.26379E-02   -0.65905E-03111901   0.448E-01    0.137E-01
RMM:  13    -0.960972089962E+02   -0.78443E-03   -0.10109E-03 69313   0.174E-01    0.574E-02
RMM:  14    -0.960972711242E+02   -0.62128E-04   -0.20019E-04 48958   0.108E-01
   5 F= -.10146909E+03 E0= -.10145433E+03  d E =0.418168E-01  mag=     0.0000
       N       E                     dE             d eps       ncg     rms          rms(c)
DAV:   1    -0.964802195314E+02   -0.38301E+00   -0.95422E+00 98496   0.178E+01    0.471E+00
RMM:   2    -0.963510620553E+02    0.12916E+00   -0.14034E+00102108   0.764E+00    0.483E+00
RMM:   3    -0.965973851040E+02   -0.24632E+00   -0.10077E+00 92347   0.703E+00    0.101E+01
RMM:   4    -0.961856528618E+02    0.41173E+00   -0.44074E-01 85566   0.475E+00    0.257E+00
RMM:   5    -0.961444865763E+02    0.41166E-01   -0.96631E-02 96128   0.191E+00    0.206E+00
RMM:   6    -0.961351827532E+02    0.93038E-02   -0.36183E-02105376   0.835E-01    0.714E-01
RMM:   7    -0.961350530834E+02    0.12967E-03   -0.11376E-02105738   0.433E-01    0.628E-01
RMM:   8    -0.961338101338E+02    0.12429E-02   -0.31414E-03 88173   0.220E-01    0.343E-01
RMM:   9    -0.961330495231E+02    0.76061E-03   -0.23432E-03 83290   0.243E-01    0.110E-01
RMM:  10    -0.961331732018E+02   -0.12368E-03   -0.87048E-04 65541   0.124E-01
   6 F= -.10151004E+03 E0= -.10149536E+03  d E =0.866488E-03  mag=    -0.0000
       N       E                     dE             d eps       ncg     rms          rms(c)
DAV:   1    -0.964329454302E+02   -0.29990E+00   -0.79008E+00 99984   0.163E+01    0.430E+00
RMM:   2    -0.963126236360E+02    0.12032E+00   -0.11726E+00102181   0.697E+00    0.408E+00
RMM:   3    -0.964653456344E+02   -0.15272E+00   -0.79366E-01 91723   0.634E+00    0.834E+00
RMM:   4    -0.961929736379E+02    0.27237E+00   -0.33161E-01 85983   0.410E+00    0.264E+00
RMM:   5    -0.961425258933E+02    0.50448E-01   -0.79519E-02 96123   0.174E+00    0.482E-01
RMM:   6    -0.961575746428E+02   -0.15049E-01   -0.37174E-02109771   0.728E-01    0.206E+00
RMM:   7    -0.961478177357E+02    0.97569E-02   -0.98642E-03 93020   0.541E-01    0.829E-01
RMM:   8    -0.961434794570E+02    0.43383E-02   -0.70317E-03 97007   0.363E-01    0.320E-01
RMM:   9    -0.961435675309E+02   -0.88074E-04   -0.16117E-03 77258   0.231E-01
   7 F= -.10152540E+03 E0= -.10151087E+03  d E =-.144865E-01  mag=    -0.0000
       N       E                     dE             d eps       ncg     rms          rms(c)
DAV:   1    -0.961220066050E+02    0.21473E-01   -0.81128E-01120600   0.161E+01    0.912E-01
RMM:   2    -0.961505859766E+02   -0.28579E-01   -0.33050E-01123794   0.306E+00    0.130E+00
RMM:   3    -0.961644816496E+02   -0.13896E-01   -0.76453E-02102144   0.180E+00    0.190E+00
RMM:   4    -0.961610251840E+02    0.34565E-02   -0.22115E-02101256   0.873E-01    0.138E+00
RMM:   5    -0.961584394829E+02    0.25857E-02   -0.72187E-03109565   0.355E-01    0.134E+00
RMM:   6    -0.961577284891E+02    0.71099E-03   -0.69100E-03 98307   0.450E-01    0.159E+00
RMM:   7    -0.961470659545E+02    0.10663E-01   -0.11923E-02116646   0.565E-01    0.647E-01
RMM:   8    -0.961483412987E+02   -0.12753E-02   -0.12447E-03 76240   0.163E-01    0.665E-01
RMM:   9    -0.961455828450E+02    0.27585E-02   -0.24095E-03 87921   0.231E-01    0.364E-01
RMM:  10    -0.961450332504E+02    0.54959E-03   -0.27352E-03 92705   0.321E-01    0.141E-01
RMM:  11    -0.961452875952E+02   -0.25434E-03   -0.74275E-04 61108   0.169E-01    0.570E-02
RMM:  12    -0.961453450781E+02   -0.57483E-04   -0.13341E-04 46394   0.925E-02
   8 F= -.10152629E+03 E0= -.10151189E+03  d E =-.888296E-03  mag=     0.0000
       N       E                     dE             d eps       ncg     rms          rms(c)
DAV:   1    -0.961452739376E+02    0.13658E-04   -0.42802E-03146352   0.104E+00    0.610E-02
RMM:   2    -0.961454083305E+02   -0.13439E-03   -0.10922E-03 75429   0.191E-01
   9 F= -.10152641E+03 E0= -.10151206E+03  d E =-.100922E-02  mag=    -0.0000
