       N       E                     dE             d eps       ncg     rms          rms(c)
DAV:   1     0.177167264890E+04    0.17717E+04   -0.84869E+04 75328   0.178E+03
DAV:   2     0.601249561791E+01   -0.17657E+04   -0.16745E+04 75296   0.480E+02
DAV:   3    -0.103217859960E+03   -0.10923E+03   -0.10769E+03 88256   0.128E+02
DAV:   4    -0.104834968503E+03   -0.16171E+01   -0.16167E+01 80576   0.156E+01
DAV:   5    -0.104867059879E+03   -0.32091E-01   -0.32090E-01 92864   0.212E+00    0.378E+01
DAV:   6    -0.116526262662E+03   -0.11659E+02   -0.20542E+02 90464   0.638E+01    0.656E+01
DAV:   7    -0.107399756791E+03    0.91265E+01   -0.17267E+02 89920   0.554E+01    0.610E+01
DAV:   8    -0.996210809815E+02    0.77787E+01   -0.23231E+02 91072   0.417E+01    0.383E+01
DAV:   9    -0.101800751684E+03   -0.21797E+01   -0.10543E+02 85440   0.354E+01    0.426E+01
DAV:  10    -0.940783234221E+02    0.77224E+01   -0.42468E+01 85632   0.231E+01    0.219E+01
DAV:  11    -0.933521851516E+02    0.72614E+00   -0.16986E+01 88608   0.161E+01    0.188E+01
DAV:  12    -0.929324900602E+02    0.41970E+00   -0.74079E+00 88544   0.102E+01    0.117E+01
DAV:  13    -0.929660038559E+02   -0.33514E-01   -0.72753E-01 88000   0.518E+00    0.997E+00
DAV:  14    -0.929930839506E+02   -0.27080E-01   -0.73434E-01 88736   0.462E+00    0.847E+00
DAV:  15    -0.930552495727E+02   -0.62166E-01   -0.76991E-01 87872   0.446E+00    0.411E+00
DAV:  16    -0.931333486143E+02   -0.78099E-01   -0.56231E-01 90976   0.343E+00    0.459E+00
DAV:  17    -0.931255500010E+02    0.77986E-02   -0.42476E-01 90944   0.283E+00    0.372E+00
DAV:  18    -0.931823994782E+02   -0.56849E-01   -0.18828E-01 88224   0.186E+00    0.251E+00
DAV:  19    -0.932804267238E+02   -0.98027E-01   -0.42882E-01 89408   0.398E+00    0.384E+00
DAV:  20    -0.932346011852E+02    0.45826E-01   -0.37194E-01 88512   0.355E+00    0.163E+00
DAV:  21    -0.932450304244E+02   -0.10429E-01   -0.10430E-01 87424   0.228E+00    0.194E+00
DAV:  22    -0.932365851698E+02    0.84453E-02   -0.72217E-02 87488   0.190E+00    0.101E+00
DAV:  23    -0.932369591869E+02   -0.37402E-03   -0.16138E-02 90624   0.796E-01    0.607E-01
DAV:  24    -0.932372359589E+02   -0.27677E-03   -0.10373E-02 86720   0.739E-01    0.518E-01
DAV:  25    -0.932365652204E+02    0.67074E-03   -0.33745E-03 87872   0.400E-01    0.170E-01
DAV:  26    -0.932366657529E+02   -0.10053E-03   -0.78458E-04 91200   0.165E-01    0.115E-01
DAV:  27    -0.932367317752E+02   -0.66022E-04   -0.24682E-04 88352   0.964E-02    0.574E-02
DAV:  28    -0.932367597694E+02   -0.27994E-04   -0.47905E-05 89984   0.395E-02    0.372E-02
DAV:  29    -0.932367713822E+02   -0.11613E-04   -0.13524E-05 90688   0.210E-02    0.275E-02
DAV:  30    -0.932367676137E+02    0.37685E-05   -0.83943E-06 69472   0.148E-02    0.147E-02
DAV:  31    -0.932367632086E+02    0.44051E-05   -0.61176E-06 62208   0.908E-03    0.112E-02
DAV:  32    -0.932367636937E+02   -0.48506E-06   -0.12910E-06 44064   0.602E-03
   1 F= -.93236764E+02 E0= -.93236764E+02  d E =0.000000E+00  mag=    19.6527
