 vasp.6.4.3 19Mar24 (build Mar 26 2024 14:05:37) complex                        
  
 executed on             LinuxIFC date 2024.12.17  08:48:46
 running  128 mpi-ranks, on    1 nodes
 distrk:  each k-point on   32 cores,    4 groups
 distr:  one band on NCORE=   1 cores,   32 groups


--------------------------------------------------------------------------------------------------------


 INCAR:
   ALGO = Normal
   EDIFF = 1e-06
   EDIFFG = -0.01
   ENCUT = 520
   GGA = Pe
   IBRION = -1
   ISIF = 4
   ISMEAR = -5
   ISPIN = 2
   KPAR = 4
   LCHARG = True
   LORBIT = 11
   LREAL = False
   LWAVE = False
   MAGMOM = 1*-2.595 2*2.858 2*2.655 1*2.825 1*2.467 2*2.746 2*0.133 1*0.311
   NELM = 200
   NSW = 0
   PREC = Accurate
   SIGMA = 0.2

 POTCAR:    PAW_PBE Fe_pv 02Aug2007               
 POTCAR:    PAW_PBE Pt 04Feb2005                  
 -----------------------------------------------------------------------------
|                                                                             |
|           W    W    AA    RRRRR   N    N  II  N    N   GGGG   !!!           |
|           W    W   A  A   R    R  NN   N  II  NN   N  G    G  !!!           |
|           W    W  A    A  R    R  N N  N  II  N N  N  G       !!!           |
|           W WW W  AAAAAA  RRRRR   N  N N  II  N  N N  G  GGG   !            |
|           WW  WW  A    A  R   R   N   NN  II  N   NN  G    G                |
|           W    W  A    A  R    R  N    N  II  N    N   GGGG   !!!           |
|                                                                             |
|     For optimal performance we recommend to set                             |
|       NCORE = 2 up to number-of-cores-per-socket                            |
|     NCORE specifies how many cores store one orbital (NPAR=cpu/NCORE).      |
|     This setting can greatly improve the performance of VASP for DFT.       |
|     The default, NCORE=1 might be grossly inefficient on modern             |
|     multi-core architectures or massively parallel machines. Do your        |
|     own testing! More info at https://www.vasp.at/wiki/index.php/NCORE      |
|     Unfortunately you need to use the default for GW and RPA                |
|     calculations (for HF NCORE is supported but not extensively tested      |
|     yet).                                                                   |
|                                                                             |
 -----------------------------------------------------------------------------

 POTCAR:    PAW_PBE Fe_pv 02Aug2007               
   SHA256 =  5d22e414b1f82158bf2c7ecb8b97b28fd0923e48cadc1c3bf74d524558f5dd32 Fe_pv/POTCAR          
   COPYR  = (c) Copyright 02Aug2007 Georg Kresse                                                    
   COPYR  = This file is part of the software VASP. Any use, copying, and all other rights are regul
   COPYR  = If you do not have a valid VASP license, you may not use, copy or distribute this file. 
   VRHFIN =Fe:  3pd7s1                                                                              
   LEXCH  = PE                                                                                      
   EATOM  =  2457.4239 eV,  180.6156 Ry                                                             
                                                                                                    
   TITEL  = PAW_PBE Fe_pv 02Aug2007                                                                 
   LULTRA =        F    use ultrasoft PP ?                                                          
   IUNSCR =        1    unscreen: 0-lin 1-nonlin 2-no                                               
   RPACOR =    1.750    partial core radius                                                         
   POMASS =   55.847; ZVAL   =   14.000    mass and valenz                                          
   RCORE  =    2.200    outmost cutoff radius                                                       
   RWIGS  =    2.200; RWIGS  =    1.164    wigner-seitz radius (au A)                               
   ENMAX  =  293.238; ENMIN  =  219.928 eV                                                          
   ICORE  =        3    local potential                                                             
   LCOR   =        T    correct aug charges                                                         
   LPAW   =        T    paw PP                                                                      
   EAUG   =  578.342                                                                                
   DEXC   =    0.000                                                                                
   RMAX   =    2.249    core radius for proj-oper                                                   
   RAUG   =    1.300    factor for augmentation sphere                                              
   RDEP   =    2.296    radius for radial grids                                                     
   RDEPT  =    1.766    core radius for aug-charge                                                  
                                                                                                    
   Atomic configuration                                                                             
    8 entries                                                                                       
     n  l   j            E        occ.                                                              
     1  0  0.50     -6993.8440   2.0000                                                             
     2  0  0.50      -814.6047   2.0000                                                             
     2  1  1.50      -693.3689   6.0000                                                             
     3  0  0.50       -89.4732   2.0000                                                             
     3  1  1.50       -55.6373   6.0000                                                             
     3  2  2.50        -3.8151   7.0000                                                             
     4  0  0.50        -4.2551   1.0000                                                             
     4  3  2.50        -1.3606   0.0000                                                             
   Description                                                                                      
     l       E           TYP  RCUT    TYP  RCUT                                                     
     1    -55.6372668     23  2.000                                                                 
     1     -5.4423304     23  2.000                                                                 
     2     -3.8151096     23  2.200                                                                 
     2     -5.1756922     23  2.200                                                                 
     0     -4.2550951     23  2.200                                                                 
     0     27.2116520     23  2.200                                                                 
     3     -1.3605826     23  2.200                                                                 
  local pseudopotential read in
  partial core-charges read in
  partial kinetic energy density read in
  atomic valenz-charges read in
  non local Contribution for L=           1  read in
    real space projection operators read in
  non local Contribution for L=           1  read in
    real space projection operators read in
  non local Contribution for L=           2  read in
    real space projection operators read in
  non local Contribution for L=           2  read in
    real space projection operators read in
  non local Contribution for L=           0  read in
    real space projection operators read in
  non local Contribution for L=           0  read in
    real space projection operators read in
    PAW grid and wavefunctions read in
 
   number of l-projection  operators is LMAX  =           6
   number of lm-projection operators is LMMAX =          18
 
 POTCAR:    PAW_PBE Pt 04Feb2005                  
   SHA256 =  3ed90460adef76debcff1cfb73ee1349b515b1a3db03439735b44de3a8db7dc8 Pt/POTCAR             
   COPYR  = (c) Copyright 04Feb2005 Georg Kresse                                                    
   COPYR  = This file is part of the software VASP. Any use, copying, and all other rights are regul
   COPYR  = If you do not have a valid VASP license, you may not use, copy or distribute this file. 
   VRHFIN =Pt: s1d9                                                                                 
   LEXCH  = PE                                                                                      
   EATOM  =   729.1176 eV,   53.5886 Ry                                                             
                                                                                                    
   TITEL  = PAW_PBE Pt 04Feb2005                                                                    
   LULTRA =        F    use ultrasoft PP ?                                                          
   IUNSCR =        1    unscreen: 0-lin 1-nonlin 2-no                                               
   RPACOR =    2.330    partial core radius                                                         
   POMASS =  195.080; ZVAL   =   10.000    mass and valenz                                          
   RCORE  =    2.600    outmost cutoff radius                                                       
   RWIGS  =    2.750; RWIGS  =    1.455    wigner-seitz radius (au A)                               
   ENMAX  =  230.283; ENMIN  =  172.712 eV                                                          
   ICORE  =        3    local potential                                                             
   LCOR   =        T    correct aug charges                                                         
   LPAW   =        T    paw PP                                                                      
   EAUG   =  358.966                                                                                
   DEXC   =    0.000                                                                                
   RMAX   =    2.658    core radius for proj-oper                                                   
   RAUG   =    1.300    factor for augmentation sphere                                              
   RDEP   =    2.761    radius for radial grids                                                     
   RDEPT  =    2.203    core radius for aug-charge                                                  
                                                                                                    
   Atomic configuration                                                                             
   16 entries                                                                                       
     n  l   j            E        occ.                                                              
     1  0  0.50    -78401.1885   2.0000                                                             
     2  0  0.50    -13770.7750   2.0000                                                             
     2  1  1.50    -11931.0468   6.0000                                                             
     3  0  0.50     -3234.7234   2.0000                                                             
     3  1  1.50     -2699.2216   6.0000                                                             
     3  2  2.50     -2119.5714  10.0000                                                             
     4  0  0.50      -695.1528   2.0000                                                             
     4  1  1.50      -519.6034   6.0000                                                             
     4  2  2.50      -306.6786  10.0000                                                             
     4  3  3.50       -70.1041  14.0000                                                             
     5  0  0.50      -101.7747   2.0000                                                             
     5  1  1.50       -55.9873   6.0000                                                             
     5  2  2.50        -6.1423   9.0000                                                             
     6  0  0.50        -5.6573   1.0000                                                             
     6  1  1.50        -6.8029   0.0000                                                             
     5  3  2.50        -1.3606   0.0000                                                             
   Description                                                                                      
     l       E           TYP  RCUT    TYP  RCUT                                                     
     2     -6.1423404     23  2.500                                                                 
     2     -7.5029230     23  2.500                                                                 
     0     -5.6573207     23  2.500                                                                 
     0      0.7416693     23  2.500                                                                 
     1     -2.7211652     23  2.600                                                                 
     1     20.4087390     23  2.600                                                                 
     3     -1.3605826     23  2.500                                                                 
  local pseudopotential read in
  partial core-charges read in
  partial kinetic energy density read in
  atomic valenz-charges read in
  non local Contribution for L=           2  read in
    real space projection operators read in
  non local Contribution for L=           2  read in
    real space projection operators read in
  non local Contribution for L=           0  read in
    real space projection operators read in
  non local Contribution for L=           0  read in
    real space projection operators read in
  non local Contribution for L=           1  read in
    real space projection operators read in
  non local Contribution for L=           1  read in
    real space projection operators read in
    PAW grid and wavefunctions read in
 
   number of l-projection  operators is LMAX  =           6
   number of lm-projection operators is LMMAX =          18
 
  PAW_PBE Fe_pv 02Aug2007               :
 energy of atom  1       EATOM=-2457.4239
 kinetic energy error for atom=    0.0062 (will be added to EATOM!!)
  PAW_PBE Pt 04Feb2005                  :
 energy of atom  2       EATOM= -729.1176
 kinetic energy error for atom=    0.0032 (will be added to EATOM!!)
 
 
 POSCAR: Fe9 Pt3
  positions in direct lattice
  velocities in cartesian coordinates


 exchange-correlation table for PE
   RHO(1)=    0.500       N(1)  =     2000
   RHO(2)=  100.500       N(2)  =     4000
 


--------------------------------------------------------------------------------------------------------


 ion  position               nearest neighbor table
   1  0.000  0.500  0.167-  10 2.59  10 2.59  11 2.59  11 2.59   7 2.65   7 2.65   7 2.65   7 2.65
                             5 2.68   5 2.68   4 2.68   4 2.68
   2  0.000  0.500  0.499-  12 2.64  12 2.64   8 2.65   8 2.65   8 2.65   8 2.65  11 2.67  11 2.67
                             6 2.71   6 2.71   5 2.73   5 2.73
   3  0.000  0.500  0.834-  12 2.64  12 2.64   9 2.65   9 2.65   9 2.65   9 2.65  10 2.67  10 2.67
                             6 2.71   6 2.71   4 2.73   4 2.73
   4  0.500  0.500  0.003-   7 2.61   7 2.61   9 2.64   9 2.64  10 2.65  10 2.65  10 2.65  10 2.65
                             1 2.68   1 2.68   3 2.73   3 2.73
   5  0.500  0.500  0.330-   7 2.61   7 2.61   8 2.64   8 2.64  11 2.65  11 2.65  11 2.65  11 2.65
                             1 2.68   1 2.68   2 2.73   2 2.73
   6  0.500  0.500  0.667-   9 2.65   9 2.65   8 2.65   8 2.65  12 2.65  12 2.65  12 2.65  12 2.65
                             3 2.71   3 2.71   2 2.71   2 2.71
   7  0.500  0.000  0.167-   4 2.61   4 2.61   5 2.61   5 2.61   1 2.65   1 2.65   1 2.65   1 2.65
                            10 2.66  10 2.66  11 2.66  11 2.66
   8  0.500  0.000  0.498-   5 2.64   5 2.64   6 2.65   6 2.65   2 2.65   2 2.65   2 2.65   2 2.65
                            12 2.72  12 2.72  11 2.73  11 2.73
   9  0.500  0.000  0.836-   4 2.64   4 2.64   6 2.65   6 2.65   3 2.65   3 2.65   3 2.65   3 2.65
                            12 2.72  12 2.72  10 2.73  10 2.73
  10  0.000  0.000  0.006-   1 2.59   1 2.59   4 2.65   4 2.65   4 2.65   4 2.65   7 2.66   7 2.66
                             3 2.67   3 2.67   9 2.73   9 2.73
  11  0.000  0.000  0.328-   1 2.59   1 2.59   5 2.65   5 2.65   5 2.65   5 2.65   7 2.66   7 2.66
                             2 2.67   2 2.67   8 2.73   8 2.73
  12  0.000  0.000  0.667-   2 2.64   2 2.64   3 2.64   3 2.64   6 2.65   6 2.65   6 2.65   6 2.65
                             8 2.72   8 2.72   9 2.72   9 2.72
 
  LATTYP: Found a simple orthorhombic cell.
 ALAT       =     3.6439714822
 B/A-ratio  =     1.0576452243
 C/A-ratio  =     3.1264757277
  
  Lattice vectors:
  
 A1 = (   0.0000000000,  -3.6439714822,   0.0000000000)
 A2 = (   3.8540290355,   0.0000000000,   0.0000000000)
 A3 = (   0.0000000000,   0.0000000000,  11.3927883915)


Analysis of symmetry for initial positions (statically):
=====================================================================
 Subroutine PRICEL returns:
 Original cell was already a primitive cell.
 

 Routine SETGRP: Setting up the symmetry group for a 
 simple orthorhombic supercell.


 Subroutine GETGRP returns: Found  4 space group operations
 (whereof  4 operations were pure point group operations)
 out of a pool of  8 trial point group operations.


The static configuration has the point symmetry C_2v.


Analysis of symmetry for dynamics (positions and initial velocities):
=====================================================================
 Subroutine PRICEL returns:
 Original cell was already a primitive cell.
 

 Routine SETGRP: Setting up the symmetry group for a 
 simple orthorhombic supercell.


 Subroutine GETGRP returns: Found  4 space group operations
 (whereof  4 operations were pure point group operations)
 out of a pool of  8 trial point group operations.


The dynamic configuration has the point symmetry C_2v.


Analysis of structural, dynamic, and magnetic symmetry:
=====================================================================
 Subroutine PRICEL returns:
 Original cell was already a primitive cell.
 

 Routine SETGRP: Setting up the symmetry group for a 
 simple orthorhombic supercell.


 Subroutine GETGRP returns: Found  4 space group operations
 (whereof  4 operations were pure point group operations)
 out of a pool of  8 trial point group operations.


The overall configuration has the point symmetry C_2v.


 Subroutine INISYM returns: Found  4 space group operations
 (whereof  4 operations are pure point group operations),
 and found     1 'primitive' translations


----------------------------------------------------------------------------------------

                                     Primitive cell                                     

  volume of cell :     160.0000

  direct lattice vectors                    reciprocal lattice vectors
     3.854029035  0.000000000  0.000000000     0.259468725  0.000000000  0.000000000
     0.000000000  3.643971482  0.000000000     0.000000000  0.274425858  0.000000000
     0.000000000  0.000000000 11.392788392     0.000000000  0.000000000  0.087774824

  length of vectors
     3.854029035  3.643971482 11.392788392     0.259468725  0.274425858  0.087774824

  position of ions in fractional coordinates (direct lattice)
     0.000000000  0.500000000  0.166669265
     0.000000000  0.500000000  0.499320915
     0.000000000  0.500000000  0.834008071
     0.500000000  0.500000000  0.003193795
     0.500000000  0.500000000  0.330141517
     0.500000000  0.500000000  0.666666637
     0.500000000  0.000000000  0.166665348
     0.500000000  0.000000000  0.497776547
     0.500000000  0.000000000  0.835555224
     0.000000000  0.000000000  0.005522193
     0.000000000  0.000000000  0.327816495
     0.000000000  0.000000000  0.666663993

  ion indices of the primitive-cell ions
   primitive index   ion index
                 1           1
                 2           2
                 3           3
                 4           4
                 5           5
                 6           6
                 7           7
                 8           8
                 9           9
                10          10
                11          11
                12          12

----------------------------------------------------------------------------------------

 
 
 KPOINTS: pymatgen with grid density = 8800 / numb

Automatic generation of k-mesh.
 Grid dimensions read from file:
 generate k-points for:   13   13    4

 Generating k-lattice:

  Cartesian coordinates                     Fractional coordinates (reciprocal lattice)
     0.019959133  0.000000000  0.000000000     0.076923077  0.000000000  0.000000000
     0.000000000  0.021109681  0.000000000     0.000000000  0.076923077  0.000000000
     0.000000000  0.000000000  0.021943706     0.000000000  0.000000000  0.250000000

  Length of vectors
     0.019959133  0.021109681  0.021943706

  Shift w.r.t. Gamma in fractional coordinates (k-lattice)
     0.000000000  0.000000000  0.000000000

 TETIRR: Found   2022 inequivalent tetrahedra from     4056
 
 Subroutine IBZKPT returns following result:
 ===========================================
 
 Found    147 irreducible k-points:
 
 Following reciprocal coordinates:
            Coordinates               Weight
  0.000000  0.000000  0.000000      1.000000
  0.076923  0.000000  0.000000      2.000000
  0.153846  0.000000  0.000000      2.000000
  0.230769  0.000000  0.000000      2.000000
  0.307692  0.000000  0.000000      2.000000
  0.384615  0.000000  0.000000      2.000000
  0.461538  0.000000  0.000000      2.000000
  0.000000  0.076923  0.000000      2.000000
  0.076923  0.076923  0.000000      4.000000
  0.153846  0.076923  0.000000      4.000000
  0.230769  0.076923  0.000000      4.000000
  0.307692  0.076923  0.000000      4.000000
  0.384615  0.076923  0.000000      4.000000
  0.461538  0.076923  0.000000      4.000000
  0.000000  0.153846  0.000000      2.000000
  0.076923  0.153846  0.000000      4.000000
  0.153846  0.153846  0.000000      4.000000
  0.230769  0.153846  0.000000      4.000000
  0.307692  0.153846  0.000000      4.000000
  0.384615  0.153846  0.000000      4.000000
  0.461538  0.153846  0.000000      4.000000
  0.000000  0.230769  0.000000      2.000000
  0.076923  0.230769  0.000000      4.000000
  0.153846  0.230769  0.000000      4.000000
  0.230769  0.230769  0.000000      4.000000
  0.307692  0.230769  0.000000      4.000000
  0.384615  0.230769  0.000000      4.000000
  0.461538  0.230769  0.000000      4.000000
  0.000000  0.307692  0.000000      2.000000
  0.076923  0.307692  0.000000      4.000000
  0.153846  0.307692  0.000000      4.000000
  0.230769  0.307692  0.000000      4.000000
  0.307692  0.307692  0.000000      4.000000
  0.384615  0.307692  0.000000      4.000000
  0.461538  0.307692  0.000000      4.000000
  0.000000  0.384615  0.000000      2.000000
  0.076923  0.384615  0.000000      4.000000
  0.153846  0.384615  0.000000      4.000000
  0.230769  0.384615  0.000000      4.000000
  0.307692  0.384615  0.000000      4.000000
  0.384615  0.384615  0.000000      4.000000
  0.461538  0.384615  0.000000      4.000000
  0.000000  0.461538  0.000000      2.000000
  0.076923  0.461538  0.000000      4.000000
  0.153846  0.461538  0.000000      4.000000
  0.230769  0.461538  0.000000      4.000000
  0.307692  0.461538  0.000000      4.000000
  0.384615  0.461538  0.000000      4.000000
  0.461538  0.461538  0.000000      4.000000
  0.000000  0.000000  0.250000      2.000000
  0.076923  0.000000  0.250000      4.000000
  0.153846  0.000000  0.250000      4.000000
  0.230769  0.000000  0.250000      4.000000
  0.307692  0.000000  0.250000      4.000000
  0.384615  0.000000  0.250000      4.000000
  0.461538  0.000000  0.250000      4.000000
  0.000000  0.076923  0.250000      4.000000
  0.076923  0.076923  0.250000      8.000000
  0.153846  0.076923  0.250000      8.000000
  0.230769  0.076923  0.250000      8.000000
  0.307692  0.076923  0.250000      8.000000
  0.384615  0.076923  0.250000      8.000000
  0.461538  0.076923  0.250000      8.000000
  0.000000  0.153846  0.250000      4.000000
  0.076923  0.153846  0.250000      8.000000
  0.153846  0.153846  0.250000      8.000000
  0.230769  0.153846  0.250000      8.000000
  0.307692  0.153846  0.250000      8.000000
  0.384615  0.153846  0.250000      8.000000
  0.461538  0.153846  0.250000      8.000000
  0.000000  0.230769  0.250000      4.000000
  0.076923  0.230769  0.250000      8.000000
  0.153846  0.230769  0.250000      8.000000
  0.230769  0.230769  0.250000      8.000000
  0.307692  0.230769  0.250000      8.000000
  0.384615  0.230769  0.250000      8.000000
  0.461538  0.230769  0.250000      8.000000
  0.000000  0.307692  0.250000      4.000000
  0.076923  0.307692  0.250000      8.000000
  0.153846  0.307692  0.250000      8.000000
  0.230769  0.307692  0.250000      8.000000
  0.307692  0.307692  0.250000      8.000000
  0.384615  0.307692  0.250000      8.000000
  0.461538  0.307692  0.250000      8.000000
  0.000000  0.384615  0.250000      4.000000
  0.076923  0.384615  0.250000      8.000000
  0.153846  0.384615  0.250000      8.000000
  0.230769  0.384615  0.250000      8.000000
  0.307692  0.384615  0.250000      8.000000
  0.384615  0.384615  0.250000      8.000000
  0.461538  0.384615  0.250000      8.000000
  0.000000  0.461538  0.250000      4.000000
  0.076923  0.461538  0.250000      8.000000
  0.153846  0.461538  0.250000      8.000000
  0.230769  0.461538  0.250000      8.000000
  0.307692  0.461538  0.250000      8.000000
  0.384615  0.461538  0.250000      8.000000
  0.461538  0.461538  0.250000      8.000000
  0.000000  0.000000  0.500000      1.000000
  0.076923  0.000000  0.500000      2.000000
  0.153846  0.000000  0.500000      2.000000
  0.230769  0.000000  0.500000      2.000000
  0.307692  0.000000  0.500000      2.000000
  0.384615  0.000000  0.500000      2.000000
  0.461538  0.000000  0.500000      2.000000
  0.000000  0.076923  0.500000      2.000000
  0.076923  0.076923  0.500000      4.000000
  0.153846  0.076923  0.500000      4.000000
  0.230769  0.076923  0.500000      4.000000
  0.307692  0.076923  0.500000      4.000000
  0.384615  0.076923  0.500000      4.000000
  0.461538  0.076923  0.500000      4.000000
  0.000000  0.153846  0.500000      2.000000
  0.076923  0.153846  0.500000      4.000000
  0.153846  0.153846  0.500000      4.000000
  0.230769  0.153846  0.500000      4.000000
  0.307692  0.153846  0.500000      4.000000
  0.384615  0.153846  0.500000      4.000000
  0.461538  0.153846  0.500000      4.000000
  0.000000  0.230769  0.500000      2.000000
  0.076923  0.230769  0.500000      4.000000
  0.153846  0.230769  0.500000      4.000000
  0.230769  0.230769  0.500000      4.000000
  0.307692  0.230769  0.500000      4.000000
  0.384615  0.230769  0.500000      4.000000
  0.461538  0.230769  0.500000      4.000000
  0.000000  0.307692  0.500000      2.000000
  0.076923  0.307692  0.500000      4.000000
  0.153846  0.307692  0.500000      4.000000
  0.230769  0.307692  0.500000      4.000000
  0.307692  0.307692  0.500000      4.000000
  0.384615  0.307692  0.500000      4.000000
  0.461538  0.307692  0.500000      4.000000
  0.000000  0.384615  0.500000      2.000000
  0.076923  0.384615  0.500000      4.000000
  0.153846  0.384615  0.500000      4.000000
  0.230769  0.384615  0.500000      4.000000
  0.307692  0.384615  0.500000      4.000000
  0.384615  0.384615  0.500000      4.000000
  0.461538  0.384615  0.500000      4.000000
  0.000000  0.461538  0.500000      2.000000
  0.076923  0.461538  0.500000      4.000000
  0.153846  0.461538  0.500000      4.000000
  0.230769  0.461538  0.500000      4.000000
  0.307692  0.461538  0.500000      4.000000
  0.384615  0.461538  0.500000      4.000000
  0.461538  0.461538  0.500000      4.000000
 
 Following cartesian coordinates:
            Coordinates               Weight
  0.000000  0.000000  0.000000      1.000000
  0.019959  0.000000  0.000000      2.000000
  0.039918  0.000000  0.000000      2.000000
  0.059877  0.000000  0.000000      2.000000
  0.079837  0.000000  0.000000      2.000000
  0.099796  0.000000  0.000000      2.000000
  0.119755  0.000000  0.000000      2.000000
  0.000000  0.021110  0.000000      2.000000
  0.019959  0.021110  0.000000      4.000000
  0.039918  0.021110  0.000000      4.000000
  0.059877  0.021110  0.000000      4.000000
  0.079837  0.021110  0.000000      4.000000
  0.099796  0.021110  0.000000      4.000000
  0.119755  0.021110  0.000000      4.000000
  0.000000  0.042219  0.000000      2.000000
  0.019959  0.042219  0.000000      4.000000
  0.039918  0.042219  0.000000      4.000000
  0.059877  0.042219  0.000000      4.000000
  0.079837  0.042219  0.000000      4.000000
  0.099796  0.042219  0.000000      4.000000
  0.119755  0.042219  0.000000      4.000000
  0.000000  0.063329  0.000000      2.000000
  0.019959  0.063329  0.000000      4.000000
  0.039918  0.063329  0.000000      4.000000
  0.059877  0.063329  0.000000      4.000000
  0.079837  0.063329  0.000000      4.000000
  0.099796  0.063329  0.000000      4.000000
  0.119755  0.063329  0.000000      4.000000
  0.000000  0.084439  0.000000      2.000000
  0.019959  0.084439  0.000000      4.000000
  0.039918  0.084439  0.000000      4.000000
  0.059877  0.084439  0.000000      4.000000
  0.079837  0.084439  0.000000      4.000000
  0.099796  0.084439  0.000000      4.000000
  0.119755  0.084439  0.000000      4.000000
  0.000000  0.105548  0.000000      2.000000
  0.019959  0.105548  0.000000      4.000000
  0.039918  0.105548  0.000000      4.000000
  0.059877  0.105548  0.000000      4.000000
  0.079837  0.105548  0.000000      4.000000
  0.099796  0.105548  0.000000      4.000000
  0.119755  0.105548  0.000000      4.000000
  0.000000  0.126658  0.000000      2.000000
  0.019959  0.126658  0.000000      4.000000
  0.039918  0.126658  0.000000      4.000000
  0.059877  0.126658  0.000000      4.000000
  0.079837  0.126658  0.000000      4.000000
  0.099796  0.126658  0.000000      4.000000
  0.119755  0.126658  0.000000      4.000000
  0.000000  0.000000  0.021944      2.000000
  0.019959  0.000000  0.021944      4.000000
  0.039918  0.000000  0.021944      4.000000
  0.059877  0.000000  0.021944      4.000000
  0.079837  0.000000  0.021944      4.000000
  0.099796  0.000000  0.021944      4.000000
  0.119755  0.000000  0.021944      4.000000
  0.000000  0.021110  0.021944      4.000000
  0.019959  0.021110  0.021944      8.000000
  0.039918  0.021110  0.021944      8.000000
  0.059877  0.021110  0.021944      8.000000
  0.079837  0.021110  0.021944      8.000000
  0.099796  0.021110  0.021944      8.000000
  0.119755  0.021110  0.021944      8.000000
  0.000000  0.042219  0.021944      4.000000
  0.019959  0.042219  0.021944      8.000000
  0.039918  0.042219  0.021944      8.000000
  0.059877  0.042219  0.021944      8.000000
  0.079837  0.042219  0.021944      8.000000
  0.099796  0.042219  0.021944      8.000000
  0.119755  0.042219  0.021944      8.000000
  0.000000  0.063329  0.021944      4.000000
  0.019959  0.063329  0.021944      8.000000
  0.039918  0.063329  0.021944      8.000000
  0.059877  0.063329  0.021944      8.000000
  0.079837  0.063329  0.021944      8.000000
  0.099796  0.063329  0.021944      8.000000
  0.119755  0.063329  0.021944      8.000000
  0.000000  0.084439  0.021944      4.000000
  0.019959  0.084439  0.021944      8.000000
  0.039918  0.084439  0.021944      8.000000
  0.059877  0.084439  0.021944      8.000000
  0.079837  0.084439  0.021944      8.000000
  0.099796  0.084439  0.021944      8.000000
  0.119755  0.084439  0.021944      8.000000
  0.000000  0.105548  0.021944      4.000000
  0.019959  0.105548  0.021944      8.000000
  0.039918  0.105548  0.021944      8.000000
  0.059877  0.105548  0.021944      8.000000
  0.079837  0.105548  0.021944      8.000000
  0.099796  0.105548  0.021944      8.000000
  0.119755  0.105548  0.021944      8.000000
  0.000000  0.126658  0.021944      4.000000
  0.019959  0.126658  0.021944      8.000000
  0.039918  0.126658  0.021944      8.000000
  0.059877  0.126658  0.021944      8.000000
  0.079837  0.126658  0.021944      8.000000
  0.099796  0.126658  0.021944      8.000000
  0.119755  0.126658  0.021944      8.000000
  0.000000  0.000000  0.043887      1.000000
  0.019959  0.000000  0.043887      2.000000
  0.039918  0.000000  0.043887      2.000000
  0.059877  0.000000  0.043887      2.000000
  0.079837  0.000000  0.043887      2.000000
  0.099796  0.000000  0.043887      2.000000
  0.119755  0.000000  0.043887      2.000000
  0.000000  0.021110  0.043887      2.000000
  0.019959  0.021110  0.043887      4.000000
  0.039918  0.021110  0.043887      4.000000
  0.059877  0.021110  0.043887      4.000000
  0.079837  0.021110  0.043887      4.000000
  0.099796  0.021110  0.043887      4.000000
  0.119755  0.021110  0.043887      4.000000
  0.000000  0.042219  0.043887      2.000000
  0.019959  0.042219  0.043887      4.000000
  0.039918  0.042219  0.043887      4.000000
  0.059877  0.042219  0.043887      4.000000
  0.079837  0.042219  0.043887      4.000000
  0.099796  0.042219  0.043887      4.000000
  0.119755  0.042219  0.043887      4.000000
  0.000000  0.063329  0.043887      2.000000
  0.019959  0.063329  0.043887      4.000000
  0.039918  0.063329  0.043887      4.000000
  0.059877  0.063329  0.043887      4.000000
  0.079837  0.063329  0.043887      4.000000
  0.099796  0.063329  0.043887      4.000000
  0.119755  0.063329  0.043887      4.000000
  0.000000  0.084439  0.043887      2.000000
  0.019959  0.084439  0.043887      4.000000
  0.039918  0.084439  0.043887      4.000000
  0.059877  0.084439  0.043887      4.000000
  0.079837  0.084439  0.043887      4.000000
  0.099796  0.084439  0.043887      4.000000
  0.119755  0.084439  0.043887      4.000000
  0.000000  0.105548  0.043887      2.000000
  0.019959  0.105548  0.043887      4.000000
  0.039918  0.105548  0.043887      4.000000
  0.059877  0.105548  0.043887      4.000000
  0.079837  0.105548  0.043887      4.000000
  0.099796  0.105548  0.043887      4.000000
  0.119755  0.105548  0.043887      4.000000
  0.000000  0.126658  0.043887      2.000000
  0.019959  0.126658  0.043887      4.000000
  0.039918  0.126658  0.043887      4.000000
  0.059877  0.126658  0.043887      4.000000
  0.079837  0.126658  0.043887      4.000000
  0.099796  0.126658  0.043887      4.000000
  0.119755  0.126658  0.043887      4.000000
 


--------------------------------------------------------------------------------------------------------




 Dimension of arrays:
   k-points           NKPTS =    147   k-points in BZ     NKDIM =    147   number of bands    NBANDS=    128
   number of dos      NEDOS =    301   number of ions     NIONS =     12
   non local maximal  LDIM  =      6   non local SUM 2l+1 LMDIM =     18
   total plane-waves  NPLWV =  75600
   max r-space proj   IRMAX =      1   max aug-charges    IRDMAX=  28814
   dimension x,y,z NGX =    30 NGY =   28 NGZ =   90
   dimension x,y,z NGXF=    60 NGYF=   56 NGZF=  180
   support grid    NGXF=    60 NGYF=   56 NGZF=  180
   ions per type =               9   3
   NGX,Y,Z   is equivalent  to a cutoff of  12.94, 12.77, 13.13 a.u.
   NGXF,Y,Z  is equivalent  to a cutoff of  25.88, 25.55, 26.27 a.u.

 SYSTEM =  unknown system                          
 POSCAR =  Fe9 Pt3                                 

 Startparameter for this run:
   NWRITE =      2    write-flag & timer
   PREC   = accura    normal or accurate (medium, high low for compatibility)
   ISTART =      0    job   : 0-new  1-cont  2-samecut
   ICHARG =      2    charge: 1-file 2-atom 10-const
   ISPIN  =      2    spin polarized calculation?
   LNONCOLLINEAR =      F non collinear calculations
   LSORBIT =      F    spin-orbit coupling
   INIWAV =      1    electr: 0-lowe 1-rand  2-diag
   LASPH  =      F    aspherical Exc in radial PAW
 Electronic Relaxation 1
   ENCUT  =  520.0 eV  38.22 Ry    6.18 a.u.   7.17  6.78 21.18*2*pi/ulx,y,z
   ENINI  =  520.0     initial cutoff
   ENAUG  =  578.3 eV  augmentation charge cutoff
   NELM   =    200;   NELMIN=  2; NELMDL=  0     # of ELM steps 
   EDIFF  = 0.1E-05   stopping-criterion for ELM
   LREAL  =      F    real-space projection
   NLSPLINE    = F    spline interpolate recip. space projectors
   LCOMPAT=      F    compatible to vasp.4.4
   GGA_COMPAT  = T    GGA compatible to vasp.4.4-vasp.4.6
   LMAXPAW     = -100 max onsite density
   LMAXMIX     =    2 max onsite mixed and CHGCAR
   VOSKOWN=      0    Vosko Wilk Nusair interpolation
   ROPT   =    0.00000   0.00000
 Ionic relaxation
   EDIFFG = -.1E-01   stopping-criterion for IOM
   NSW    =      0    number of steps for IOM
   NBLOCK =      1;   KBLOCK =      1    inner block; outer block 
   IBRION =     -1    ionic relax: 0-MD 1-quasi-New 2-CG
   NFREE  =      0    steps in history (QN), initial steepest desc. (CG)
   ISIF   =      4    stress and relaxation
   IWAVPR =     10    prediction:  0-non 1-charg 2-wave 3-comb
   ISYM   =      2    0-nonsym 1-usesym 2-fastsym
   LCORR  =      T    Harris-Foulkes like correction to forces

   POTIM  = 0.5000    time-step for ionic-motion
   TEIN   =    0.0    initial temperature
   TEBEG  =    0.0;   TEEND  =   0.0 temperature during run
   SMASS  =  -3.00    Nose mass-parameter (am)
   estimated Nose-frequenzy (Omega)   =  0.10E-29 period in steps = 0.13E+47 mass=  -0.339E-27a.u.
   SCALEE = 1.0000    scale energy and forces
   NPACO  =    256;   APACO  = 10.0  distance and # of slots for P.C.
   PSTRESS=    0.0 pullay stress

  Mass of Ions in am
   POMASS =  55.85195.08
  Ionic Valenz
   ZVAL   =  14.00 10.00
  Atomic Wigner-Seitz radii
   RWIGS  =  -1.00 -1.00
  virtual crystal weights 
   VCA    =   1.00  1.00
   NELECT =     156.0000    total number of electrons
   NUPDOWN=      -1.0000    fix difference up-down

 DOS related values:
   EMIN   =  10.00;   EMAX   =-10.00  energy-range for DOS
   EFERMI =   0.00;   METHOD = LEGACY      
   ISMEAR =    -5;   SIGMA  =   0.20  broadening in eV -4-tet -1-fermi 0-gaus

 Electronic relaxation 2 (details)
   IALGO  =     38    algorithm
   LDIAG  =      T    sub-space diagonalisation (order eigenvalues)
   LSUBROT=      F    optimize rotation matrix (better conditioning)
   TURBO    =      0    0=normal 1=particle mesh
   IRESTART =      0    0=no restart 2=restart with 2 vectors
   NREBOOT  =      0    no. of reboots
   NMIN     =      0    reboot dimension
   EREF     =   0.00    reference energy to select bands
   IMIX   =      4    mixing-type and parameters
     AMIX     =   0.40;   BMIX     =  1.00
     AMIX_MAG =   1.60;   BMIX_MAG =  1.00
     AMIN     =   0.10
     WC   =   100.;   INIMIX=   1;  MIXPRE=   1;  MAXMIX= -45

 Intra band minimization:
   WEIMIN = 0.0000     energy-eigenvalue tresh-hold
   EBREAK =  0.20E-08  absolut break condition
   DEPER  =   0.30     relativ break condition  

   TIME   =   0.40     timestep for ELM

  volume/ion in A,a.u.               =      13.33        89.98
  Fermi-wavevector in a.u.,A,eV,Ry     =   1.623341  3.067669 35.854553  2.635235
  Thomas-Fermi vector in A             =   2.716807
 
 Write flags
   LWAVE        =      F    write WAVECAR
   LDOWNSAMPLE  =      F    k-point downsampling of WAVECAR
   LCHARG       =      T    write CHGCAR
   LVTOT        =      F    write LOCPOT, total local potential
   LVHAR        =      F    write LOCPOT, Hartree potential only
   WRT_POTENTIAL= false  ! write potential to hdf5 file
   LELF         =      F    write electronic localiz. function (ELF)
   LORBIT       =     11    0 simple, 1 ext, 2 COOP (PROOUT), +10 PAW based schemes


 Dipole corrections
   LMONO      =      F    monopole corrections only (constant potential shift)
   LDIPOL     =      F    correct potential (dipole corrections)
   IDIPOL     =      0    1-x, 2-y, 3-z, 4-all directions 
   EPSILON    =  1.0000000 bulk dielectric constant
   LVACPOTAV  =      F  vacuum potentials using an averaging scheme for the charge density
   VACPOTFLAT =  0.1000000 required flatness to determine vacuum potential
 Exchange correlation treatment:
   GGA     = PE    functional components
   XC_C    = 1    coefficients multiplying the functional components
   LIBXC   =     F    Libxc                    
   VOSKOWN =     0    Vosko Wilk Nusair interpolation
   LHFCALC =     F    Hartree Fock is set to
   LHFONE  =     F    Hartree Fock one center treatment
   AEXX    =    0.0000 exact exchange contribution

 Parameters of functionals:
   PE:
     No parameter
 
 Van der Waals corrections
   IVDW    =     0    specifies the selected vdW correction

 Linear response parameters
   LEPSILON=     F    determine dielectric tensor
   LRPA    =     F    only Hartree local field effects (RPA)
   LNABLA  =     F    use nabla operator in PAW spheres
   LVEL    =     F    velocity operator in full k-point grid
   CSHIFT  =0.1000    complex shift for real part using Kramers Kronig
   OMEGAMAX=  -1.0    maximum frequency
   DEG_THRESHOLD= 0.2000000E-02 threshold for treating states as degnerate
   RTIME   =   -0.100 relaxation time in fs
  (WPLASMAI=    0.000 imaginary part of plasma frequency in eV, 0.658/RTIME)
   DFIELD  = 0.0000000 0.0000000 0.0000000 field for delta impulse in time
 
  Optional k-point grid parameters
   LKPOINTS_OPT  =     F    use optional k-point grid
   KPOINTS_OPT_MODE=     1    mode for optional k-point grid
 
 Orbital magnetization related:
   ORBITALMAG=     F  switch on orbital magnetization
   LCHIMAG   =     F  perturbation theory with respect to B field
   DQ        =  0.001000  dq finite difference perturbation B field
   LLRAUG    =     F  two centre corrections for induced B field
   LBONE     =     F  B-component reconstruction in AE one-centre
   LVGVCALC  =     T  calculate vGv susceptibility
   LVGVAPPL  =     F  apply vGv susceptibility instead of pGv for G=0

 Random number generation:
   RANDOM_GENERATOR = DEFAULT
   PCG_SEED         = not used


--------------------------------------------------------------------------------------------------------


 Static calculation
 charge density and potential will be updated during run
 spin polarized calculation
 Variant of blocked Davidson
 Davidson routine will perform the subspace rotation
 perform sub-space diagonalisation
    after iterative eigenvector-optimisation
 modified Broyden-mixing scheme, WC =      100.0
 initial mixing is a Kerker type mixing with AMIX =  0.4000 and BMIX =      1.0000
 Hartree-type preconditioning will be used
 using additional bands           50
 reciprocal scheme for non local part
 use partial core corrections
 calculate Harris-corrections to forces 
   (improved forces if not selfconsistent)
 use gradient corrections 
 use of overlap-Matrix (Vanderbilt PP)
 Fermi weights with tetrahedron method with Bloechl corrections


--------------------------------------------------------------------------------------------------------


  energy-cutoff  :      520.00
  volume of cell :      160.00
      direct lattice vectors                 reciprocal lattice vectors
     3.854029035  0.000000000  0.000000000     0.259468725  0.000000000  0.000000000
     0.000000000  3.643971482  0.000000000     0.000000000  0.274425858  0.000000000
     0.000000000  0.000000000 11.392788392     0.000000000  0.000000000  0.087774824

  length of vectors
     3.854029035  3.643971482 11.392788392     0.259468725  0.274425858  0.087774824


 
 k-points in units of 2pi/SCALE and weight: pymatgen with grid density = 8800 / numb
   0.00000000  0.00000000  0.00000000       0.001
   0.01995913  0.00000000  0.00000000       0.003
   0.03991827  0.00000000  0.00000000       0.003
   0.05987740  0.00000000  0.00000000       0.003
   0.07983653  0.00000000  0.00000000       0.003
   0.09979566  0.00000000  0.00000000       0.003
   0.11975480  0.00000000  0.00000000       0.003
   0.00000000  0.02110968  0.00000000       0.003
   0.01995913  0.02110968  0.00000000       0.006
   0.03991827  0.02110968  0.00000000       0.006
   0.05987740  0.02110968  0.00000000       0.006
   0.07983653  0.02110968  0.00000000       0.006
   0.09979566  0.02110968  0.00000000       0.006
   0.11975480  0.02110968  0.00000000       0.006
   0.00000000  0.04221936  0.00000000       0.003
   0.01995913  0.04221936  0.00000000       0.006
   0.03991827  0.04221936  0.00000000       0.006
   0.05987740  0.04221936  0.00000000       0.006
   0.07983653  0.04221936  0.00000000       0.006
   0.09979566  0.04221936  0.00000000       0.006
   0.11975480  0.04221936  0.00000000       0.006
   0.00000000  0.06332904  0.00000000       0.003
   0.01995913  0.06332904  0.00000000       0.006
   0.03991827  0.06332904  0.00000000       0.006
   0.05987740  0.06332904  0.00000000       0.006
   0.07983653  0.06332904  0.00000000       0.006
   0.09979566  0.06332904  0.00000000       0.006
   0.11975480  0.06332904  0.00000000       0.006
   0.00000000  0.08443873  0.00000000       0.003
   0.01995913  0.08443873  0.00000000       0.006
   0.03991827  0.08443873  0.00000000       0.006
   0.05987740  0.08443873  0.00000000       0.006
   0.07983653  0.08443873  0.00000000       0.006
   0.09979566  0.08443873  0.00000000       0.006
   0.11975480  0.08443873  0.00000000       0.006
   0.00000000  0.10554841  0.00000000       0.003
   0.01995913  0.10554841  0.00000000       0.006
   0.03991827  0.10554841  0.00000000       0.006
   0.05987740  0.10554841  0.00000000       0.006
   0.07983653  0.10554841  0.00000000       0.006
   0.09979566  0.10554841  0.00000000       0.006
   0.11975480  0.10554841  0.00000000       0.006
   0.00000000  0.12665809  0.00000000       0.003
   0.01995913  0.12665809  0.00000000       0.006
   0.03991827  0.12665809  0.00000000       0.006
   0.05987740  0.12665809  0.00000000       0.006
   0.07983653  0.12665809  0.00000000       0.006
   0.09979566  0.12665809  0.00000000       0.006
   0.11975480  0.12665809  0.00000000       0.006
   0.00000000  0.00000000  0.02194371       0.003
   0.01995913  0.00000000  0.02194371       0.006
   0.03991827  0.00000000  0.02194371       0.006
   0.05987740  0.00000000  0.02194371       0.006
   0.07983653  0.00000000  0.02194371       0.006
   0.09979566  0.00000000  0.02194371       0.006
   0.11975480  0.00000000  0.02194371       0.006
   0.00000000  0.02110968  0.02194371       0.006
   0.01995913  0.02110968  0.02194371       0.012
   0.03991827  0.02110968  0.02194371       0.012
   0.05987740  0.02110968  0.02194371       0.012
   0.07983653  0.02110968  0.02194371       0.012
   0.09979566  0.02110968  0.02194371       0.012
   0.11975480  0.02110968  0.02194371       0.012
   0.00000000  0.04221936  0.02194371       0.006
   0.01995913  0.04221936  0.02194371       0.012
   0.03991827  0.04221936  0.02194371       0.012
   0.05987740  0.04221936  0.02194371       0.012
   0.07983653  0.04221936  0.02194371       0.012
   0.09979566  0.04221936  0.02194371       0.012
   0.11975480  0.04221936  0.02194371       0.012
   0.00000000  0.06332904  0.02194371       0.006
   0.01995913  0.06332904  0.02194371       0.012
   0.03991827  0.06332904  0.02194371       0.012
   0.05987740  0.06332904  0.02194371       0.012
   0.07983653  0.06332904  0.02194371       0.012
   0.09979566  0.06332904  0.02194371       0.012
   0.11975480  0.06332904  0.02194371       0.012
   0.00000000  0.08443873  0.02194371       0.006
   0.01995913  0.08443873  0.02194371       0.012
   0.03991827  0.08443873  0.02194371       0.012
   0.05987740  0.08443873  0.02194371       0.012
   0.07983653  0.08443873  0.02194371       0.012
   0.09979566  0.08443873  0.02194371       0.012
   0.11975480  0.08443873  0.02194371       0.012
   0.00000000  0.10554841  0.02194371       0.006
   0.01995913  0.10554841  0.02194371       0.012
   0.03991827  0.10554841  0.02194371       0.012
   0.05987740  0.10554841  0.02194371       0.012
   0.07983653  0.10554841  0.02194371       0.012
   0.09979566  0.10554841  0.02194371       0.012
   0.11975480  0.10554841  0.02194371       0.012
   0.00000000  0.12665809  0.02194371       0.006
   0.01995913  0.12665809  0.02194371       0.012
   0.03991827  0.12665809  0.02194371       0.012
   0.05987740  0.12665809  0.02194371       0.012
   0.07983653  0.12665809  0.02194371       0.012
   0.09979566  0.12665809  0.02194371       0.012
   0.11975480  0.12665809  0.02194371       0.012
   0.00000000  0.00000000  0.04388741       0.001
   0.01995913  0.00000000  0.04388741       0.003
   0.03991827  0.00000000  0.04388741       0.003
   0.05987740  0.00000000  0.04388741       0.003
   0.07983653  0.00000000  0.04388741       0.003
   0.09979566  0.00000000  0.04388741       0.003
   0.11975480  0.00000000  0.04388741       0.003
   0.00000000  0.02110968  0.04388741       0.003
   0.01995913  0.02110968  0.04388741       0.006
   0.03991827  0.02110968  0.04388741       0.006
   0.05987740  0.02110968  0.04388741       0.006
   0.07983653  0.02110968  0.04388741       0.006
   0.09979566  0.02110968  0.04388741       0.006
   0.11975480  0.02110968  0.04388741       0.006
   0.00000000  0.04221936  0.04388741       0.003
   0.01995913  0.04221936  0.04388741       0.006
   0.03991827  0.04221936  0.04388741       0.006
   0.05987740  0.04221936  0.04388741       0.006
   0.07983653  0.04221936  0.04388741       0.006
   0.09979566  0.04221936  0.04388741       0.006
   0.11975480  0.04221936  0.04388741       0.006
   0.00000000  0.06332904  0.04388741       0.003
   0.01995913  0.06332904  0.04388741       0.006
   0.03991827  0.06332904  0.04388741       0.006
   0.05987740  0.06332904  0.04388741       0.006
   0.07983653  0.06332904  0.04388741       0.006
   0.09979566  0.06332904  0.04388741       0.006
   0.11975480  0.06332904  0.04388741       0.006
   0.00000000  0.08443873  0.04388741       0.003
   0.01995913  0.08443873  0.04388741       0.006
   0.03991827  0.08443873  0.04388741       0.006
   0.05987740  0.08443873  0.04388741       0.006
   0.07983653  0.08443873  0.04388741       0.006
   0.09979566  0.08443873  0.04388741       0.006
   0.11975480  0.08443873  0.04388741       0.006
   0.00000000  0.10554841  0.04388741       0.003
   0.01995913  0.10554841  0.04388741       0.006
   0.03991827  0.10554841  0.04388741       0.006
   0.05987740  0.10554841  0.04388741       0.006
   0.07983653  0.10554841  0.04388741       0.006
   0.09979566  0.10554841  0.04388741       0.006
   0.11975480  0.10554841  0.04388741       0.006
   0.00000000  0.12665809  0.04388741       0.003
   0.01995913  0.12665809  0.04388741       0.006
   0.03991827  0.12665809  0.04388741       0.006
   0.05987740  0.12665809  0.04388741       0.006
   0.07983653  0.12665809  0.04388741       0.006
   0.09979566  0.12665809  0.04388741       0.006
   0.11975480  0.12665809  0.04388741       0.006
 
 k-points in reciprocal lattice and weights: pymatgen with grid density = 8800 / numb
   0.00000000  0.00000000  0.00000000       0.001
   0.07692308  0.00000000  0.00000000       0.003
   0.15384615  0.00000000  0.00000000       0.003
   0.23076923  0.00000000  0.00000000       0.003
   0.30769231  0.00000000  0.00000000       0.003
   0.38461538  0.00000000  0.00000000       0.003
   0.46153846  0.00000000  0.00000000       0.003
   0.00000000  0.07692308  0.00000000       0.003
   0.07692308  0.07692308  0.00000000       0.006
   0.15384615  0.07692308  0.00000000       0.006
   0.23076923  0.07692308  0.00000000       0.006
   0.30769231  0.07692308  0.00000000       0.006
   0.38461538  0.07692308  0.00000000       0.006
   0.46153846  0.07692308  0.00000000       0.006
   0.00000000  0.15384615  0.00000000       0.003
   0.07692308  0.15384615  0.00000000       0.006
   0.15384615  0.15384615  0.00000000       0.006
   0.23076923  0.15384615  0.00000000       0.006
   0.30769231  0.15384615  0.00000000       0.006
   0.38461538  0.15384615  0.00000000       0.006
   0.46153846  0.15384615  0.00000000       0.006
   0.00000000  0.23076923  0.00000000       0.003
   0.07692308  0.23076923  0.00000000       0.006
   0.15384615  0.23076923  0.00000000       0.006
   0.23076923  0.23076923  0.00000000       0.006
   0.30769231  0.23076923  0.00000000       0.006
   0.38461538  0.23076923  0.00000000       0.006
   0.46153846  0.23076923  0.00000000       0.006
   0.00000000  0.30769231  0.00000000       0.003
   0.07692308  0.30769231  0.00000000       0.006
   0.15384615  0.30769231  0.00000000       0.006
   0.23076923  0.30769231  0.00000000       0.006
   0.30769231  0.30769231  0.00000000       0.006
   0.38461538  0.30769231  0.00000000       0.006
   0.46153846  0.30769231  0.00000000       0.006
   0.00000000  0.38461538  0.00000000       0.003
   0.07692308  0.38461538  0.00000000       0.006
   0.15384615  0.38461538  0.00000000       0.006
   0.23076923  0.38461538  0.00000000       0.006
   0.30769231  0.38461538  0.00000000       0.006
   0.38461538  0.38461538  0.00000000       0.006
   0.46153846  0.38461538  0.00000000       0.006
   0.00000000  0.46153846  0.00000000       0.003
   0.07692308  0.46153846  0.00000000       0.006
   0.15384615  0.46153846  0.00000000       0.006
   0.23076923  0.46153846  0.00000000       0.006
   0.30769231  0.46153846  0.00000000       0.006
   0.38461538  0.46153846  0.00000000       0.006
   0.46153846  0.46153846  0.00000000       0.006
   0.00000000  0.00000000  0.25000000       0.003
   0.07692308  0.00000000  0.25000000       0.006
   0.15384615  0.00000000  0.25000000       0.006
   0.23076923  0.00000000  0.25000000       0.006
   0.30769231  0.00000000  0.25000000       0.006
   0.38461538  0.00000000  0.25000000       0.006
   0.46153846  0.00000000  0.25000000       0.006
   0.00000000  0.07692308  0.25000000       0.006
   0.07692308  0.07692308  0.25000000       0.012
   0.15384615  0.07692308  0.25000000       0.012
   0.23076923  0.07692308  0.25000000       0.012
   0.30769231  0.07692308  0.25000000       0.012
   0.38461538  0.07692308  0.25000000       0.012
   0.46153846  0.07692308  0.25000000       0.012
   0.00000000  0.15384615  0.25000000       0.006
   0.07692308  0.15384615  0.25000000       0.012
   0.15384615  0.15384615  0.25000000       0.012
   0.23076923  0.15384615  0.25000000       0.012
   0.30769231  0.15384615  0.25000000       0.012
   0.38461538  0.15384615  0.25000000       0.012
   0.46153846  0.15384615  0.25000000       0.012
   0.00000000  0.23076923  0.25000000       0.006
   0.07692308  0.23076923  0.25000000       0.012
   0.15384615  0.23076923  0.25000000       0.012
   0.23076923  0.23076923  0.25000000       0.012
   0.30769231  0.23076923  0.25000000       0.012
   0.38461538  0.23076923  0.25000000       0.012
   0.46153846  0.23076923  0.25000000       0.012
   0.00000000  0.30769231  0.25000000       0.006
   0.07692308  0.30769231  0.25000000       0.012
   0.15384615  0.30769231  0.25000000       0.012
   0.23076923  0.30769231  0.25000000       0.012
   0.30769231  0.30769231  0.25000000       0.012
   0.38461538  0.30769231  0.25000000       0.012
   0.46153846  0.30769231  0.25000000       0.012
   0.00000000  0.38461538  0.25000000       0.006
   0.07692308  0.38461538  0.25000000       0.012
   0.15384615  0.38461538  0.25000000       0.012
   0.23076923  0.38461538  0.25000000       0.012
   0.30769231  0.38461538  0.25000000       0.012
   0.38461538  0.38461538  0.25000000       0.012
   0.46153846  0.38461538  0.25000000       0.012
   0.00000000  0.46153846  0.25000000       0.006
   0.07692308  0.46153846  0.25000000       0.012
   0.15384615  0.46153846  0.25000000       0.012
   0.23076923  0.46153846  0.25000000       0.012
   0.30769231  0.46153846  0.25000000       0.012
   0.38461538  0.46153846  0.25000000       0.012
   0.46153846  0.46153846  0.25000000       0.012
   0.00000000  0.00000000  0.50000000       0.001
   0.07692308  0.00000000  0.50000000       0.003
   0.15384615  0.00000000  0.50000000       0.003
   0.23076923  0.00000000  0.50000000       0.003
   0.30769231  0.00000000  0.50000000       0.003
   0.38461538  0.00000000  0.50000000       0.003
   0.46153846  0.00000000  0.50000000       0.003
   0.00000000  0.07692308  0.50000000       0.003
   0.07692308  0.07692308  0.50000000       0.006
   0.15384615  0.07692308  0.50000000       0.006
   0.23076923  0.07692308  0.50000000       0.006
   0.30769231  0.07692308  0.50000000       0.006
   0.38461538  0.07692308  0.50000000       0.006
   0.46153846  0.07692308  0.50000000       0.006
   0.00000000  0.15384615  0.50000000       0.003
   0.07692308  0.15384615  0.50000000       0.006
   0.15384615  0.15384615  0.50000000       0.006
   0.23076923  0.15384615  0.50000000       0.006
   0.30769231  0.15384615  0.50000000       0.006
   0.38461538  0.15384615  0.50000000       0.006
   0.46153846  0.15384615  0.50000000       0.006
   0.00000000  0.23076923  0.50000000       0.003
   0.07692308  0.23076923  0.50000000       0.006
   0.15384615  0.23076923  0.50000000       0.006
   0.23076923  0.23076923  0.50000000       0.006
   0.30769231  0.23076923  0.50000000       0.006
   0.38461538  0.23076923  0.50000000       0.006
   0.46153846  0.23076923  0.50000000       0.006
   0.00000000  0.30769231  0.50000000       0.003
   0.07692308  0.30769231  0.50000000       0.006
   0.15384615  0.30769231  0.50000000       0.006
   0.23076923  0.30769231  0.50000000       0.006
   0.30769231  0.30769231  0.50000000       0.006
   0.38461538  0.30769231  0.50000000       0.006
   0.46153846  0.30769231  0.50000000       0.006
   0.00000000  0.38461538  0.50000000       0.003
   0.07692308  0.38461538  0.50000000       0.006
   0.15384615  0.38461538  0.50000000       0.006
   0.23076923  0.38461538  0.50000000       0.006
   0.30769231  0.38461538  0.50000000       0.006
   0.38461538  0.38461538  0.50000000       0.006
   0.46153846  0.38461538  0.50000000       0.006
   0.00000000  0.46153846  0.50000000       0.003
   0.07692308  0.46153846  0.50000000       0.006
   0.15384615  0.46153846  0.50000000       0.006
   0.23076923  0.46153846  0.50000000       0.006
   0.30769231  0.46153846  0.50000000       0.006
   0.38461538  0.46153846  0.50000000       0.006
   0.46153846  0.46153846  0.50000000       0.006
 
 position of ions in fractional coordinates (direct lattice) 
   0.00000000  0.50000000  0.16666927
   0.00000000  0.50000000  0.49932092
   0.00000000  0.50000000  0.83400807
   0.50000000  0.50000000  0.00319379
   0.50000000  0.50000000  0.33014152
   0.50000000  0.50000000  0.66666664
   0.50000000  0.00000000  0.16666535
   0.50000000  0.00000000  0.49777655
   0.50000000  0.00000000  0.83555522
   0.00000000  0.00000000  0.00552219
   0.00000000  0.00000000  0.32781649
   0.00000000  0.00000000  0.66666399
 
 position of ions in cartesian coordinates  (Angst):
   0.00000000  1.82198574  1.89882767
   0.00000000  1.82198574  5.68865752
   0.00000000  1.82198574  9.50167747
   1.92701452  1.82198574  0.03638623
   1.92701452  1.82198574  3.76123244
   1.92701452  1.82198574  7.59519192
   1.92701452  0.00000000  1.89878304
   1.92701452  0.00000000  5.67106286
   1.92701452  0.00000000  9.51930386
   0.00000000  0.00000000  0.06291318
   0.00000000  0.00000000  3.73474396
   0.00000000  0.00000000  7.59516181
 


--------------------------------------------------------------------------------------------------------


 k-point     1 :   0.0000 0.0000 0.0000  plane waves:    4305
 k-point     2 :   0.0769 0.0000 0.0000  plane waves:    4309
 k-point     3 :   0.1538 0.0000 0.0000  plane waves:    4287
 k-point     4 :   0.2308 0.0000 0.0000  plane waves:    4308
 k-point     5 :   0.3077 0.0000 0.0000  plane waves:    4314
 k-point     6 :   0.3846 0.0000 0.0000  plane waves:    4326
 k-point     7 :   0.4615 0.0000 0.0000  plane waves:    4312
 k-point     8 :   0.0000 0.0769 0.0000  plane waves:    4307
 k-point     9 :   0.0769 0.0769 0.0000  plane waves:    4293
 k-point    10 :   0.1538 0.0769 0.0000  plane waves:    4307
 k-point    11 :   0.2308 0.0769 0.0000  plane waves:    4305
 k-point    12 :   0.3077 0.0769 0.0000  plane waves:    4309
 k-point    13 :   0.3846 0.0769 0.0000  plane waves:    4320
 k-point    14 :   0.4615 0.0769 0.0000  plane waves:    4322
 k-point    15 :   0.0000 0.1538 0.0000  plane waves:    4301
 k-point    16 :   0.0769 0.1538 0.0000  plane waves:    4296
 k-point    17 :   0.1538 0.1538 0.0000  plane waves:    4305
 k-point    18 :   0.2308 0.1538 0.0000  plane waves:    4311
 k-point    19 :   0.3077 0.1538 0.0000  plane waves:    4297
 k-point    20 :   0.3846 0.1538 0.0000  plane waves:    4301
 k-point    21 :   0.4615 0.1538 0.0000  plane waves:    4323
 k-point    22 :   0.0000 0.2308 0.0000  plane waves:    4306
 k-point    23 :   0.0769 0.2308 0.0000  plane waves:    4294
 k-point    24 :   0.1538 0.2308 0.0000  plane waves:    4291
 k-point    25 :   0.2308 0.2308 0.0000  plane waves:    4291
 k-point    26 :   0.3077 0.2308 0.0000  plane waves:    4303
 k-point    27 :   0.3846 0.2308 0.0000  plane waves:    4305
 k-point    28 :   0.4615 0.2308 0.0000  plane waves:    4320
 k-point    29 :   0.0000 0.3077 0.0000  plane waves:    4308
 k-point    30 :   0.0769 0.3077 0.0000  plane waves:    4307
 k-point    31 :   0.1538 0.3077 0.0000  plane waves:    4308
 k-point    32 :   0.2308 0.3077 0.0000  plane waves:    4300
 k-point    33 :   0.3077 0.3077 0.0000  plane waves:    4318
 k-point    34 :   0.3846 0.3077 0.0000  plane waves:    4319
 k-point    35 :   0.4615 0.3077 0.0000  plane waves:    4309
 k-point    36 :   0.0000 0.3846 0.0000  plane waves:    4318
 k-point    37 :   0.0769 0.3846 0.0000  plane waves:    4316
 k-point    38 :   0.1538 0.3846 0.0000  plane waves:    4313
 k-point    39 :   0.2308 0.3846 0.0000  plane waves:    4309
 k-point    40 :   0.3077 0.3846 0.0000  plane waves:    4309
 k-point    41 :   0.3846 0.3846 0.0000  plane waves:    4310
 k-point    42 :   0.4615 0.3846 0.0000  plane waves:    4313
 k-point    43 :   0.0000 0.4615 0.0000  plane waves:    4306
 k-point    44 :   0.0769 0.4615 0.0000  plane waves:    4310
 k-point    45 :   0.1538 0.4615 0.0000  plane waves:    4297
 k-point    46 :   0.2308 0.4615 0.0000  plane waves:    4309
 k-point    47 :   0.3077 0.4615 0.0000  plane waves:    4316
 k-point    48 :   0.3846 0.4615 0.0000  plane waves:    4321
 k-point    49 :   0.4615 0.4615 0.0000  plane waves:    4320
 k-point    50 :   0.0000 0.0000 0.2500  plane waves:    4312
 k-point    51 :   0.0769 0.0000 0.2500  plane waves:    4298
 k-point    52 :   0.1538 0.0000 0.2500  plane waves:    4297
 k-point    53 :   0.2308 0.0000 0.2500  plane waves:    4315
 k-point    54 :   0.3077 0.0000 0.2500  plane waves:    4317
 k-point    55 :   0.3846 0.0000 0.2500  plane waves:    4309
 k-point    56 :   0.4615 0.0000 0.2500  plane waves:    4307
 k-point    57 :   0.0000 0.0769 0.2500  plane waves:    4301
 k-point    58 :   0.0769 0.0769 0.2500  plane waves:    4296
 k-point    59 :   0.1538 0.0769 0.2500  plane waves:    4293
 k-point    60 :   0.2308 0.0769 0.2500  plane waves:    4308
 k-point    61 :   0.3077 0.0769 0.2500  plane waves:    4318
 k-point    62 :   0.3846 0.0769 0.2500  plane waves:    4317
 k-point    63 :   0.4615 0.0769 0.2500  plane waves:    4315
 k-point    64 :   0.0000 0.1538 0.2500  plane waves:    4291
 k-point    65 :   0.0769 0.1538 0.2500  plane waves:    4292
 k-point    66 :   0.1538 0.1538 0.2500  plane waves:    4296
 k-point    67 :   0.2308 0.1538 0.2500  plane waves:    4304
 k-point    68 :   0.3077 0.1538 0.2500  plane waves:    4311
 k-point    69 :   0.3846 0.1538 0.2500  plane waves:    4312
 k-point    70 :   0.4615 0.1538 0.2500  plane waves:    4310
 k-point    71 :   0.0000 0.2308 0.2500  plane waves:    4295
 k-point    72 :   0.0769 0.2308 0.2500  plane waves:    4297
 k-point    73 :   0.1538 0.2308 0.2500  plane waves:    4293
 k-point    74 :   0.2308 0.2308 0.2500  plane waves:    4300
 k-point    75 :   0.3077 0.2308 0.2500  plane waves:    4312
 k-point    76 :   0.3846 0.2308 0.2500  plane waves:    4307
 k-point    77 :   0.4615 0.2308 0.2500  plane waves:    4316
 k-point    78 :   0.0000 0.3077 0.2500  plane waves:    4306
 k-point    79 :   0.0769 0.3077 0.2500  plane waves:    4307
 k-point    80 :   0.1538 0.3077 0.2500  plane waves:    4306
 k-point    81 :   0.2308 0.3077 0.2500  plane waves:    4312
 k-point    82 :   0.3077 0.3077 0.2500  plane waves:    4309
 k-point    83 :   0.3846 0.3077 0.2500  plane waves:    4306
 k-point    84 :   0.4615 0.3077 0.2500  plane waves:    4312
 k-point    85 :   0.0000 0.3846 0.2500  plane waves:    4316
 k-point    86 :   0.0769 0.3846 0.2500  plane waves:    4319
 k-point    87 :   0.1538 0.3846 0.2500  plane waves:    4311
 k-point    88 :   0.2308 0.3846 0.2500  plane waves:    4308
 k-point    89 :   0.3077 0.3846 0.2500  plane waves:    4307
 k-point    90 :   0.3846 0.3846 0.2500  plane waves:    4304
 k-point    91 :   0.4615 0.3846 0.2500  plane waves:    4314
 k-point    92 :   0.0000 0.4615 0.2500  plane waves:    4310
 k-point    93 :   0.0769 0.4615 0.2500  plane waves:    4322
 k-point    94 :   0.1538 0.4615 0.2500  plane waves:    4309
 k-point    95 :   0.2308 0.4615 0.2500  plane waves:    4311
 k-point    96 :   0.3077 0.4615 0.2500  plane waves:    4307
 k-point    97 :   0.3846 0.4615 0.2500  plane waves:    4304
 k-point    98 :   0.4615 0.4615 0.2500  plane waves:    4311
 k-point    99 :   0.0000 0.0000 0.5000  plane waves:    4302
 k-point   100 :   0.0769 0.0000 0.5000  plane waves:    4290
 k-point   101 :   0.1538 0.0000 0.5000  plane waves:    4282
 k-point   102 :   0.2308 0.0000 0.5000  plane waves:    4312
 k-point   103 :   0.3077 0.0000 0.5000  plane waves:    4330
 k-point   104 :   0.3846 0.0000 0.5000  plane waves:    4318
 k-point   105 :   0.4615 0.0000 0.5000  plane waves:    4322
 k-point   106 :   0.0000 0.0769 0.5000  plane waves:    4302
 k-point   107 :   0.0769 0.0769 0.5000  plane waves:    4294
 k-point   108 :   0.1538 0.0769 0.5000  plane waves:    4294
 k-point   109 :   0.2308 0.0769 0.5000  plane waves:    4312
 k-point   110 :   0.3077 0.0769 0.5000  plane waves:    4328
 k-point   111 :   0.3846 0.0769 0.5000  plane waves:    4322
 k-point   112 :   0.4615 0.0769 0.5000  plane waves:    4306
 k-point   113 :   0.0000 0.1538 0.5000  plane waves:    4300
 k-point   114 :   0.0769 0.1538 0.5000  plane waves:    4284
 k-point   115 :   0.1538 0.1538 0.5000  plane waves:    4294
 k-point   116 :   0.2308 0.1538 0.5000  plane waves:    4310
 k-point   117 :   0.3077 0.1538 0.5000  plane waves:    4322
 k-point   118 :   0.3846 0.1538 0.5000  plane waves:    4332
 k-point   119 :   0.4615 0.1538 0.5000  plane waves:    4324
 k-point   120 :   0.0000 0.2308 0.5000  plane waves:    4280
 k-point   121 :   0.0769 0.2308 0.5000  plane waves:    4290
 k-point   122 :   0.1538 0.2308 0.5000  plane waves:    4296
 k-point   123 :   0.2308 0.2308 0.5000  plane waves:    4304
 k-point   124 :   0.3077 0.2308 0.5000  plane waves:    4302
 k-point   125 :   0.3846 0.2308 0.5000  plane waves:    4312
 k-point   126 :   0.4615 0.2308 0.5000  plane waves:    4310
 k-point   127 :   0.0000 0.3077 0.5000  plane waves:    4298
 k-point   128 :   0.0769 0.3077 0.5000  plane waves:    4298
 k-point   129 :   0.1538 0.3077 0.5000  plane waves:    4304
 k-point   130 :   0.2308 0.3077 0.5000  plane waves:    4302
 k-point   131 :   0.3077 0.3077 0.5000  plane waves:    4302
 k-point   132 :   0.3846 0.3077 0.5000  plane waves:    4312
 k-point   133 :   0.4615 0.3077 0.5000  plane waves:    4312
 k-point   134 :   0.0000 0.3846 0.5000  plane waves:    4318
 k-point   135 :   0.0769 0.3846 0.5000  plane waves:    4320
 k-point   136 :   0.1538 0.3846 0.5000  plane waves:    4316
 k-point   137 :   0.2308 0.3846 0.5000  plane waves:    4312
 k-point   138 :   0.3077 0.3846 0.5000  plane waves:    4314
 k-point   139 :   0.3846 0.3846 0.5000  plane waves:    4308
 k-point   140 :   0.4615 0.3846 0.5000  plane waves:    4308
 k-point   141 :   0.0000 0.4615 0.5000  plane waves:    4318
 k-point   142 :   0.0769 0.4615 0.5000  plane waves:    4334
 k-point   143 :   0.1538 0.4615 0.5000  plane waves:    4304
 k-point   144 :   0.2308 0.4615 0.5000  plane waves:    4302
 k-point   145 :   0.3077 0.4615 0.5000  plane waves:    4308
 k-point   146 :   0.3846 0.4615 0.5000  plane waves:    4318
 k-point   147 :   0.4615 0.4615 0.5000  plane waves:    4320

 maximum and minimum number of plane-waves per node :      4334     4280

 maximum number of plane-waves:      4334
 maximum index in each direction: 
   IXMAX=    7   IYMAX=    6   IZMAX=   21
   IXMIN=   -7   IYMIN=   -7   IZMIN=  -21


 serial   3D FFT for wavefunctions
 parallel 3D FFT for charge:
    minimum data exchange during FFTs selected (reduces bandwidth)


 total amount of memory used by VASP MPI-rank0   310244. kBytes
=======================================================================

   base      :      30000. kBytes
   nonl-proj :     185081. kBytes
   fftplans  :        986. kBytes
   grid      :       7702. kBytes
   one-center:        373. kBytes
   wavefun   :      86102. kBytes
 
     INWAV:  cpu time      0.0001: real time      0.0001
 Broyden mixing: mesh for mixing (old mesh)
   NGX = 15   NGY = 13   NGZ = 43
  (NGX  = 60   NGY  = 56   NGZ  =180)
  gives a total of   8385 points

 initial charge density was supplied:
 charge density of overlapping atoms calculated
 number of electron     156.0000000 magnetization      19.7920000
 keeping initial charge density in first step


--------------------------------------------------------------------------------------------------------


 Maximum index for augmentation-charges         1115 (set IRDMAX)


--------------------------------------------------------------------------------------------------------


 First call to EWALD:  gamma=   0.326
 Maximum number of real-space cells 4x 4x 2
 Maximum number of reciprocal cells 2x 2x 5

    FEWALD:  cpu time      0.0009: real time      0.0009


--------------------------------------- Ionic step        1  -------------------------------------------




--------------------------------------- Iteration      1(   1)  ---------------------------------------


    POTLOK:  cpu time      0.0280: real time      0.0802
    SETDIJ:  cpu time      0.0109: real time      0.0113
     EDDAV:  cpu time     10.9910: real time     11.1783
 BZINTS: Fermi energy:   22.855978;  156.000000 electrons
         Band energy: 0.480942E+03;  BLOECHL correction:   -0.057580
       DOS:  cpu time      0.2300: real time      0.2323
    --------------------------------------------
      LOOP:  cpu time     11.2599: real time     11.5022

 eigenvalue-minimisations  : 75328
 total energy-change (2. order) : 0.1771673E+04  (-0.8486875E+04)
 number of electron     156.0000000 magnetization      19.7920000
 augmentation part      156.0000000 magnetization      19.7920000

 Free energy of the ion-electron system (eV)
  ---------------------------------------------------
  alpha Z        PSCENC =      1063.68830977
  Ewald energy   TEWEN  =    -17929.60778866
  -Hartree energ DENC   =     -6079.67309177
  -exchange      EXHF   =         0.00000000
  -V(xc)+E(xc)   XCENC  =       656.13776737
  PAW double counting   =     20093.88328259   -20817.80093787
  entropy T*S    EENTRO =         0.00000000
  eigenvalues    EBANDS =       480.94216313
  atomic energy  EATOM  =     24304.10294433
  Solvation  Ediel_sol  =         0.00000000
  ---------------------------------------------------
  free energy    TOTEN  =      1771.67264890 eV

  energy without entropy =     1771.67264890  energy(sigma->0) =     1771.67264890


--------------------------------------------------------------------------------------------------------




--------------------------------------- Iteration      1(   2)  ---------------------------------------


     EDDAV:  cpu time     10.8397: real time     11.0235
 BZINTS: Fermi energy:   11.890883;  156.000000 electrons
         Band energy:-0.128472E+04;  BLOECHL correction:   -0.020575
       DOS:  cpu time      0.2296: real time      0.2315
    --------------------------------------------
      LOOP:  cpu time     11.0692: real time     11.2550

 eigenvalue-minimisations  : 75296
 total energy-change (2. order) :-0.1765660E+04  (-0.1674494E+04)
 number of electron     156.0000000 magnetization      19.7920000
 augmentation part      156.0000000 magnetization      19.7920000

 Free energy of the ion-electron system (eV)
  ---------------------------------------------------
  alpha Z        PSCENC =      1063.68830977
  Ewald energy   TEWEN  =    -17929.60778866
  -Hartree energ DENC   =     -6079.67309177
  -exchange      EXHF   =         0.00000000
  -V(xc)+E(xc)   XCENC  =       656.13776737
  PAW double counting   =     20093.88328259   -20817.80093787
  entropy T*S    EENTRO =         0.00000000
  eigenvalues    EBANDS =     -1284.71799015
  atomic energy  EATOM  =     24304.10294433
  Solvation  Ediel_sol  =         0.00000000
  ---------------------------------------------------
  free energy    TOTEN  =         6.01249562 eV

  energy without entropy =        6.01249562  energy(sigma->0) =        6.01249562


--------------------------------------------------------------------------------------------------------




--------------------------------------- Iteration      1(   3)  ---------------------------------------


     EDDAV:  cpu time     12.8892: real time     13.1580
 BZINTS: Fermi energy:   11.293214;  156.000000 electrons
         Band energy:-0.139395E+04;  BLOECHL correction:   -0.027817
       DOS:  cpu time      0.2316: real time      0.2345
    --------------------------------------------
      LOOP:  cpu time     13.1208: real time     13.3924

 eigenvalue-minimisations  : 88256
 total energy-change (2. order) :-0.1092304E+03  (-0.1076899E+03)
 number of electron     156.0000000 magnetization      19.7920000
 augmentation part      156.0000000 magnetization      19.7920000

 Free energy of the ion-electron system (eV)
  ---------------------------------------------------
  alpha Z        PSCENC =      1063.68830977
  Ewald energy   TEWEN  =    -17929.60778866
  -Hartree energ DENC   =     -6079.67309177
  -exchange      EXHF   =         0.00000000
  -V(xc)+E(xc)   XCENC  =       656.13776737
  PAW double counting   =     20093.88328259   -20817.80093787
  entropy T*S    EENTRO =         0.00000000
  eigenvalues    EBANDS =     -1393.94834573
  atomic energy  EATOM  =     24304.10294433
  Solvation  Ediel_sol  =         0.00000000
  ---------------------------------------------------
  free energy    TOTEN  =      -103.21785996 eV

  energy without entropy =     -103.21785996  energy(sigma->0) =     -103.21785996


--------------------------------------------------------------------------------------------------------




--------------------------------------- Iteration      1(   4)  ---------------------------------------


     EDDAV:  cpu time     11.6541: real time     11.8424
 BZINTS: Fermi energy:   11.288361;  156.000000 electrons
         Band energy:-0.139557E+04;  BLOECHL correction:   -0.027828
       DOS:  cpu time      0.2299: real time      0.2318
    --------------------------------------------
      LOOP:  cpu time     11.8840: real time     12.0742

 eigenvalue-minimisations  : 80576
 total energy-change (2. order) :-0.1617109E+01  (-0.1616738E+01)
 number of electron     156.0000000 magnetization      19.7920000
 augmentation part      156.0000000 magnetization      19.7920000

 Free energy of the ion-electron system (eV)
  ---------------------------------------------------
  alpha Z        PSCENC =      1063.68830977
  Ewald energy   TEWEN  =    -17929.60778866
  -Hartree energ DENC   =     -6079.67309177
  -exchange      EXHF   =         0.00000000
  -V(xc)+E(xc)   XCENC  =       656.13776737
  PAW double counting   =     20093.88328259   -20817.80093787
  entropy T*S    EENTRO =         0.00000000
  eigenvalues    EBANDS =     -1395.56545427
  atomic energy  EATOM  =     24304.10294433
  Solvation  Ediel_sol  =         0.00000000
  ---------------------------------------------------
  free energy    TOTEN  =      -104.83496850 eV

  energy without entropy =     -104.83496850  energy(sigma->0) =     -104.83496850


--------------------------------------------------------------------------------------------------------




--------------------------------------- Iteration      1(   5)  ---------------------------------------


     EDDAV:  cpu time     13.6794: real time     14.0585
 BZINTS: Fermi energy:   11.288314;  156.000000 electrons
         Band energy:-0.139560E+04;  BLOECHL correction:   -0.027828
       DOS:  cpu time      0.2296: real time      0.2319
    CHARGE:  cpu time      0.2802: real time      0.2820
    MIXING:  cpu time      0.0052: real time      0.0052
    --------------------------------------------
      LOOP:  cpu time     14.1944: real time     14.5777

 eigenvalue-minimisations  : 92864
 total energy-change (2. order) :-0.3209138E-01  (-0.3209019E-01)
 number of electron     155.9999847 magnetization      18.9939108
 augmentation part       79.3060406 magnetization      13.9084755

 Broyden mixing:
  rms(total) = 0.37829E+01    rms(broyden)= 0.37825E+01
  rms(prec ) = 0.43341E+01
  weight for this iteration     100.00

 Free energy of the ion-electron system (eV)
  ---------------------------------------------------
  alpha Z        PSCENC =      1063.68830977
  Ewald energy   TEWEN  =    -17929.60778866
  -Hartree energ DENC   =     -6079.67309177
  -exchange      EXHF   =         0.00000000
  -V(xc)+E(xc)   XCENC  =       656.13776737
  PAW double counting   =     20093.88328259   -20817.80093787
  entropy T*S    EENTRO =         0.00000000
  eigenvalues    EBANDS =     -1395.59754565
  atomic energy  EATOM  =     24304.10294433
  Solvation  Ediel_sol  =         0.00000000
  ---------------------------------------------------
  free energy    TOTEN  =      -104.86705988 eV

  energy without entropy =     -104.86705988  energy(sigma->0) =     -104.86705988


--------------------------------------------------------------------------------------------------------




--------------------------------------- Iteration      1(   6)  ---------------------------------------


    POTLOK:  cpu time      0.0357: real time      0.0473
    SETDIJ:  cpu time      0.0101: real time      0.0102
     EDDAV:  cpu time     13.3821: real time     13.5679
 BZINTS: Fermi energy:    8.731358;  156.000000 electrons
         Band energy:-0.184118E+04;  BLOECHL correction:   -0.022421
       DOS:  cpu time      0.2359: real time      0.2379
    CHARGE:  cpu time      0.2748: real time      0.2764
    MIXING:  cpu time      0.0046: real time      0.0049
    --------------------------------------------
      LOOP:  cpu time     13.9431: real time     14.1445

 eigenvalue-minimisations  : 90464
 total energy-change (2. order) :-0.1165920E+02  (-0.2054245E+02)
[...]
    113      23.6086      0.00000
    114      23.9434      0.00000
    115      24.2480      0.00000
    116      24.3732      0.00000
    117      24.5499      0.00000
    118      25.1181      0.00000
    119      25.3983      0.00000
    120      26.6604      0.00000
    121      26.7045      0.00000
    122      26.8334      0.00000
    123      27.0794      0.00000
    124      27.4408      0.00000
    125      27.6647      0.00000
    126      28.6511      0.00000
    127      28.7211      0.00000
    128      28.9614      0.00000


--------------------------------------------------------------------------------------------------------


 soft charge-density along one line, spin component           1
         0         1         2         3         4         5         6         7         8         9
 total charge-density along one line
 
 soft charge-density along one line, spin component           2
         0         1         2         3         4         5         6         7         8         9
 total charge-density along one line
 
 pseudopotential strength for first ion, spin component:           1
-43.579   0.000  -0.000   7.030  -0.000   0.000  -0.000  -0.000
  0.000 -43.614  -0.000  -0.000   7.043   0.000  -0.000   0.000
 -0.000  -0.000 -43.562   0.000   0.000   7.024   0.000  -0.000
  7.030  -0.000   0.000   5.812  -0.000   0.000   0.000   0.000
 -0.000   7.043   0.000  -0.000   5.807   0.000   0.000  -0.000
  0.000   0.000   7.024   0.000   0.000   5.812  -0.000   0.000
 -0.000  -0.000   0.000   0.000   0.000  -0.000  -0.988  -0.000
 -0.000   0.000  -0.000   0.000  -0.000   0.000  -0.000  -1.060
 -0.000  -0.000   0.000   0.000   0.000  -0.000   0.000   0.000
 -0.000  -0.000  -0.000   0.000   0.000   0.000   0.000  -0.000
 -0.000  -0.000  -0.000   0.000   0.000   0.000   0.000  -0.000
 -0.000  -0.000   0.000   0.000   0.000  -0.000  -1.519  -0.000
 -0.000   0.000  -0.000   0.000  -0.000   0.000  -0.000  -1.590
 -0.000  -0.000   0.000   0.000   0.000   0.000   0.000   0.000
 -0.000  -0.000  -0.000   0.000   0.000   0.000   0.000  -0.000
 -0.000  -0.000  -0.000   0.000   0.000   0.000   0.000  -0.000
 -0.000   0.000  -0.000  -0.000  -0.000   0.000   0.000  -0.000
 -0.000   0.000  -0.000  -0.000  -0.000   0.000   0.000  -0.000
 pseudopotential strength for first ion, spin component:           2
-45.696   0.000  -0.000   7.920  -0.000   0.000  -0.000  -0.000
  0.000 -45.800  -0.000  -0.000   7.961   0.000  -0.000   0.000
 -0.000  -0.000 -45.621   0.000   0.000   7.889   0.000  -0.000
  7.920  -0.000   0.000   5.557  -0.000   0.000   0.000   0.000
 -0.000   7.961   0.000  -0.000   5.546   0.000   0.000  -0.000
  0.000   0.000   7.889   0.000   0.000   5.564  -0.000   0.000
 -0.000  -0.000   0.000   0.000   0.000  -0.000  -2.613  -0.000
 -0.000   0.000  -0.000   0.000  -0.000   0.000  -0.000  -2.696
 -0.000  -0.000   0.000   0.000   0.000  -0.000   0.000   0.000
 -0.000  -0.000  -0.000   0.000   0.000   0.000   0.000  -0.000
 -0.000  -0.000  -0.000   0.000   0.000   0.000   0.000  -0.000
  0.000  -0.000   0.000   0.000   0.000  -0.000  -3.118  -0.000
 -0.000   0.000  -0.000   0.000  -0.000   0.000  -0.000  -3.199
 -0.000  -0.000   0.000   0.000   0.000  -0.000   0.000   0.000
 -0.000  -0.000  -0.000   0.000   0.000   0.000   0.000  -0.000
 -0.000  -0.000  -0.000   0.000   0.000   0.000   0.000  -0.000
 -0.000   0.000   0.000  -0.000  -0.000   0.000   0.000  -0.000
 -0.000   0.000   0.000  -0.000  -0.000   0.000   0.000  -0.000
 total augmentation occupancy for first ion, spin component:           1
  1.991   0.000   0.000  -0.030   0.000   0.000   0.000   0.000   0.000   0.000   0.000   0.000  -0.000   0.000   0.000   0.000
  0.000   1.991   0.000   0.000  -0.030   0.000   0.000   0.000   0.000   0.000  -0.000   0.000   0.000  -0.000   0.000   0.000
  0.000   0.000   1.991   0.000   0.000  -0.030   0.000   0.000   0.000   0.000   0.000   0.000   0.000   0.000  -0.000   0.000
 -0.030   0.000   0.000   0.199   0.000   0.000   0.000   0.000   0.000   0.000   0.000   0.000  -0.000   0.000   0.000   0.000
  0.000  -0.030   0.000   0.000   0.198   0.000   0.000   0.000  -0.000   0.000   0.000   0.000   0.000   0.000   0.000  -0.000
  0.000   0.000  -0.030   0.000   0.000   0.173   0.000   0.000   0.000   0.000   0.000   0.000   0.000   0.000  -0.000   0.000
  0.000   0.000   0.000   0.000   0.000   0.000   2.766   0.000   0.000   0.000   0.000  -1.377   0.000   0.000   0.000   0.000
  0.000   0.000   0.000   0.000   0.000   0.000   0.000   2.823   0.000   0.000   0.000   0.000  -1.802   0.000   0.000   0.000
  0.000   0.000   0.000   0.000  -0.000   0.000   0.000   0.000   3.353   0.000   0.331   0.000   0.000  -1.910   0.000  -0.272
  0.000   0.000   0.000   0.000   0.000   0.000   0.000   0.000   0.000   2.753   0.000   0.000   0.000   0.000  -1.483   0.000
  0.000  -0.000   0.000   0.000   0.000   0.000   0.000   0.000   0.331   0.000   3.062   0.000   0.000  -0.267   0.000  -1.737
  0.000   0.000   0.000   0.000   0.000   0.000  -1.377   0.000   0.000   0.000   0.000   1.430   0.000   0.000   0.000   0.000
 -0.000   0.000   0.000  -0.000   0.000   0.000   0.000  -1.802   0.000   0.000   0.000   0.000   2.129   0.000   0.000   0.000
  0.000  -0.000   0.000   0.000   0.000   0.000   0.000   0.000  -1.910   0.000  -0.267   0.000   0.000   1.735   0.000   0.163
  0.000   0.000  -0.000   0.000   0.000  -0.000   0.000   0.000   0.000  -1.483   0.000   0.000   0.000   0.000   1.511   0.000
  0.000   0.000   0.000   0.000  -0.000   0.000   0.000   0.000  -0.272   0.000  -1.737   0.000   0.000   0.163   0.000   1.658
  0.000  -0.000   0.000   0.000   0.000   0.000   0.000   0.000  -0.125   0.000   0.187   0.000   0.000   0.107   0.000  -0.176
  0.000   0.000   0.000   0.000   0.000   0.000   0.000   0.000   0.012   0.000  -0.009   0.000   0.000  -0.007   0.000   0.008
 total augmentation occupancy for first ion, spin component:           2
  0.002   0.000   0.000   0.007   0.000   0.000   0.000   0.000   0.000   0.000   0.000   0.000  -0.000   0.000   0.000   0.000
  0.000   0.002   0.000   0.000   0.007   0.000   0.000   0.000   0.000   0.000   0.000   0.000   0.000  -0.000   0.000  -0.000
  0.000   0.000   0.002   0.000   0.000   0.006   0.000   0.000   0.000   0.000   0.000   0.000   0.000   0.000  -0.000   0.000
  0.007   0.000   0.000  -0.029   0.000   0.000   0.000  -0.000   0.000   0.000   0.000   0.000   0.000   0.000   0.000   0.000
  0.000   0.007   0.000   0.000  -0.027   0.000   0.000   0.000   0.000   0.000  -0.000   0.000   0.000  -0.000   0.000   0.000
  0.000   0.000   0.006   0.000   0.000  -0.038   0.000   0.000   0.000  -0.000   0.000   0.000   0.000   0.000   0.000   0.000
  0.000   0.000   0.000   0.000   0.000   0.000  -1.395   0.000   0.000   0.000   0.000   0.446   0.000   0.000   0.000   0.000
  0.000   0.000   0.000  -0.000   0.000   0.000   0.000  -1.709   0.000   0.000   0.000   0.000   0.642   0.000   0.000   0.000
  0.000   0.000   0.000   0.000   0.000   0.000   0.000   0.000  -2.518   0.000  -0.363   0.000   0.000   1.056   0.000   0.178
  0.000   0.000   0.000   0.000   0.000  -0.000   0.000   0.000   0.000  -1.944   0.000   0.000   0.000   0.000   0.684   0.000
  0.000   0.000   0.000   0.000  -0.000   0.000   0.000   0.000  -0.363   0.000  -2.333   0.000   0.000   0.183   0.000   0.961
  0.000   0.000   0.000   0.000   0.000   0.000   0.446   0.000   0.000   0.000   0.000   0.057   0.000   0.000   0.000   0.000
 -0.000   0.000   0.000   0.000   0.000   0.000   0.000   0.642   0.000   0.000   0.000   0.000  -0.026   0.000   0.000   0.000
  0.000  -0.000   0.000   0.000  -0.000   0.000   0.000   0.000   1.056   0.000   0.183   0.000   0.000  -0.329   0.000  -0.103
  0.000   0.000  -0.000   0.000   0.000   0.000   0.000   0.000   0.000   0.684   0.000   0.000   0.000   0.000  -0.054   0.000
  0.000  -0.000   0.000   0.000   0.000   0.000   0.000   0.000   0.178   0.000   0.961   0.000   0.000  -0.103   0.000  -0.291
  0.000   0.000   0.000   0.000  -0.000   0.000   0.000   0.000   0.019   0.000  -0.021   0.000   0.000   0.006   0.000  -0.009
  0.000  -0.000   0.000   0.000  -0.000   0.000   0.000   0.000  -0.008   0.000   0.002   0.000   0.000   0.003   0.000  -0.000


------------------------ aborting loop because EDIFF is reached ----------------------------------------





 total charge

# of ion       s       p       d       tot
------------------------------------------
    1        0.360   6.355   5.967  12.682
    2        0.340   6.306   5.996  12.642
    3        0.340   6.306   5.996  12.642
    4        0.344   6.319   6.004  12.667
    5        0.344   6.319   6.004  12.667
    6        0.340   6.310   5.994  12.644
    7        0.346   6.324   6.031  12.701
    8        0.332   6.301   6.007  12.640
    9        0.332   6.301   6.007  12.640
   10        0.753   0.686   8.007   9.445
   11        0.753   0.686   8.007   9.445
   12        0.745   0.665   8.024   9.434
--------------------------------------------------
tot          5.329  58.877  78.042 142.248



 magnetization (x)

# of ion       s       p       d       tot
------------------------------------------
    1       -0.038  -0.061  -2.507  -2.606
    2        0.006  -0.017   2.874   2.862
    3        0.006  -0.017   2.874   2.862
    4        0.007   0.004   2.636   2.647
    5        0.007   0.004   2.636   2.647
    6        0.002  -0.016   2.843   2.829
    7        0.012   0.012   2.438   2.463
    8       -0.002  -0.011   2.760   2.747
    9       -0.002  -0.011   2.760   2.747
   10       -0.027  -0.064   0.223   0.132
   11       -0.027  -0.064   0.223   0.132
   12       -0.040  -0.102   0.454   0.311
--------------------------------------------------
tot         -0.096  -0.343  20.213  19.774
 
    CHARGE:  cpu time      0.2667: real time      0.2683
    FORLOC:  cpu time      0.0025: real time      0.0026
    FORNL :  cpu time      1.3017: real time      1.3086
    STRESS:  cpu time      7.6259: real time      7.7863
    FORCOR:  cpu time      0.0230: real time      0.0232
    FORHAR:  cpu time      0.0030: real time      0.0030
    MIXING:  cpu time      0.0070: real time      0.0071
    OFIELD:  cpu time      0.0013: real time      0.0013

  FORCE on cell =-STRESS in cart. coord.  units (eV):
  Direction    XX          YY          ZZ          XY          YZ          ZX
  --------------------------------------------------------------------------------------
  Alpha Z  1063.68831  1063.68831  1063.68831
  Ewald   -5995.06788 -5942.61136 -5991.95137     0.00000     0.00000    -0.00000
  Hartree  1897.52254  1934.44763  1896.56503    -0.00000    -0.00000    -0.00000
  E(xc)    -943.03949  -943.11987  -943.04950    -0.00000     0.00000    -0.00000
  Local    1064.14701   970.38001  1058.27127     0.00000     0.00000    -0.00000
  n-local  -225.48151  -223.22777  -223.39121    13.41396     0.18842     0.17819
  augment  1438.65514  1441.37434  1440.34517     0.00000    -0.00000     0.00000
  Kinetic  1694.33338  1693.66546  1694.21755     5.54912    -0.17503    -0.41284
  Fock        0.00000     0.00000     0.00000     0.00000     0.00000     0.00000
  -------------------------------------------------------------------------------------
  Total      -5.24251    -5.40326    -5.30475     0.00000     0.00000     0.00000
  in kB     -52.49640   -54.10612   -53.11968     0.00000     0.00000     0.00000
  external pressure =      -53.24 kB  Pullay stress =        0.00 kB


 VOLUME and BASIS-vectors are now :
 -----------------------------------------------------------------------------
  energy-cutoff  :      520.00
  volume of cell :      160.00
      direct lattice vectors                 reciprocal lattice vectors
     3.854029035  0.000000000  0.000000000     0.259468725  0.000000000  0.000000000
     0.000000000  3.643971482  0.000000000     0.000000000  0.274425858  0.000000000
     0.000000000  0.000000000 11.392788392     0.000000000  0.000000000  0.087774824

  length of vectors
     3.854029035  3.643971482 11.392788392     0.259468725  0.274425858  0.087774824


 FORCES acting on ions
    electron-ion (+dipol)            ewald-force                    non-local-force                 convergence-correction
 -----------------------------------------------------------------------------------------------
   0.337E-14 0.131E-11 0.340E-01   -.341E-13 0.773E-14 -.317E-01   0.230E-21 0.481E-22 -.736E-04   -.138E-12 0.439E-13 -.237E-02
   0.684E-14 0.200E-11 -.395E+02   0.328E-13 0.282E-13 0.396E+02   -.268E-20 0.120E-17 -.120E+00   -.132E-12 0.455E-13 -.219E-01
   0.533E-14 -.447E-12 0.394E+02   0.227E-14 -.618E-13 -.395E+02   -.190E-19 -.279E-18 0.121E+00   -.142E-12 0.321E-13 0.241E-01
   0.630E-12 -.507E-11 0.944E+02   0.228E-13 0.375E-13 -.951E+02   0.542E-18 -.517E-19 0.633E+00   0.117E-12 -.143E-13 0.425E-01
   0.637E-12 -.495E-11 -.943E+02   -.421E-13 0.261E-13 0.950E+02   0.602E-18 -.192E-18 -.633E+00   0.149E-12 0.535E-14 -.434E-01
   0.629E-12 0.721E-11 -.257E-01   -.146E-14 -.192E-13 0.249E-01   0.216E-23 0.147E-22 -.261E-03   0.140E-12 -.136E-13 0.999E-03
   0.638E-12 -.538E-13 0.196E-01   0.733E-13 -.203E-13 -.175E-01   -.493E-22 0.125E-23 0.474E-03   0.120E-12 0.121E-13 -.238E-02
   0.650E-12 -.204E-12 -.468E+02   -.189E-13 -.640E-13 0.473E+02   -.125E-19 -.199E-19 -.472E+00   0.114E-12 0.188E-13 -.223E-01
   0.647E-12 0.198E-14 0.467E+02   -.146E-13 0.405E-13 -.472E+02   -.819E-21 0.237E-19 0.472E+00   0.108E-12 0.116E-13 0.246E-01
   0.646E-14 -.266E-12 0.781E+02   -.359E-13 0.567E-14 -.783E+02   0.560E-20 -.648E-19 0.883E-01   -.678E-13 -.550E-14 0.290E-01
   0.601E-14 -.256E-13 -.781E+02   -.753E-14 0.289E-13 0.782E+02   -.500E-20 0.865E-18 -.891E-01   -.509E-13 -.529E-14 -.298E-01
   0.681E-14 -.322E-13 -.301E-01   0.148E-13 0.409E-13 0.293E-01   0.398E-23 0.445E-23 0.167E-03   -.557E-13 -.366E-14 0.734E-03
 -----------------------------------------------------------------------------------------------
   0.387E-11 -.545E-12 0.269E-03   -.854E-14 0.503E-13 0.284E-13   0.111E-17 0.148E-17 -.190E-03   0.162E-12 0.127E-12 -.164E-03
 
 
 POSITION                                       TOTAL-FORCE (eV/Angst)
 -----------------------------------------------------------------------------------
      0.00000      1.82199      1.89883        -0.000000      0.000000     -0.000122
      0.00000      1.82199      5.68866        -0.000000      0.000000     -0.009684
      0.00000      1.82199      9.50168        -0.000000      0.000000      0.010138
      1.92701      1.82199      0.03639         0.000000     -0.000000     -0.000298
      1.92701      1.82199      3.76123        -0.000000     -0.000000      0.000220
      1.92701      1.82199      7.59519        -0.000000      0.000000     -0.000056
      1.92701      0.00000      1.89878         0.000000     -0.000000      0.000255
      1.92701      0.00000      5.67106        -0.000000      0.000000     -0.011316
      1.92701      0.00000      9.51930         0.000000      0.000000      0.011434
      0.00000      0.00000      0.06291        -0.000000      0.000000     -0.005597
      0.00000      0.00000      3.73474        -0.000000      0.000000      0.004924
      0.00000      0.00000      7.59516        -0.000000      0.000000      0.000099
 -----------------------------------------------------------------------------------
    total drift:                                0.000000     -0.000000     -0.000084


--------------------------------------------------------------------------------------------------------



  FREE ENERGIE OF THE ION-ELECTRON SYSTEM (eV)
  ---------------------------------------------------
  free  energy   TOTEN  =       -93.23676369 eV

  energy  without entropy=      -93.23676369  energy(sigma->0) =      -93.23676369
 


--------------------------------------------------------------------------------------------------------


    POTLOK:  cpu time      0.0398: real time      0.0401


--------------------------------------------------------------------------------------------------------


     LOOP+:  cpu time    429.6854: real time    438.5708
 -----------------------------------------------------------------------------
|                                                                             |
|           W    W    AA    RRRRR   N    N  II  N    N   GGGG   !!!           |
|           W    W   A  A   R    R  NN   N  II  NN   N  G    G  !!!           |
|           W    W  A    A  R    R  N N  N  II  N N  N  G       !!!           |
|           W WW W  AAAAAA  RRRRR   N  N N  II  N  N N  G  GGG   !            |
|           WW  WW  A    A  R   R   N   NN  II  N   NN  G    G                |
|           W    W  A    A  R    R  N    N  II  N    N   GGGG   !!!           |
|                                                                             |
|     Tetrahedron method does not include variations of the Fermi             |
|     occupations, so forces and stress will be inaccurate. We suggest        |
|     using a different smearing scheme ISMEAR = 1 or 2 for metals in         |
|     relaxations.                                                            |
|                                                                             |
 -----------------------------------------------------------------------------

    4ORBIT:  cpu time      0.0000: real time      0.0000



 total charge

# of ion       s       p       d       tot
------------------------------------------
    1        0.360   6.355   5.967  12.682
    2        0.340   6.306   5.996  12.642
    3        0.340   6.306   5.996  12.642
    4        0.344   6.319   6.004  12.667
    5        0.344   6.319   6.004  12.667
    6        0.340   6.310   5.994  12.644
    7        0.346   6.324   6.031  12.701
    8        0.332   6.301   6.007  12.640
    9        0.332   6.301   6.007  12.640
   10        0.753   0.686   8.007   9.445
   11        0.753   0.686   8.007   9.445
   12        0.745   0.665   8.024   9.434
--------------------------------------------------
tot          5.329  58.877  78.042 142.248



 magnetization (x)

# of ion       s       p       d       tot
------------------------------------------
    1       -0.038  -0.061  -2.507  -2.606
    2        0.006  -0.017   2.874   2.862
    3        0.006  -0.017   2.874   2.862
    4        0.007   0.004   2.636   2.647
    5        0.007   0.004   2.636   2.647
    6        0.002  -0.016   2.843   2.829
    7        0.012   0.012   2.438   2.463
    8       -0.002  -0.011   2.760   2.747
    9       -0.002  -0.011   2.760   2.747
   10       -0.027  -0.064   0.223   0.132
   11       -0.027  -0.064   0.223   0.132
   12       -0.040  -0.102   0.454   0.311
--------------------------------------------------
tot         -0.096  -0.343  20.213  19.774
 
 BZINTS: Fermi energy:    9.493257;  156.000000 electrons
         Band energy:-0.168519E+04;  BLOECHL correction:   -0.023751

 total amount of memory used by VASP MPI-rank0   310244. kBytes
=======================================================================

   base      :      30000. kBytes
   nonl-proj :     185081. kBytes
   fftplans  :        986. kBytes
   grid      :       7702. kBytes
   one-center:        373. kBytes
   wavefun   :      86102. kBytes
 
  
  
 General timing and accounting informations for this job:
 ========================================================
  
                  Total CPU time used (sec):      457.866
                            User time (sec):      447.733
                          System time (sec):       10.133
                         Elapsed time (sec):      473.418
  
                   Maximum memory used (kb):     1106696.
                   Average memory used (kb):          N/A
  
                          Minor page faults:       230012
                          Major page faults:          124
                 Voluntary context switches:         9169
