       N       E                     dE             d eps       ncg     rms          rms(c)
DAV:   1     0.176856543226E+04    0.17686E+04   -0.84736E+04 75296   0.179E+03
DAV:   2     0.563825419588E+01   -0.17629E+04   -0.16718E+04 75264   0.480E+02
DAV:   3    -0.103311796042E+03   -0.10895E+03   -0.10743E+03 88448   0.128E+02
DAV:   4    -0.104903437327E+03   -0.15916E+01   -0.15913E+01 79872   0.155E+01
DAV:   5    -0.104934497889E+03   -0.31061E-01   -0.31060E-01 93120   0.210E+00    0.386E+01
DAV:   6    -0.116246736980E+03   -0.11312E+02   -0.20784E+02 91072   0.635E+01    0.652E+01
DAV:   7    -0.108363635535E+03    0.78831E+01   -0.18617E+02 90336   0.564E+01    0.624E+01
DAV:   8    -0.998654614801E+02    0.84982E+01   -0.23878E+02 91360   0.427E+01    0.389E+01
DAV:   9    -0.102710164080E+03   -0.28447E+01   -0.12886E+02 85920   0.388E+01    0.429E+01
DAV:  10    -0.938773436953E+02    0.88328E+01   -0.35082E+01 85952   0.236E+01    0.212E+01
DAV:  11    -0.936534795140E+02    0.22386E+00   -0.21059E+01 88896   0.174E+01    0.213E+01
DAV:  12    -0.929067932945E+02    0.74669E+00   -0.11130E+01 89216   0.106E+01    0.118E+01
DAV:  13    -0.929176818352E+02   -0.10889E-01   -0.10288E+00 90112   0.544E+00    0.954E+00
DAV:  14    -0.929857222420E+02   -0.68040E-01   -0.11092E+00 92352   0.436E+00    0.901E+00
DAV:  15    -0.931076121388E+02   -0.12189E+00   -0.19496E+00 92160   0.591E+00    0.893E+00
DAV:  16    -0.930584364676E+02    0.49176E-01   -0.20413E+00 91072   0.548E+00    0.525E+00
DAV:  17    -0.930527570566E+02    0.56794E-02   -0.43936E-01 91360   0.331E+00    0.348E+00
DAV:  18    -0.930750079618E+02   -0.22251E-01   -0.24280E-01 89472   0.291E+00    0.346E+00
DAV:  19    -0.930850224113E+02   -0.10014E-01   -0.60582E-02 89376   0.128E+00    0.322E+00
DAV:  20    -0.930784862632E+02    0.65361E-02   -0.42574E-03 88832   0.317E-01    0.320E+00
DAV:  21    -0.930636036013E+02    0.14883E-01   -0.49629E-02 90656   0.128E+00    0.328E+00
DAV:  22    -0.930021021307E+02    0.61501E-01   -0.27852E-01 87008   0.199E+00    0.255E+00
DAV:  23    -0.929818026923E+02    0.20299E-01   -0.69583E-01 87328   0.287E+00    0.318E+00
DAV:  24    -0.929823590386E+02   -0.55635E-03   -0.11797E-01 87648   0.198E+00    0.278E+00
DAV:  25    -0.929794105954E+02    0.29484E-02   -0.59281E-02 86912   0.993E-01    0.184E+00
DAV:  26    -0.929838557901E+02   -0.44452E-02   -0.35435E-02 92992   0.719E-01    0.109E+00
DAV:  27    -0.929837464614E+02    0.10933E-03   -0.14640E-02 93664   0.493E-01    0.384E-01
DAV:  28    -0.929848271269E+02   -0.10807E-02   -0.51529E-03 93344   0.257E-01    0.252E-01
DAV:  29    -0.929849295518E+02   -0.10242E-03   -0.13868E-03 91968   0.171E-01    0.146E-01
DAV:  30    -0.929849399473E+02   -0.10396E-04   -0.34813E-04 91904   0.784E-02    0.790E-02
DAV:  31    -0.929849905621E+02   -0.50615E-04   -0.12236E-04 93632   0.514E-02    0.399E-02
DAV:  32    -0.929850100828E+02   -0.19521E-04   -0.29022E-05 87712   0.204E-02    0.229E-02
DAV:  33    -0.929850134172E+02   -0.33344E-05   -0.71564E-06 80640   0.124E-02    0.166E-02
DAV:  34    -0.929850044195E+02    0.89977E-05   -0.35487E-06 69248   0.969E-03    0.589E-03
DAV:  35    -0.929850018088E+02    0.26107E-05   -0.62719E-07 46432   0.305E-03    0.418E-03
DAV:  36    -0.929850014469E+02    0.36188E-06   -0.35496E-07 43104   0.242E-03
   1 F= -.92985001E+02 E0= -.92985001E+02  d E =0.000000E+00  mag=    16.9709
