 vasp.6.4.3 19Mar24 (build Mar 26 2024 14:05:37) complex                        
  
 executed on             LinuxIFC date 2024.12.17  09:26:41
 running  128 mpi-ranks, on    1 nodes
 distrk:  each k-point on   32 cores,    4 groups
 distr:  one band on NCORE=   1 cores,   32 groups


--------------------------------------------------------------------------------------------------------


 INCAR:
   ALGO = Normal
   EDIFF = 1e-06
   EDIFFG = -0.01
   ENCUT = 520
   GGA = Pe
   IBRION = -1
   ISIF = 4
   ISMEAR = -5
   ISPIN = 2
   KPAR = 4
   LCHARG = True
   LORBIT = 11
   LREAL = False
   LWAVE = False
   MAGMOM = 1*-2.528 1*2.824 1*2.823 2*2.616 1*2.796 1*2.435 1*2.722 1*2.721 1*0.136 1*0.137 1*0.312
   NELM = 200
   NSW = 0
   PREC = Accurate
   SIGMA = 0.2

 POTCAR:    PAW_PBE Fe_pv 02Aug2007               
 POTCAR:    PAW_PBE Pt 04Feb2005                  
 -----------------------------------------------------------------------------
|                                                                             |
|           W    W    AA    RRRRR   N    N  II  N    N   GGGG   !!!           |
|           W    W   A  A   R    R  NN   N  II  NN   N  G    G  !!!           |
|           W    W  A    A  R    R  N N  N  II  N N  N  G       !!!           |
|           W WW W  AAAAAA  RRRRR   N  N N  II  N  N N  G  GGG   !            |
|           WW  WW  A    A  R   R   N   NN  II  N   NN  G    G                |
|           W    W  A    A  R    R  N    N  II  N    N   GGGG   !!!           |
|                                                                             |
|     For optimal performance we recommend to set                             |
|       NCORE = 2 up to number-of-cores-per-socket                            |
|     NCORE specifies how many cores store one orbital (NPAR=cpu/NCORE).      |
|     This setting can greatly improve the performance of VASP for DFT.       |
|     The default, NCORE=1 might be grossly inefficient on modern             |
|     multi-core architectures or massively parallel machines. Do your        |
|     own testing! More info at https://www.vasp.at/wiki/index.php/NCORE      |
|     Unfortunately you need to use the default for GW and RPA                |
|     calculations (for HF NCORE is supported but not extensively tested      |
|     yet).                                                                   |
|                                                                             |
 -----------------------------------------------------------------------------

 POTCAR:    PAW_PBE Fe_pv 02Aug2007               
   SHA256 =  5d22e414b1f82158bf2c7ecb8b97b28fd0923e48cadc1c3bf74d524558f5dd32 Fe_pv/POTCAR          
   COPYR  = (c) Copyright 02Aug2007 Georg Kresse                                                    
   COPYR  = This file is part of the software VASP. Any use, copying, and all other rights are regul
   COPYR  = If you do not have a valid VASP license, you may not use, copy or distribute this file. 
   VRHFIN =Fe:  3pd7s1                                                                              
   LEXCH  = PE                                                                                      
   EATOM  =  2457.4239 eV,  180.6156 Ry                                                             
                                                                                                    
   TITEL  = PAW_PBE Fe_pv 02Aug2007                                                                 
   LULTRA =        F    use ultrasoft PP ?                                                          
   IUNSCR =        1    unscreen: 0-lin 1-nonlin 2-no                                               
   RPACOR =    1.750    partial core radius                                                         
   POMASS =   55.847; ZVAL   =   14.000    mass and valenz                                          
   RCORE  =    2.200    outmost cutoff radius                                                       
   RWIGS  =    2.200; RWIGS  =    1.164    wigner-seitz radius (au A)                               
   ENMAX  =  293.238; ENMIN  =  219.928 eV                                                          
   ICORE  =        3    local potential                                                             
   LCOR   =        T    correct aug charges                                                         
   LPAW   =        T    paw PP                                                                      
   EAUG   =  578.342                                                                                
   DEXC   =    0.000                                                                                
   RMAX   =    2.249    core radius for proj-oper                                                   
   RAUG   =    1.300    factor for augmentation sphere                                              
   RDEP   =    2.296    radius for radial grids                                                     
   RDEPT  =    1.766    core radius for aug-charge                                                  
                                                                                                    
   Atomic configuration                                                                             
    8 entries                                                                                       
     n  l   j            E        occ.                                                              
     1  0  0.50     -6993.8440   2.0000                                                             
     2  0  0.50      -814.6047   2.0000                                                             
     2  1  1.50      -693.3689   6.0000                                                             
     3  0  0.50       -89.4732   2.0000                                                             
     3  1  1.50       -55.6373   6.0000                                                             
     3  2  2.50        -3.8151   7.0000                                                             
     4  0  0.50        -4.2551   1.0000                                                             
     4  3  2.50        -1.3606   0.0000                                                             
   Description                                                                                      
     l       E           TYP  RCUT    TYP  RCUT                                                     
     1    -55.6372668     23  2.000                                                                 
     1     -5.4423304     23  2.000                                                                 
     2     -3.8151096     23  2.200                                                                 
     2     -5.1756922     23  2.200                                                                 
     0     -4.2550951     23  2.200                                                                 
     0     27.2116520     23  2.200                                                                 
     3     -1.3605826     23  2.200                                                                 
  local pseudopotential read in
  partial core-charges read in
  partial kinetic energy density read in
  atomic valenz-charges read in
  non local Contribution for L=           1  read in
    real space projection operators read in
  non local Contribution for L=           1  read in
    real space projection operators read in
  non local Contribution for L=           2  read in
    real space projection operators read in
  non local Contribution for L=           2  read in
    real space projection operators read in
  non local Contribution for L=           0  read in
    real space projection operators read in
  non local Contribution for L=           0  read in
    real space projection operators read in
    PAW grid and wavefunctions read in
 
   number of l-projection  operators is LMAX  =           6
   number of lm-projection operators is LMMAX =          18
 
 POTCAR:    PAW_PBE Pt 04Feb2005                  
   SHA256 =  3ed90460adef76debcff1cfb73ee1349b515b1a3db03439735b44de3a8db7dc8 Pt/POTCAR             
   COPYR  = (c) Copyright 04Feb2005 Georg Kresse                                                    
   COPYR  = This file is part of the software VASP. Any use, copying, and all other rights are regul
   COPYR  = If you do not have a valid VASP license, you may not use, copy or distribute this file. 
   VRHFIN =Pt: s1d9                                                                                 
   LEXCH  = PE                                                                                      
   EATOM  =   729.1176 eV,   53.5886 Ry                                                             
                                                                                                    
   TITEL  = PAW_PBE Pt 04Feb2005                                                                    
   LULTRA =        F    use ultrasoft PP ?                                                          
   IUNSCR =        1    unscreen: 0-lin 1-nonlin 2-no                                               
   RPACOR =    2.330    partial core radius                                                         
   POMASS =  195.080; ZVAL   =   10.000    mass and valenz                                          
   RCORE  =    2.600    outmost cutoff radius                                                       
   RWIGS  =    2.750; RWIGS  =    1.455    wigner-seitz radius (au A)                               
   ENMAX  =  230.283; ENMIN  =  172.712 eV                                                          
   ICORE  =        3    local potential                                                             
   LCOR   =        T    correct aug charges                                                         
   LPAW   =        T    paw PP                                                                      
   EAUG   =  358.966                                                                                
   DEXC   =    0.000                                                                                
   RMAX   =    2.658    core radius for proj-oper                                                   
   RAUG   =    1.300    factor for augmentation sphere                                              
   RDEP   =    2.761    radius for radial grids                                                     
   RDEPT  =    2.203    core radius for aug-charge                                                  
                                                                                                    
   Atomic configuration                                                                             
   16 entries                                                                                       
     n  l   j            E        occ.                                                              
     1  0  0.50    -78401.1885   2.0000                                                             
     2  0  0.50    -13770.7750   2.0000                                                             
     2  1  1.50    -11931.0468   6.0000                                                             
     3  0  0.50     -3234.7234   2.0000                                                             
     3  1  1.50     -2699.2216   6.0000                                                             
     3  2  2.50     -2119.5714  10.0000                                                             
     4  0  0.50      -695.1528   2.0000                                                             
     4  1  1.50      -519.6034   6.0000                                                             
     4  2  2.50      -306.6786  10.0000                                                             
     4  3  3.50       -70.1041  14.0000                                                             
     5  0  0.50      -101.7747   2.0000                                                             
     5  1  1.50       -55.9873   6.0000                                                             
     5  2  2.50        -6.1423   9.0000                                                             
     6  0  0.50        -5.6573   1.0000                                                             
     6  1  1.50        -6.8029   0.0000                                                             
     5  3  2.50        -1.3606   0.0000                                                             
   Description                                                                                      
     l       E           TYP  RCUT    TYP  RCUT                                                     
     2     -6.1423404     23  2.500                                                                 
     2     -7.5029230     23  2.500                                                                 
     0     -5.6573207     23  2.500                                                                 
     0      0.7416693     23  2.500                                                                 
     1     -2.7211652     23  2.600                                                                 
     1     20.4087390     23  2.600                                                                 
     3     -1.3605826     23  2.500                                                                 
  local pseudopotential read in
  partial core-charges read in
  partial kinetic energy density read in
  atomic valenz-charges read in
  non local Contribution for L=           2  read in
    real space projection operators read in
  non local Contribution for L=           2  read in
    real space projection operators read in
  non local Contribution for L=           0  read in
    real space projection operators read in
  non local Contribution for L=           0  read in
    real space projection operators read in
  non local Contribution for L=           1  read in
    real space projection operators read in
  non local Contribution for L=           1  read in
    real space projection operators read in
    PAW grid and wavefunctions read in
 
   number of l-projection  operators is LMAX  =           6
   number of lm-projection operators is LMMAX =          18
 
  PAW_PBE Fe_pv 02Aug2007               :
 energy of atom  1       EATOM=-2457.4239
 kinetic energy error for atom=    0.0062 (will be added to EATOM!!)
  PAW_PBE Pt 04Feb2005                  :
 energy of atom  2       EATOM= -729.1176
 kinetic energy error for atom=    0.0032 (will be added to EATOM!!)
 
 
 POSCAR: Fe9 Pt3
  positions in direct lattice
  velocities in cartesian coordinates


 exchange-correlation table for PE
   RHO(1)=    0.500       N(1)  =     2000
   RHO(2)=  100.500       N(2)  =     4000
 


--------------------------------------------------------------------------------------------------------


 ion  position               nearest neighbor table
   1  0.000  0.500  0.167-  11 2.57  11 2.57  10 2.57  10 2.57   7 2.64   7 2.64   7 2.64   7 2.64
                             5 2.66   5 2.66   4 2.66   4 2.66
   2  0.000  0.500  0.499-  12 2.62  12 2.62   8 2.64   8 2.64   8 2.64   8 2.64  11 2.66  11 2.66
                             6 2.69   6 2.69   5 2.70   5 2.70
   3  0.000  0.500  0.834-  12 2.62  12 2.62   9 2.64   9 2.64   9 2.64   9 2.64  10 2.66  10 2.66
                             6 2.69   6 2.69   4 2.70   4 2.70
   4  0.500  0.500  0.003-   7 2.59   7 2.59   9 2.63   9 2.63  10 2.64  10 2.64  10 2.64  10 2.64
                             1 2.66   1 2.66   3 2.70   3 2.70
   5  0.500  0.500  0.330-   7 2.59   7 2.59   8 2.63   8 2.63  11 2.64  11 2.64  11 2.64  11 2.64
                             1 2.66   1 2.66   2 2.70   2 2.70
   6  0.500  0.500  0.667-   9 2.64   9 2.64   8 2.64   8 2.64  12 2.64  12 2.64  12 2.64  12 2.64
                             3 2.69   3 2.69   2 2.69   2 2.69
   7  0.500  0.000  0.167-   5 2.59   5 2.59   4 2.59   4 2.59   1 2.64   1 2.64   1 2.64   1 2.64
                            10 2.64  10 2.64  11 2.64  11 2.64
   8  0.500  0.000  0.498-   5 2.63   5 2.63   6 2.64   6 2.64   2 2.64   2 2.64   2 2.64   2 2.64
                            12 2.70  12 2.70  11 2.71  11 2.71
   9  0.500  0.000  0.836-   4 2.63   4 2.63   6 2.64   6 2.64   3 2.64   3 2.64   3 2.64   3 2.64
                            12 2.70  12 2.70  10 2.71  10 2.71
  10  0.000  0.000  0.005-   1 2.57   1 2.57   4 2.64   4 2.64   4 2.64   4 2.64   7 2.64   7 2.64
                             3 2.66   3 2.66   9 2.71   9 2.71
  11  0.000  0.000  0.328-   1 2.57   1 2.57   5 2.64   5 2.64   5 2.64   5 2.64   7 2.64   7 2.64
                             2 2.66   2 2.66   8 2.71   8 2.71
  12  0.000  0.000  0.667-   3 2.62   3 2.62   2 2.62   2 2.62   6 2.64   6 2.64   6 2.64   6 2.64
                             9 2.70   9 2.70   8 2.70   8 2.70
 
  LATTYP: Found a simple orthorhombic cell.
 ALAT       =     3.6346716409
 B/A-ratio  =     1.0514182640
 C/A-ratio  =     3.1097722814
  
  Lattice vectors:
  
 A1 = (   0.0000000000,  -3.6346716409,   0.0000000000)
 A2 = (   3.8215601470,   0.0000000000,   0.0000000000)
 A3 = (   0.0000000000,   0.0000000000,  11.3030011208)


Analysis of symmetry for initial positions (statically):
=====================================================================
 Subroutine PRICEL returns:
 Original cell was already a primitive cell.
 

 Routine SETGRP: Setting up the symmetry group for a 
 simple orthorhombic supercell.


 Subroutine GETGRP returns: Found  4 space group operations
 (whereof  4 operations were pure point group operations)
 out of a pool of  8 trial point group operations.


The static configuration has the point symmetry C_2v.


Analysis of symmetry for dynamics (positions and initial velocities):
=====================================================================
 Subroutine PRICEL returns:
 Original cell was already a primitive cell.
 

 Routine SETGRP: Setting up the symmetry group for a 
 simple orthorhombic supercell.


 Subroutine GETGRP returns: Found  4 space group operations
 (whereof  4 operations were pure point group operations)
 out of a pool of  8 trial point group operations.


The dynamic configuration has the point symmetry C_2v.


Analysis of structural, dynamic, and magnetic symmetry:
=====================================================================
 Subroutine PRICEL returns:
 Original cell was already a primitive cell.
 

 Routine SETGRP: Setting up the symmetry group for a 
 simple orthorhombic supercell.


 Subroutine GETGRP returns: Found  4 space group operations
 (whereof  4 operations were pure point group operations)
 out of a pool of  8 trial point group operations.


The overall configuration has the point symmetry C_2v.


 Subroutine INISYM returns: Found  4 space group operations
 (whereof  4 operations are pure point group operations),
 and found     1 'primitive' translations


----------------------------------------------------------------------------------------

                                     Primitive cell                                     

  volume of cell :     157.0000

  direct lattice vectors                    reciprocal lattice vectors
     3.821560147  0.000000000  0.000000000     0.261673233  0.000000000  0.000000000
     0.000000000  3.634671641  0.000000000     0.000000000  0.275128017  0.000000000
     0.000000000  0.000000000 11.303001121     0.000000000  0.000000000  0.088472078

  length of vectors
     3.821560147  3.634671641 11.303001121     0.261673233  0.275128017  0.088472078

  position of ions in fractional coordinates (direct lattice)
     0.000000000  0.500000000  0.166649157
     0.000000000  0.500000000  0.499311558
     0.000000000  0.500000000  0.834061176
     0.500000000  0.500000000  0.003261588
     0.500000000  0.500000000  0.329995685
     0.500000000  0.500000000  0.666731410
     0.500000000  0.000000000  0.166640190
     0.500000000  0.000000000  0.497751959
     0.500000000  0.000000000  0.835611511
     0.000000000  0.000000000  0.005417160
     0.000000000  0.000000000  0.327878697
     0.000000000  0.000000000  0.666689910

  ion indices of the primitive-cell ions
   primitive index   ion index
                 1           1
                 2           2
                 3           3
                 4           4
                 5           5
                 6           6
                 7           7
                 8           8
                 9           9
                10          10
                11          11
                12          12

----------------------------------------------------------------------------------------

 
 
 KPOINTS: pymatgen with grid density = 8800 / numb

Automatic generation of k-mesh.
 Grid dimensions read from file:
 generate k-points for:   13   13    4

 Generating k-lattice:

  Cartesian coordinates                     Fractional coordinates (reciprocal lattice)
     0.020128710  0.000000000  0.000000000     0.076923077  0.000000000  0.000000000
     0.000000000  0.021163694  0.000000000     0.000000000  0.076923077  0.000000000
     0.000000000  0.000000000  0.022118020     0.000000000  0.000000000  0.250000000

  Length of vectors
     0.020128710  0.021163694  0.022118020

  Shift w.r.t. Gamma in fractional coordinates (k-lattice)
     0.000000000  0.000000000  0.000000000

 TETIRR: Found   2022 inequivalent tetrahedra from     4056
 
 Subroutine IBZKPT returns following result:
 ===========================================
 
 Found    147 irreducible k-points:
 
 Following reciprocal coordinates:
            Coordinates               Weight
  0.000000  0.000000  0.000000      1.000000
  0.076923  0.000000  0.000000      2.000000
  0.153846  0.000000  0.000000      2.000000
  0.230769  0.000000  0.000000      2.000000
  0.307692  0.000000  0.000000      2.000000
  0.384615  0.000000  0.000000      2.000000
  0.461538  0.000000  0.000000      2.000000
  0.000000  0.076923  0.000000      2.000000
  0.076923  0.076923  0.000000      4.000000
  0.153846  0.076923  0.000000      4.000000
  0.230769  0.076923  0.000000      4.000000
  0.307692  0.076923  0.000000      4.000000
  0.384615  0.076923  0.000000      4.000000
  0.461538  0.076923  0.000000      4.000000
  0.000000  0.153846  0.000000      2.000000
  0.076923  0.153846  0.000000      4.000000
  0.153846  0.153846  0.000000      4.000000
  0.230769  0.153846  0.000000      4.000000
  0.307692  0.153846  0.000000      4.000000
  0.384615  0.153846  0.000000      4.000000
  0.461538  0.153846  0.000000      4.000000
  0.000000  0.230769  0.000000      2.000000
  0.076923  0.230769  0.000000      4.000000
  0.153846  0.230769  0.000000      4.000000
  0.230769  0.230769  0.000000      4.000000
  0.307692  0.230769  0.000000      4.000000
  0.384615  0.230769  0.000000      4.000000
  0.461538  0.230769  0.000000      4.000000
  0.000000  0.307692  0.000000      2.000000
  0.076923  0.307692  0.000000      4.000000
  0.153846  0.307692  0.000000      4.000000
  0.230769  0.307692  0.000000      4.000000
  0.307692  0.307692  0.000000      4.000000
  0.384615  0.307692  0.000000      4.000000
  0.461538  0.307692  0.000000      4.000000
  0.000000  0.384615  0.000000      2.000000
  0.076923  0.384615  0.000000      4.000000
  0.153846  0.384615  0.000000      4.000000
  0.230769  0.384615  0.000000      4.000000
  0.307692  0.384615  0.000000      4.000000
  0.384615  0.384615  0.000000      4.000000
  0.461538  0.384615  0.000000      4.000000
  0.000000  0.461538  0.000000      2.000000
  0.076923  0.461538  0.000000      4.000000
  0.153846  0.461538  0.000000      4.000000
  0.230769  0.461538  0.000000      4.000000
  0.307692  0.461538  0.000000      4.000000
  0.384615  0.461538  0.000000      4.000000
  0.461538  0.461538  0.000000      4.000000
  0.000000  0.000000  0.250000      2.000000
  0.076923  0.000000  0.250000      4.000000
  0.153846  0.000000  0.250000      4.000000
  0.230769  0.000000  0.250000      4.000000
  0.307692  0.000000  0.250000      4.000000
  0.384615  0.000000  0.250000      4.000000
  0.461538  0.000000  0.250000      4.000000
  0.000000  0.076923  0.250000      4.000000
  0.076923  0.076923  0.250000      8.000000
  0.153846  0.076923  0.250000      8.000000
  0.230769  0.076923  0.250000      8.000000
  0.307692  0.076923  0.250000      8.000000
  0.384615  0.076923  0.250000      8.000000
  0.461538  0.076923  0.250000      8.000000
  0.000000  0.153846  0.250000      4.000000
  0.076923  0.153846  0.250000      8.000000
  0.153846  0.153846  0.250000      8.000000
  0.230769  0.153846  0.250000      8.000000
  0.307692  0.153846  0.250000      8.000000
  0.384615  0.153846  0.250000      8.000000
  0.461538  0.153846  0.250000      8.000000
  0.000000  0.230769  0.250000      4.000000
  0.076923  0.230769  0.250000      8.000000
  0.153846  0.230769  0.250000      8.000000
  0.230769  0.230769  0.250000      8.000000
  0.307692  0.230769  0.250000      8.000000
  0.384615  0.230769  0.250000      8.000000
  0.461538  0.230769  0.250000      8.000000
  0.000000  0.307692  0.250000      4.000000
  0.076923  0.307692  0.250000      8.000000
  0.153846  0.307692  0.250000      8.000000
  0.230769  0.307692  0.250000      8.000000
  0.307692  0.307692  0.250000      8.000000
  0.384615  0.307692  0.250000      8.000000
  0.461538  0.307692  0.250000      8.000000
  0.000000  0.384615  0.250000      4.000000
  0.076923  0.384615  0.250000      8.000000
  0.153846  0.384615  0.250000      8.000000
  0.230769  0.384615  0.250000      8.000000
  0.307692  0.384615  0.250000      8.000000
  0.384615  0.384615  0.250000      8.000000
  0.461538  0.384615  0.250000      8.000000
  0.000000  0.461538  0.250000      4.000000
  0.076923  0.461538  0.250000      8.000000
  0.153846  0.461538  0.250000      8.000000
  0.230769  0.461538  0.250000      8.000000
  0.307692  0.461538  0.250000      8.000000
  0.384615  0.461538  0.250000      8.000000
  0.461538  0.461538  0.250000      8.000000
  0.000000  0.000000  0.500000      1.000000
  0.076923  0.000000  0.500000      2.000000
  0.153846  0.000000  0.500000      2.000000
  0.230769  0.000000  0.500000      2.000000
  0.307692  0.000000  0.500000      2.000000
  0.384615  0.000000  0.500000      2.000000
  0.461538  0.000000  0.500000      2.000000
  0.000000  0.076923  0.500000      2.000000
  0.076923  0.076923  0.500000      4.000000
  0.153846  0.076923  0.500000      4.000000
  0.230769  0.076923  0.500000      4.000000
  0.307692  0.076923  0.500000      4.000000
  0.384615  0.076923  0.500000      4.000000
  0.461538  0.076923  0.500000      4.000000
  0.000000  0.153846  0.500000      2.000000
  0.076923  0.153846  0.500000      4.000000
  0.153846  0.153846  0.500000      4.000000
  0.230769  0.153846  0.500000      4.000000
  0.307692  0.153846  0.500000      4.000000
  0.384615  0.153846  0.500000      4.000000
  0.461538  0.153846  0.500000      4.000000
  0.000000  0.230769  0.500000      2.000000
  0.076923  0.230769  0.500000      4.000000
  0.153846  0.230769  0.500000      4.000000
  0.230769  0.230769  0.500000      4.000000
  0.307692  0.230769  0.500000      4.000000
  0.384615  0.230769  0.500000      4.000000
  0.461538  0.230769  0.500000      4.000000
  0.000000  0.307692  0.500000      2.000000
  0.076923  0.307692  0.500000      4.000000
  0.153846  0.307692  0.500000      4.000000
  0.230769  0.307692  0.500000      4.000000
  0.307692  0.307692  0.500000      4.000000
  0.384615  0.307692  0.500000      4.000000
  0.461538  0.307692  0.500000      4.000000
  0.000000  0.384615  0.500000      2.000000
  0.076923  0.384615  0.500000      4.000000
  0.153846  0.384615  0.500000      4.000000
  0.230769  0.384615  0.500000      4.000000
  0.307692  0.384615  0.500000      4.000000
  0.384615  0.384615  0.500000      4.000000
  0.461538  0.384615  0.500000      4.000000
  0.000000  0.461538  0.500000      2.000000
  0.076923  0.461538  0.500000      4.000000
  0.153846  0.461538  0.500000      4.000000
  0.230769  0.461538  0.500000      4.000000
  0.307692  0.461538  0.500000      4.000000
  0.384615  0.461538  0.500000      4.000000
  0.461538  0.461538  0.500000      4.000000
 
 Following cartesian coordinates:
            Coordinates               Weight
  0.000000  0.000000  0.000000      1.000000
  0.020129  0.000000  0.000000      2.000000
  0.040257  0.000000  0.000000      2.000000
  0.060386  0.000000  0.000000      2.000000
  0.080515  0.000000  0.000000      2.000000
  0.100644  0.000000  0.000000      2.000000
  0.120772  0.000000  0.000000      2.000000
  0.000000  0.021164  0.000000      2.000000
  0.020129  0.021164  0.000000      4.000000
  0.040257  0.021164  0.000000      4.000000
  0.060386  0.021164  0.000000      4.000000
  0.080515  0.021164  0.000000      4.000000
  0.100644  0.021164  0.000000      4.000000
  0.120772  0.021164  0.000000      4.000000
  0.000000  0.042327  0.000000      2.000000
  0.020129  0.042327  0.000000      4.000000
  0.040257  0.042327  0.000000      4.000000
  0.060386  0.042327  0.000000      4.000000
  0.080515  0.042327  0.000000      4.000000
  0.100644  0.042327  0.000000      4.000000
  0.120772  0.042327  0.000000      4.000000
  0.000000  0.063491  0.000000      2.000000
  0.020129  0.063491  0.000000      4.000000
  0.040257  0.063491  0.000000      4.000000
  0.060386  0.063491  0.000000      4.000000
  0.080515  0.063491  0.000000      4.000000
  0.100644  0.063491  0.000000      4.000000
  0.120772  0.063491  0.000000      4.000000
  0.000000  0.084655  0.000000      2.000000
  0.020129  0.084655  0.000000      4.000000
  0.040257  0.084655  0.000000      4.000000
  0.060386  0.084655  0.000000      4.000000
  0.080515  0.084655  0.000000      4.000000
  0.100644  0.084655  0.000000      4.000000
  0.120772  0.084655  0.000000      4.000000
  0.000000  0.105818  0.000000      2.000000
  0.020129  0.105818  0.000000      4.000000
  0.040257  0.105818  0.000000      4.000000
  0.060386  0.105818  0.000000      4.000000
  0.080515  0.105818  0.000000      4.000000
  0.100644  0.105818  0.000000      4.000000
  0.120772  0.105818  0.000000      4.000000
  0.000000  0.126982  0.000000      2.000000
  0.020129  0.126982  0.000000      4.000000
  0.040257  0.126982  0.000000      4.000000
  0.060386  0.126982  0.000000      4.000000
  0.080515  0.126982  0.000000      4.000000
  0.100644  0.126982  0.000000      4.000000
  0.120772  0.126982  0.000000      4.000000
  0.000000  0.000000  0.022118      2.000000
  0.020129  0.000000  0.022118      4.000000
  0.040257  0.000000  0.022118      4.000000
  0.060386  0.000000  0.022118      4.000000
  0.080515  0.000000  0.022118      4.000000
  0.100644  0.000000  0.022118      4.000000
  0.120772  0.000000  0.022118      4.000000
  0.000000  0.021164  0.022118      4.000000
  0.020129  0.021164  0.022118      8.000000
  0.040257  0.021164  0.022118      8.000000
  0.060386  0.021164  0.022118      8.000000
  0.080515  0.021164  0.022118      8.000000
  0.100644  0.021164  0.022118      8.000000
  0.120772  0.021164  0.022118      8.000000
  0.000000  0.042327  0.022118      4.000000
  0.020129  0.042327  0.022118      8.000000
  0.040257  0.042327  0.022118      8.000000
  0.060386  0.042327  0.022118      8.000000
  0.080515  0.042327  0.022118      8.000000
  0.100644  0.042327  0.022118      8.000000
  0.120772  0.042327  0.022118      8.000000
  0.000000  0.063491  0.022118      4.000000
  0.020129  0.063491  0.022118      8.000000
  0.040257  0.063491  0.022118      8.000000
  0.060386  0.063491  0.022118      8.000000
  0.080515  0.063491  0.022118      8.000000
  0.100644  0.063491  0.022118      8.000000
  0.120772  0.063491  0.022118      8.000000
  0.000000  0.084655  0.022118      4.000000
  0.020129  0.084655  0.022118      8.000000
  0.040257  0.084655  0.022118      8.000000
  0.060386  0.084655  0.022118      8.000000
  0.080515  0.084655  0.022118      8.000000
  0.100644  0.084655  0.022118      8.000000
  0.120772  0.084655  0.022118      8.000000
  0.000000  0.105818  0.022118      4.000000
  0.020129  0.105818  0.022118      8.000000
  0.040257  0.105818  0.022118      8.000000
  0.060386  0.105818  0.022118      8.000000
  0.080515  0.105818  0.022118      8.000000
  0.100644  0.105818  0.022118      8.000000
  0.120772  0.105818  0.022118      8.000000
  0.000000  0.126982  0.022118      4.000000
  0.020129  0.126982  0.022118      8.000000
  0.040257  0.126982  0.022118      8.000000
  0.060386  0.126982  0.022118      8.000000
  0.080515  0.126982  0.022118      8.000000
  0.100644  0.126982  0.022118      8.000000
  0.120772  0.126982  0.022118      8.000000
  0.000000  0.000000  0.044236      1.000000
  0.020129  0.000000  0.044236      2.000000
  0.040257  0.000000  0.044236      2.000000
  0.060386  0.000000  0.044236      2.000000
  0.080515  0.000000  0.044236      2.000000
  0.100644  0.000000  0.044236      2.000000
  0.120772  0.000000  0.044236      2.000000
  0.000000  0.021164  0.044236      2.000000
  0.020129  0.021164  0.044236      4.000000
  0.040257  0.021164  0.044236      4.000000
  0.060386  0.021164  0.044236      4.000000
  0.080515  0.021164  0.044236      4.000000
  0.100644  0.021164  0.044236      4.000000
  0.120772  0.021164  0.044236      4.000000
  0.000000  0.042327  0.044236      2.000000
  0.020129  0.042327  0.044236      4.000000
  0.040257  0.042327  0.044236      4.000000
  0.060386  0.042327  0.044236      4.000000
  0.080515  0.042327  0.044236      4.000000
  0.100644  0.042327  0.044236      4.000000
  0.120772  0.042327  0.044236      4.000000
  0.000000  0.063491  0.044236      2.000000
  0.020129  0.063491  0.044236      4.000000
  0.040257  0.063491  0.044236      4.000000
  0.060386  0.063491  0.044236      4.000000
  0.080515  0.063491  0.044236      4.000000
  0.100644  0.063491  0.044236      4.000000
  0.120772  0.063491  0.044236      4.000000
  0.000000  0.084655  0.044236      2.000000
  0.020129  0.084655  0.044236      4.000000
  0.040257  0.084655  0.044236      4.000000
  0.060386  0.084655  0.044236      4.000000
  0.080515  0.084655  0.044236      4.000000
  0.100644  0.084655  0.044236      4.000000
  0.120772  0.084655  0.044236      4.000000
  0.000000  0.105818  0.044236      2.000000
  0.020129  0.105818  0.044236      4.000000
  0.040257  0.105818  0.044236      4.000000
  0.060386  0.105818  0.044236      4.000000
  0.080515  0.105818  0.044236      4.000000
  0.100644  0.105818  0.044236      4.000000
  0.120772  0.105818  0.044236      4.000000
  0.000000  0.126982  0.044236      2.000000
  0.020129  0.126982  0.044236      4.000000
  0.040257  0.126982  0.044236      4.000000
  0.060386  0.126982  0.044236      4.000000
  0.080515  0.126982  0.044236      4.000000
  0.100644  0.126982  0.044236      4.000000
  0.120772  0.126982  0.044236      4.000000
 


--------------------------------------------------------------------------------------------------------




 Dimension of arrays:
   k-points           NKPTS =    147   k-points in BZ     NKDIM =    147   number of bands    NBANDS=    128
   number of dos      NEDOS =    301   number of ions     NIONS =     12
   non local maximal  LDIM  =      6   non local SUM 2l+1 LMDIM =     18
   total plane-waves  NPLWV =  65856
   max r-space proj   IRMAX =      1   max aug-charges    IRDMAX=  25602
   dimension x,y,z NGX =    28 NGY =   28 NGZ =   84
   dimension x,y,z NGXF=    56 NGYF=   56 NGZF=  168
   support grid    NGXF=    56 NGYF=   56 NGZF=  168
   ions per type =               9   3
   NGX,Y,Z   is equivalent  to a cutoff of  12.18, 12.81, 12.35 a.u.
   NGXF,Y,Z  is equivalent  to a cutoff of  24.36, 25.61, 24.71 a.u.

 SYSTEM =  unknown system                          
 POSCAR =  Fe9 Pt3                                 

 Startparameter for this run:
   NWRITE =      2    write-flag & timer
   PREC   = accura    normal or accurate (medium, high low for compatibility)
   ISTART =      0    job   : 0-new  1-cont  2-samecut
   ICHARG =      2    charge: 1-file 2-atom 10-const
   ISPIN  =      2    spin polarized calculation?
   LNONCOLLINEAR =      F non collinear calculations
   LSORBIT =      F    spin-orbit coupling
   INIWAV =      1    electr: 0-lowe 1-rand  2-diag
   LASPH  =      F    aspherical Exc in radial PAW
 Electronic Relaxation 1
   ENCUT  =  520.0 eV  38.22 Ry    6.18 a.u.   7.11  6.76 21.02*2*pi/ulx,y,z
   ENINI  =  520.0     initial cutoff
   ENAUG  =  578.3 eV  augmentation charge cutoff
   NELM   =    200;   NELMIN=  2; NELMDL=  0     # of ELM steps 
   EDIFF  = 0.1E-05   stopping-criterion for ELM
   LREAL  =      F    real-space projection
   NLSPLINE    = F    spline interpolate recip. space projectors
   LCOMPAT=      F    compatible to vasp.4.4
   GGA_COMPAT  = T    GGA compatible to vasp.4.4-vasp.4.6
   LMAXPAW     = -100 max onsite density
   LMAXMIX     =    2 max onsite mixed and CHGCAR
   VOSKOWN=      0    Vosko Wilk Nusair interpolation
   ROPT   =    0.00000   0.00000
 Ionic relaxation
   EDIFFG = -.1E-01   stopping-criterion for IOM
   NSW    =      0    number of steps for IOM
   NBLOCK =      1;   KBLOCK =      1    inner block; outer block 
   IBRION =     -1    ionic relax: 0-MD 1-quasi-New 2-CG
   NFREE  =      0    steps in history (QN), initial steepest desc. (CG)
   ISIF   =      4    stress and relaxation
   IWAVPR =     10    prediction:  0-non 1-charg 2-wave 3-comb
   ISYM   =      2    0-nonsym 1-usesym 2-fastsym
   LCORR  =      T    Harris-Foulkes like correction to forces

   POTIM  = 0.5000    time-step for ionic-motion
   TEIN   =    0.0    initial temperature
   TEBEG  =    0.0;   TEEND  =   0.0 temperature during run
   SMASS  =  -3.00    Nose mass-parameter (am)
   estimated Nose-frequenzy (Omega)   =  0.10E-29 period in steps = 0.13E+47 mass=  -0.334E-27a.u.
   SCALEE = 1.0000    scale energy and forces
   NPACO  =    256;   APACO  = 10.0  distance and # of slots for P.C.
   PSTRESS=    0.0 pullay stress

  Mass of Ions in am
   POMASS =  55.85195.08
  Ionic Valenz
   ZVAL   =  14.00 10.00
  Atomic Wigner-Seitz radii
   RWIGS  =  -1.00 -1.00
  virtual crystal weights 
   VCA    =   1.00  1.00
   NELECT =     156.0000    total number of electrons
   NUPDOWN=      -1.0000    fix difference up-down

 DOS related values:
   EMIN   =  10.00;   EMAX   =-10.00  energy-range for DOS
   EFERMI =   0.00;   METHOD = LEGACY      
   ISMEAR =    -5;   SIGMA  =   0.20  broadening in eV -4-tet -1-fermi 0-gaus

 Electronic relaxation 2 (details)
   IALGO  =     38    algorithm
   LDIAG  =      T    sub-space diagonalisation (order eigenvalues)
   LSUBROT=      F    optimize rotation matrix (better conditioning)
   TURBO    =      0    0=normal 1=particle mesh
   IRESTART =      0    0=no restart 2=restart with 2 vectors
   NREBOOT  =      0    no. of reboots
   NMIN     =      0    reboot dimension
   EREF     =   0.00    reference energy to select bands
   IMIX   =      4    mixing-type and parameters
     AMIX     =   0.40;   BMIX     =  1.00
     AMIX_MAG =   1.60;   BMIX_MAG =  1.00
     AMIN     =   0.10
     WC   =   100.;   INIMIX=   1;  MIXPRE=   1;  MAXMIX= -45

 Intra band minimization:
   WEIMIN = 0.0000     energy-eigenvalue tresh-hold
   EBREAK =  0.20E-08  absolut break condition
   DEPER  =   0.30     relativ break condition  

   TIME   =   0.40     timestep for ELM

  volume/ion in A,a.u.               =      13.08        88.29
  Fermi-wavevector in a.u.,A,eV,Ry     =   1.633615  3.087085 36.309857  2.668699
  Thomas-Fermi vector in A             =   2.725391
 
 Write flags
   LWAVE        =      F    write WAVECAR
   LDOWNSAMPLE  =      F    k-point downsampling of WAVECAR
   LCHARG       =      T    write CHGCAR
   LVTOT        =      F    write LOCPOT, total local potential
   LVHAR        =      F    write LOCPOT, Hartree potential only
   WRT_POTENTIAL= false  ! write potential to hdf5 file
   LELF         =      F    write electronic localiz. function (ELF)
   LORBIT       =     11    0 simple, 1 ext, 2 COOP (PROOUT), +10 PAW based schemes


 Dipole corrections
   LMONO      =      F    monopole corrections only (constant potential shift)
   LDIPOL     =      F    correct potential (dipole corrections)
   IDIPOL     =      0    1-x, 2-y, 3-z, 4-all directions 
   EPSILON    =  1.0000000 bulk dielectric constant
   LVACPOTAV  =      F  vacuum potentials using an averaging scheme for the charge density
   VACPOTFLAT =  0.1000000 required flatness to determine vacuum potential
 Exchange correlation treatment:
   GGA     = PE    functional components
   XC_C    = 1    coefficients multiplying the functional components
   LIBXC   =     F    Libxc                    
   VOSKOWN =     0    Vosko Wilk Nusair interpolation
   LHFCALC =     F    Hartree Fock is set to
   LHFONE  =     F    Hartree Fock one center treatment
   AEXX    =    0.0000 exact exchange contribution

 Parameters of functionals:
   PE:
     No parameter
 
 Van der Waals corrections
   IVDW    =     0    specifies the selected vdW correction

 Linear response parameters
   LEPSILON=     F    determine dielectric tensor
   LRPA    =     F    only Hartree local field effects (RPA)
   LNABLA  =     F    use nabla operator in PAW spheres
   LVEL    =     F    velocity operator in full k-point grid
   CSHIFT  =0.1000    complex shift for real part using Kramers Kronig
   OMEGAMAX=  -1.0    maximum frequency
   DEG_THRESHOLD= 0.2000000E-02 threshold for treating states as degnerate
   RTIME   =   -0.100 relaxation time in fs
  (WPLASMAI=    0.000 imaginary part of plasma frequency in eV, 0.658/RTIME)
   DFIELD  = 0.0000000 0.0000000 0.0000000 field for delta impulse in time
 
  Optional k-point grid parameters
   LKPOINTS_OPT  =     F    use optional k-point grid
   KPOINTS_OPT_MODE=     1    mode for optional k-point grid
 
 Orbital magnetization related:
   ORBITALMAG=     F  switch on orbital magnetization
   LCHIMAG   =     F  perturbation theory with respect to B field
   DQ        =  0.001000  dq finite difference perturbation B field
   LLRAUG    =     F  two centre corrections for induced B field
   LBONE     =     F  B-component reconstruction in AE one-centre
   LVGVCALC  =     T  calculate vGv susceptibility
   LVGVAPPL  =     F  apply vGv susceptibility instead of pGv for G=0

 Random number generation:
   RANDOM_GENERATOR = DEFAULT
   PCG_SEED         = not used


--------------------------------------------------------------------------------------------------------


 Static calculation
 charge density and potential will be updated during run
 spin polarized calculation
 Variant of blocked Davidson
 Davidson routine will perform the subspace rotation
 perform sub-space diagonalisation
    after iterative eigenvector-optimisation
 modified Broyden-mixing scheme, WC =      100.0
 initial mixing is a Kerker type mixing with AMIX =  0.4000 and BMIX =      1.0000
 Hartree-type preconditioning will be used
 using additional bands           50
 reciprocal scheme for non local part
 use partial core corrections
 calculate Harris-corrections to forces 
   (improved forces if not selfconsistent)
 use gradient corrections 
 use of overlap-Matrix (Vanderbilt PP)
 Fermi weights with tetrahedron method with Bloechl corrections


--------------------------------------------------------------------------------------------------------


  energy-cutoff  :      520.00
  volume of cell :      157.00
      direct lattice vectors                 reciprocal lattice vectors
     3.821560147  0.000000000  0.000000000     0.261673233  0.000000000  0.000000000
     0.000000000  3.634671641  0.000000000     0.000000000  0.275128017  0.000000000
     0.000000000  0.000000000 11.303001121     0.000000000  0.000000000  0.088472078

  length of vectors
     3.821560147  3.634671641 11.303001121     0.261673233  0.275128017  0.088472078


 
 k-points in units of 2pi/SCALE and weight: pymatgen with grid density = 8800 / numb
   0.00000000  0.00000000  0.00000000       0.001
   0.02012871  0.00000000  0.00000000       0.003
   0.04025742  0.00000000  0.00000000       0.003
   0.06038613  0.00000000  0.00000000       0.003
   0.08051484  0.00000000  0.00000000       0.003
   0.10064355  0.00000000  0.00000000       0.003
   0.12077226  0.00000000  0.00000000       0.003
   0.00000000  0.02116369  0.00000000       0.003
   0.02012871  0.02116369  0.00000000       0.006
   0.04025742  0.02116369  0.00000000       0.006
   0.06038613  0.02116369  0.00000000       0.006
   0.08051484  0.02116369  0.00000000       0.006
   0.10064355  0.02116369  0.00000000       0.006
   0.12077226  0.02116369  0.00000000       0.006
   0.00000000  0.04232739  0.00000000       0.003
   0.02012871  0.04232739  0.00000000       0.006
   0.04025742  0.04232739  0.00000000       0.006
   0.06038613  0.04232739  0.00000000       0.006
   0.08051484  0.04232739  0.00000000       0.006
   0.10064355  0.04232739  0.00000000       0.006
   0.12077226  0.04232739  0.00000000       0.006
   0.00000000  0.06349108  0.00000000       0.003
   0.02012871  0.06349108  0.00000000       0.006
   0.04025742  0.06349108  0.00000000       0.006
   0.06038613  0.06349108  0.00000000       0.006
   0.08051484  0.06349108  0.00000000       0.006
   0.10064355  0.06349108  0.00000000       0.006
   0.12077226  0.06349108  0.00000000       0.006
   0.00000000  0.08465477  0.00000000       0.003
   0.02012871  0.08465477  0.00000000       0.006
   0.04025742  0.08465477  0.00000000       0.006
   0.06038613  0.08465477  0.00000000       0.006
   0.08051484  0.08465477  0.00000000       0.006
   0.10064355  0.08465477  0.00000000       0.006
   0.12077226  0.08465477  0.00000000       0.006
   0.00000000  0.10581847  0.00000000       0.003
   0.02012871  0.10581847  0.00000000       0.006
   0.04025742  0.10581847  0.00000000       0.006
   0.06038613  0.10581847  0.00000000       0.006
   0.08051484  0.10581847  0.00000000       0.006
   0.10064355  0.10581847  0.00000000       0.006
   0.12077226  0.10581847  0.00000000       0.006
   0.00000000  0.12698216  0.00000000       0.003
   0.02012871  0.12698216  0.00000000       0.006
   0.04025742  0.12698216  0.00000000       0.006
   0.06038613  0.12698216  0.00000000       0.006
   0.08051484  0.12698216  0.00000000       0.006
   0.10064355  0.12698216  0.00000000       0.006
   0.12077226  0.12698216  0.00000000       0.006
   0.00000000  0.00000000  0.02211802       0.003
   0.02012871  0.00000000  0.02211802       0.006
   0.04025742  0.00000000  0.02211802       0.006
   0.06038613  0.00000000  0.02211802       0.006
   0.08051484  0.00000000  0.02211802       0.006
   0.10064355  0.00000000  0.02211802       0.006
   0.12077226  0.00000000  0.02211802       0.006
   0.00000000  0.02116369  0.02211802       0.006
   0.02012871  0.02116369  0.02211802       0.012
   0.04025742  0.02116369  0.02211802       0.012
   0.06038613  0.02116369  0.02211802       0.012
   0.08051484  0.02116369  0.02211802       0.012
   0.10064355  0.02116369  0.02211802       0.012
   0.12077226  0.02116369  0.02211802       0.012
   0.00000000  0.04232739  0.02211802       0.006
   0.02012871  0.04232739  0.02211802       0.012
   0.04025742  0.04232739  0.02211802       0.012
   0.06038613  0.04232739  0.02211802       0.012
   0.08051484  0.04232739  0.02211802       0.012
   0.10064355  0.04232739  0.02211802       0.012
   0.12077226  0.04232739  0.02211802       0.012
   0.00000000  0.06349108  0.02211802       0.006
   0.02012871  0.06349108  0.02211802       0.012
   0.04025742  0.06349108  0.02211802       0.012
   0.06038613  0.06349108  0.02211802       0.012
   0.08051484  0.06349108  0.02211802       0.012
   0.10064355  0.06349108  0.02211802       0.012
   0.12077226  0.06349108  0.02211802       0.012
   0.00000000  0.08465477  0.02211802       0.006
   0.02012871  0.08465477  0.02211802       0.012
   0.04025742  0.08465477  0.02211802       0.012
   0.06038613  0.08465477  0.02211802       0.012
   0.08051484  0.08465477  0.02211802       0.012
   0.10064355  0.08465477  0.02211802       0.012
   0.12077226  0.08465477  0.02211802       0.012
   0.00000000  0.10581847  0.02211802       0.006
   0.02012871  0.10581847  0.02211802       0.012
   0.04025742  0.10581847  0.02211802       0.012
   0.06038613  0.10581847  0.02211802       0.012
   0.08051484  0.10581847  0.02211802       0.012
   0.10064355  0.10581847  0.02211802       0.012
   0.12077226  0.10581847  0.02211802       0.012
   0.00000000  0.12698216  0.02211802       0.006
   0.02012871  0.12698216  0.02211802       0.012
   0.04025742  0.12698216  0.02211802       0.012
   0.06038613  0.12698216  0.02211802       0.012
   0.08051484  0.12698216  0.02211802       0.012
   0.10064355  0.12698216  0.02211802       0.012
   0.12077226  0.12698216  0.02211802       0.012
   0.00000000  0.00000000  0.04423604       0.001
   0.02012871  0.00000000  0.04423604       0.003
   0.04025742  0.00000000  0.04423604       0.003
   0.06038613  0.00000000  0.04423604       0.003
   0.08051484  0.00000000  0.04423604       0.003
   0.10064355  0.00000000  0.04423604       0.003
   0.12077226  0.00000000  0.04423604       0.003
   0.00000000  0.02116369  0.04423604       0.003
   0.02012871  0.02116369  0.04423604       0.006
   0.04025742  0.02116369  0.04423604       0.006
   0.06038613  0.02116369  0.04423604       0.006
   0.08051484  0.02116369  0.04423604       0.006
   0.10064355  0.02116369  0.04423604       0.006
   0.12077226  0.02116369  0.04423604       0.006
   0.00000000  0.04232739  0.04423604       0.003
   0.02012871  0.04232739  0.04423604       0.006
   0.04025742  0.04232739  0.04423604       0.006
   0.06038613  0.04232739  0.04423604       0.006
   0.08051484  0.04232739  0.04423604       0.006
   0.10064355  0.04232739  0.04423604       0.006
   0.12077226  0.04232739  0.04423604       0.006
   0.00000000  0.06349108  0.04423604       0.003
   0.02012871  0.06349108  0.04423604       0.006
   0.04025742  0.06349108  0.04423604       0.006
   0.06038613  0.06349108  0.04423604       0.006
   0.08051484  0.06349108  0.04423604       0.006
   0.10064355  0.06349108  0.04423604       0.006
   0.12077226  0.06349108  0.04423604       0.006
   0.00000000  0.08465477  0.04423604       0.003
   0.02012871  0.08465477  0.04423604       0.006
   0.04025742  0.08465477  0.04423604       0.006
   0.06038613  0.08465477  0.04423604       0.006
   0.08051484  0.08465477  0.04423604       0.006
   0.10064355  0.08465477  0.04423604       0.006
   0.12077226  0.08465477  0.04423604       0.006
   0.00000000  0.10581847  0.04423604       0.003
   0.02012871  0.10581847  0.04423604       0.006
   0.04025742  0.10581847  0.04423604       0.006
   0.06038613  0.10581847  0.04423604       0.006
   0.08051484  0.10581847  0.04423604       0.006
   0.10064355  0.10581847  0.04423604       0.006
   0.12077226  0.10581847  0.04423604       0.006
   0.00000000  0.12698216  0.04423604       0.003
   0.02012871  0.12698216  0.04423604       0.006
   0.04025742  0.12698216  0.04423604       0.006
   0.06038613  0.12698216  0.04423604       0.006
   0.08051484  0.12698216  0.04423604       0.006
   0.10064355  0.12698216  0.04423604       0.006
   0.12077226  0.12698216  0.04423604       0.006
 
 k-points in reciprocal lattice and weights: pymatgen with grid density = 8800 / numb
   0.00000000  0.00000000  0.00000000       0.001
   0.07692308  0.00000000  0.00000000       0.003
   0.15384615  0.00000000  0.00000000       0.003
   0.23076923  0.00000000  0.00000000       0.003
   0.30769231  0.00000000  0.00000000       0.003
   0.38461538  0.00000000  0.00000000       0.003
   0.46153846  0.00000000  0.00000000       0.003
   0.00000000  0.07692308  0.00000000       0.003
   0.07692308  0.07692308  0.00000000       0.006
   0.15384615  0.07692308  0.00000000       0.006
   0.23076923  0.07692308  0.00000000       0.006
   0.30769231  0.07692308  0.00000000       0.006
   0.38461538  0.07692308  0.00000000       0.006
   0.46153846  0.07692308  0.00000000       0.006
   0.00000000  0.15384615  0.00000000       0.003
   0.07692308  0.15384615  0.00000000       0.006
   0.15384615  0.15384615  0.00000000       0.006
   0.23076923  0.15384615  0.00000000       0.006
   0.30769231  0.15384615  0.00000000       0.006
   0.38461538  0.15384615  0.00000000       0.006
   0.46153846  0.15384615  0.00000000       0.006
   0.00000000  0.23076923  0.00000000       0.003
   0.07692308  0.23076923  0.00000000       0.006
   0.15384615  0.23076923  0.00000000       0.006
   0.23076923  0.23076923  0.00000000       0.006
   0.30769231  0.23076923  0.00000000       0.006
   0.38461538  0.23076923  0.00000000       0.006
   0.46153846  0.23076923  0.00000000       0.006
   0.00000000  0.30769231  0.00000000       0.003
   0.07692308  0.30769231  0.00000000       0.006
   0.15384615  0.30769231  0.00000000       0.006
   0.23076923  0.30769231  0.00000000       0.006
   0.30769231  0.30769231  0.00000000       0.006
   0.38461538  0.30769231  0.00000000       0.006
   0.46153846  0.30769231  0.00000000       0.006
   0.00000000  0.38461538  0.00000000       0.003
   0.07692308  0.38461538  0.00000000       0.006
   0.15384615  0.38461538  0.00000000       0.006
   0.23076923  0.38461538  0.00000000       0.006
   0.30769231  0.38461538  0.00000000       0.006
   0.38461538  0.38461538  0.00000000       0.006
   0.46153846  0.38461538  0.00000000       0.006
   0.00000000  0.46153846  0.00000000       0.003
   0.07692308  0.46153846  0.00000000       0.006
   0.15384615  0.46153846  0.00000000       0.006
   0.23076923  0.46153846  0.00000000       0.006
   0.30769231  0.46153846  0.00000000       0.006
   0.38461538  0.46153846  0.00000000       0.006
   0.46153846  0.46153846  0.00000000       0.006
   0.00000000  0.00000000  0.25000000       0.003
   0.07692308  0.00000000  0.25000000       0.006
   0.15384615  0.00000000  0.25000000       0.006
   0.23076923  0.00000000  0.25000000       0.006
   0.30769231  0.00000000  0.25000000       0.006
   0.38461538  0.00000000  0.25000000       0.006
   0.46153846  0.00000000  0.25000000       0.006
   0.00000000  0.07692308  0.25000000       0.006
   0.07692308  0.07692308  0.25000000       0.012
   0.15384615  0.07692308  0.25000000       0.012
   0.23076923  0.07692308  0.25000000       0.012
   0.30769231  0.07692308  0.25000000       0.012
   0.38461538  0.07692308  0.25000000       0.012
   0.46153846  0.07692308  0.25000000       0.012
   0.00000000  0.15384615  0.25000000       0.006
   0.07692308  0.15384615  0.25000000       0.012
   0.15384615  0.15384615  0.25000000       0.012
   0.23076923  0.15384615  0.25000000       0.012
   0.30769231  0.15384615  0.25000000       0.012
   0.38461538  0.15384615  0.25000000       0.012
   0.46153846  0.15384615  0.25000000       0.012
   0.00000000  0.23076923  0.25000000       0.006
   0.07692308  0.23076923  0.25000000       0.012
   0.15384615  0.23076923  0.25000000       0.012
   0.23076923  0.23076923  0.25000000       0.012
   0.30769231  0.23076923  0.25000000       0.012
   0.38461538  0.23076923  0.25000000       0.012
   0.46153846  0.23076923  0.25000000       0.012
   0.00000000  0.30769231  0.25000000       0.006
   0.07692308  0.30769231  0.25000000       0.012
   0.15384615  0.30769231  0.25000000       0.012
   0.23076923  0.30769231  0.25000000       0.012
   0.30769231  0.30769231  0.25000000       0.012
   0.38461538  0.30769231  0.25000000       0.012
   0.46153846  0.30769231  0.25000000       0.012
   0.00000000  0.38461538  0.25000000       0.006
   0.07692308  0.38461538  0.25000000       0.012
   0.15384615  0.38461538  0.25000000       0.012
   0.23076923  0.38461538  0.25000000       0.012
   0.30769231  0.38461538  0.25000000       0.012
   0.38461538  0.38461538  0.25000000       0.012
   0.46153846  0.38461538  0.25000000       0.012
   0.00000000  0.46153846  0.25000000       0.006
   0.07692308  0.46153846  0.25000000       0.012
   0.15384615  0.46153846  0.25000000       0.012
   0.23076923  0.46153846  0.25000000       0.012
   0.30769231  0.46153846  0.25000000       0.012
   0.38461538  0.46153846  0.25000000       0.012
   0.46153846  0.46153846  0.25000000       0.012
   0.00000000  0.00000000  0.50000000       0.001
   0.07692308  0.00000000  0.50000000       0.003
   0.15384615  0.00000000  0.50000000       0.003
   0.23076923  0.00000000  0.50000000       0.003
   0.30769231  0.00000000  0.50000000       0.003
   0.38461538  0.00000000  0.50000000       0.003
   0.46153846  0.00000000  0.50000000       0.003
   0.00000000  0.07692308  0.50000000       0.003
   0.07692308  0.07692308  0.50000000       0.006
   0.15384615  0.07692308  0.50000000       0.006
   0.23076923  0.07692308  0.50000000       0.006
   0.30769231  0.07692308  0.50000000       0.006
   0.38461538  0.07692308  0.50000000       0.006
   0.46153846  0.07692308  0.50000000       0.006
   0.00000000  0.15384615  0.50000000       0.003
   0.07692308  0.15384615  0.50000000       0.006
   0.15384615  0.15384615  0.50000000       0.006
   0.23076923  0.15384615  0.50000000       0.006
   0.30769231  0.15384615  0.50000000       0.006
   0.38461538  0.15384615  0.50000000       0.006
   0.46153846  0.15384615  0.50000000       0.006
   0.00000000  0.23076923  0.50000000       0.003
   0.07692308  0.23076923  0.50000000       0.006
   0.15384615  0.23076923  0.50000000       0.006
   0.23076923  0.23076923  0.50000000       0.006
   0.30769231  0.23076923  0.50000000       0.006
   0.38461538  0.23076923  0.50000000       0.006
   0.46153846  0.23076923  0.50000000       0.006
   0.00000000  0.30769231  0.50000000       0.003
   0.07692308  0.30769231  0.50000000       0.006
   0.15384615  0.30769231  0.50000000       0.006
   0.23076923  0.30769231  0.50000000       0.006
   0.30769231  0.30769231  0.50000000       0.006
   0.38461538  0.30769231  0.50000000       0.006
   0.46153846  0.30769231  0.50000000       0.006
   0.00000000  0.38461538  0.50000000       0.003
   0.07692308  0.38461538  0.50000000       0.006
   0.15384615  0.38461538  0.50000000       0.006
   0.23076923  0.38461538  0.50000000       0.006
   0.30769231  0.38461538  0.50000000       0.006
   0.38461538  0.38461538  0.50000000       0.006
   0.46153846  0.38461538  0.50000000       0.006
   0.00000000  0.46153846  0.50000000       0.003
   0.07692308  0.46153846  0.50000000       0.006
   0.15384615  0.46153846  0.50000000       0.006
   0.23076923  0.46153846  0.50000000       0.006
   0.30769231  0.46153846  0.50000000       0.006
   0.38461538  0.46153846  0.50000000       0.006
   0.46153846  0.46153846  0.50000000       0.006
 
 position of ions in fractional coordinates (direct lattice) 
   0.00000000  0.50000000  0.16664916
   0.00000000  0.50000000  0.49931156
   0.00000000  0.50000000  0.83406118
   0.50000000  0.50000000  0.00326159
   0.50000000  0.50000000  0.32999568
   0.50000000  0.50000000  0.66673141
   0.50000000  0.00000000  0.16664019
   0.50000000  0.00000000  0.49775196
   0.50000000  0.00000000  0.83561151
   0.00000000  0.00000000  0.00541716
   0.00000000  0.00000000  0.32787870
   0.00000000  0.00000000  0.66668991
 
 position of ions in cartesian coordinates  (Angst):
   0.00000000  1.81733582  1.88363561
   0.00000000  1.81733582  5.64371910
   0.00000000  1.81733582  9.42739440
   1.91078007  1.81733582  0.03686573
   1.91078007  1.81733582  3.72994160
   1.91078007  1.81733582  7.53606588
   1.91078007  0.00000000  1.88353425
   1.91078007  0.00000000  5.62609095
   1.91078007  0.00000000  9.44491784
   0.00000000  0.00000000  0.06123016
   0.00000000  0.00000000  3.70601328
   0.00000000  0.00000000  7.53559680
 


--------------------------------------------------------------------------------------------------------


 k-point     1 :   0.0000 0.0000 0.0000  plane waves:    4213
 k-point     2 :   0.0769 0.0000 0.0000  plane waves:    4195
 k-point     3 :   0.1538 0.0000 0.0000  plane waves:    4230
 k-point     4 :   0.2308 0.0000 0.0000  plane waves:    4206
 k-point     5 :   0.3077 0.0000 0.0000  plane waves:    4222
 k-point     6 :   0.3846 0.0000 0.0000  plane waves:    4230
 k-point     7 :   0.4615 0.0000 0.0000  plane waves:    4258
 k-point     8 :   0.0000 0.0769 0.0000  plane waves:    4217
 k-point     9 :   0.0769 0.0769 0.0000  plane waves:    4209
 k-point    10 :   0.1538 0.0769 0.0000  plane waves:    4204
 k-point    11 :   0.2308 0.0769 0.0000  plane waves:    4220
 k-point    12 :   0.3077 0.0769 0.0000  plane waves:    4225
 k-point    13 :   0.3846 0.0769 0.0000  plane waves:    4242
 k-point    14 :   0.4615 0.0769 0.0000  plane waves:    4252
 k-point    15 :   0.0000 0.1538 0.0000  plane waves:    4207
 k-point    16 :   0.0769 0.1538 0.0000  plane waves:    4219
 k-point    17 :   0.1538 0.1538 0.0000  plane waves:    4218
 k-point    18 :   0.2308 0.1538 0.0000  plane waves:    4218
 k-point    19 :   0.3077 0.1538 0.0000  plane waves:    4230
 k-point    20 :   0.3846 0.1538 0.0000  plane waves:    4230
 k-point    21 :   0.4615 0.1538 0.0000  plane waves:    4230
 k-point    22 :   0.0000 0.2308 0.0000  plane waves:    4215
 k-point    23 :   0.0769 0.2308 0.0000  plane waves:    4214
 k-point    24 :   0.1538 0.2308 0.0000  plane waves:    4219
 k-point    25 :   0.2308 0.2308 0.0000  plane waves:    4225
 k-point    26 :   0.3077 0.2308 0.0000  plane waves:    4227
 k-point    27 :   0.3846 0.2308 0.0000  plane waves:    4235
 k-point    28 :   0.4615 0.2308 0.0000  plane waves:    4212
 k-point    29 :   0.0000 0.3077 0.0000  plane waves:    4216
 k-point    30 :   0.0769 0.3077 0.0000  plane waves:    4222
 k-point    31 :   0.1538 0.3077 0.0000  plane waves:    4217
 k-point    32 :   0.2308 0.3077 0.0000  plane waves:    4227
 k-point    33 :   0.3077 0.3077 0.0000  plane waves:    4231
 k-point    34 :   0.3846 0.3077 0.0000  plane waves:    4228
 k-point    35 :   0.4615 0.3077 0.0000  plane waves:    4238
 k-point    36 :   0.0000 0.3846 0.0000  plane waves:    4230
 k-point    37 :   0.0769 0.3846 0.0000  plane waves:    4230
 k-point    38 :   0.1538 0.3846 0.0000  plane waves:    4227
 k-point    39 :   0.2308 0.3846 0.0000  plane waves:    4224
 k-point    40 :   0.3077 0.3846 0.0000  plane waves:    4215
 k-point    41 :   0.3846 0.3846 0.0000  plane waves:    4225
 k-point    42 :   0.4615 0.3846 0.0000  plane waves:    4236
 k-point    43 :   0.0000 0.4615 0.0000  plane waves:    4240
 k-point    44 :   0.0769 0.4615 0.0000  plane waves:    4213
 k-point    45 :   0.1538 0.4615 0.0000  plane waves:    4226
 k-point    46 :   0.2308 0.4615 0.0000  plane waves:    4234
 k-point    47 :   0.3077 0.4615 0.0000  plane waves:    4223
 k-point    48 :   0.3846 0.4615 0.0000  plane waves:    4231
 k-point    49 :   0.4615 0.4615 0.0000  plane waves:    4252
 k-point    50 :   0.0000 0.0000 0.2500  plane waves:    4226
 k-point    51 :   0.0769 0.0000 0.2500  plane waves:    4230
 k-point    52 :   0.1538 0.0000 0.2500  plane waves:    4220
 k-point    53 :   0.2308 0.0000 0.2500  plane waves:    4221
 k-point    54 :   0.3077 0.0000 0.2500  plane waves:    4233
 k-point    55 :   0.3846 0.0000 0.2500  plane waves:    4241
 k-point    56 :   0.4615 0.0000 0.2500  plane waves:    4246
 k-point    57 :   0.0000 0.0769 0.2500  plane waves:    4217
 k-point    58 :   0.0769 0.0769 0.2500  plane waves:    4216
 k-point    59 :   0.1538 0.0769 0.2500  plane waves:    4223
 k-point    60 :   0.2308 0.0769 0.2500  plane waves:    4224
 k-point    61 :   0.3077 0.0769 0.2500  plane waves:    4229
 k-point    62 :   0.3846 0.0769 0.2500  plane waves:    4246
 k-point    63 :   0.4615 0.0769 0.2500  plane waves:    4236
 k-point    64 :   0.0000 0.1538 0.2500  plane waves:    4206
 k-point    65 :   0.0769 0.1538 0.2500  plane waves:    4213
 k-point    66 :   0.1538 0.1538 0.2500  plane waves:    4218
 k-point    67 :   0.2308 0.1538 0.2500  plane waves:    4229
 k-point    68 :   0.3077 0.1538 0.2500  plane waves:    4236
 k-point    69 :   0.3846 0.1538 0.2500  plane waves:    4231
 k-point    70 :   0.4615 0.1538 0.2500  plane waves:    4238
 k-point    71 :   0.0000 0.2308 0.2500  plane waves:    4204
 k-point    72 :   0.0769 0.2308 0.2500  plane waves:    4208
 k-point    73 :   0.1538 0.2308 0.2500  plane waves:    4216
 k-point    74 :   0.2308 0.2308 0.2500  plane waves:    4222
 k-point    75 :   0.3077 0.2308 0.2500  plane waves:    4228
 k-point    76 :   0.3846 0.2308 0.2500  plane waves:    4244
 k-point    77 :   0.4615 0.2308 0.2500  plane waves:    4232
 k-point    78 :   0.0000 0.3077 0.2500  plane waves:    4213
 k-point    79 :   0.0769 0.3077 0.2500  plane waves:    4215
 k-point    80 :   0.1538 0.3077 0.2500  plane waves:    4222
 k-point    81 :   0.2308 0.3077 0.2500  plane waves:    4223
 k-point    82 :   0.3077 0.3077 0.2500  plane waves:    4229
 k-point    83 :   0.3846 0.3077 0.2500  plane waves:    4234
 k-point    84 :   0.4615 0.3077 0.2500  plane waves:    4230
 k-point    85 :   0.0000 0.3846 0.2500  plane waves:    4222
 k-point    86 :   0.0769 0.3846 0.2500  plane waves:    4228
 k-point    87 :   0.1538 0.3846 0.2500  plane waves:    4230
 k-point    88 :   0.2308 0.3846 0.2500  plane waves:    4231
 k-point    89 :   0.3077 0.3846 0.2500  plane waves:    4231
 k-point    90 :   0.3846 0.3846 0.2500  plane waves:    4237
 k-point    91 :   0.4615 0.3846 0.2500  plane waves:    4224
 k-point    92 :   0.0000 0.4615 0.2500  plane waves:    4233
 k-point    93 :   0.0769 0.4615 0.2500  plane waves:    4221
 k-point    94 :   0.1538 0.4615 0.2500  plane waves:    4221
 k-point    95 :   0.2308 0.4615 0.2500  plane waves:    4239
 k-point    96 :   0.3077 0.4615 0.2500  plane waves:    4236
 k-point    97 :   0.3846 0.4615 0.2500  plane waves:    4237
 k-point    98 :   0.4615 0.4615 0.2500  plane waves:    4241
 k-point    99 :   0.0000 0.0000 0.5000  plane waves:    4250
 k-point   100 :   0.0769 0.0000 0.5000  plane waves:    4232
 k-point   101 :   0.1538 0.0000 0.5000  plane waves:    4236
 k-point   102 :   0.2308 0.0000 0.5000  plane waves:    4236
 k-point   103 :   0.3077 0.0000 0.5000  plane waves:    4236
 k-point   104 :   0.3846 0.0000 0.5000  plane waves:    4236
 k-point   105 :   0.4615 0.0000 0.5000  plane waves:    4234
 k-point   106 :   0.0000 0.0769 0.5000  plane waves:    4228
 k-point   107 :   0.0769 0.0769 0.5000  plane waves:    4230
 k-point   108 :   0.1538 0.0769 0.5000  plane waves:    4224
 k-point   109 :   0.2308 0.0769 0.5000  plane waves:    4228
 k-point   110 :   0.3077 0.0769 0.5000  plane waves:    4238
 k-point   111 :   0.3846 0.0769 0.5000  plane waves:    4244
 k-point   112 :   0.4615 0.0769 0.5000  plane waves:    4238
 k-point   113 :   0.0000 0.1538 0.5000  plane waves:    4204
 k-point   114 :   0.0769 0.1538 0.5000  plane waves:    4216
 k-point   115 :   0.1538 0.1538 0.5000  plane waves:    4216
 k-point   116 :   0.2308 0.1538 0.5000  plane waves:    4228
 k-point   117 :   0.3077 0.1538 0.5000  plane waves:    4240
 k-point   118 :   0.3846 0.1538 0.5000  plane waves:    4234
 k-point   119 :   0.4615 0.1538 0.5000  plane waves:    4258
 k-point   120 :   0.0000 0.2308 0.5000  plane waves:    4204
 k-point   121 :   0.0769 0.2308 0.5000  plane waves:    4212
 k-point   122 :   0.1538 0.2308 0.5000  plane waves:    4210
 k-point   123 :   0.2308 0.2308 0.5000  plane waves:    4216
 k-point   124 :   0.3077 0.2308 0.5000  plane waves:    4234
 k-point   125 :   0.3846 0.2308 0.5000  plane waves:    4234
 k-point   126 :   0.4615 0.2308 0.5000  plane waves:    4236
 k-point   127 :   0.0000 0.3077 0.5000  plane waves:    4220
 k-point   128 :   0.0769 0.3077 0.5000  plane waves:    4218
 k-point   129 :   0.1538 0.3077 0.5000  plane waves:    4222
 k-point   130 :   0.2308 0.3077 0.5000  plane waves:    4234
 k-point   131 :   0.3077 0.3077 0.5000  plane waves:    4228
 k-point   132 :   0.3846 0.3077 0.5000  plane waves:    4240
 k-point   133 :   0.4615 0.3077 0.5000  plane waves:    4218
 k-point   134 :   0.0000 0.3846 0.5000  plane waves:    4226
 k-point   135 :   0.0769 0.3846 0.5000  plane waves:    4220
 k-point   136 :   0.1538 0.3846 0.5000  plane waves:    4226
 k-point   137 :   0.2308 0.3846 0.5000  plane waves:    4234
 k-point   138 :   0.3077 0.3846 0.5000  plane waves:    4244
 k-point   139 :   0.3846 0.3846 0.5000  plane waves:    4234
 k-point   140 :   0.4615 0.3846 0.5000  plane waves:    4234
 k-point   141 :   0.0000 0.4615 0.5000  plane waves:    4226
 k-point   142 :   0.0769 0.4615 0.5000  plane waves:    4228
 k-point   143 :   0.1538 0.4615 0.5000  plane waves:    4226
 k-point   144 :   0.2308 0.4615 0.5000  plane waves:    4220
 k-point   145 :   0.3077 0.4615 0.5000  plane waves:    4236
 k-point   146 :   0.3846 0.4615 0.5000  plane waves:    4224
 k-point   147 :   0.4615 0.4615 0.5000  plane waves:    4244

 maximum and minimum number of plane-waves per node :      4258     4195

 maximum number of plane-waves:      4258
 maximum index in each direction: 
   IXMAX=    7   IYMAX=    6   IZMAX=   21
   IXMIN=   -7   IYMIN=   -7   IZMIN=  -21


 serial   3D FFT for wavefunctions
 parallel 3D FFT for charge:
    minimum data exchange during FFTs selected (reduces bandwidth)


 total amount of memory used by VASP MPI-rank0   305331. kBytes
=======================================================================

   base      :      30000. kBytes
   nonl-proj :     182360. kBytes
   fftplans  :        888. kBytes
   grid      :       6813. kBytes
   one-center:        373. kBytes
   wavefun   :      84897. kBytes
 
     INWAV:  cpu time      0.0000: real time      0.0000
 Broyden mixing: mesh for mixing (old mesh)
   NGX = 15   NGY = 13   NGZ = 43
  (NGX  = 56   NGY  = 56   NGZ  =168)
  gives a total of   8385 points

 initial charge density was supplied:
 charge density of overlapping atoms calculated
 number of electron     156.0000000 magnetization      19.6100000
 keeping initial charge density in first step


--------------------------------------------------------------------------------------------------------


 Maximum index for augmentation-charges         1046 (set IRDMAX)


--------------------------------------------------------------------------------------------------------


 First call to EWALD:  gamma=   0.329
 Maximum number of real-space cells 4x 4x 2
 Maximum number of reciprocal cells 2x 2x 5

    FEWALD:  cpu time      0.0040: real time      0.0041


--------------------------------------- Ionic step        1  -------------------------------------------




--------------------------------------- Iteration      1(   1)  ---------------------------------------


    POTLOK:  cpu time      0.0253: real time      0.0607
    SETDIJ:  cpu time      0.0089: real time      0.0090
     EDDAV:  cpu time     10.4786: real time     10.5561
 BZINTS: Fermi energy:   23.105846;  156.000000 electrons
         Band energy: 0.512332E+03;  BLOECHL correction:   -0.061083
       DOS:  cpu time      0.2311: real time      0.2335
    --------------------------------------------
      LOOP:  cpu time     10.7439: real time     10.8594

 eigenvalue-minimisations  : 75296
 total energy-change (2. order) : 0.1768565E+04  (-0.8473572E+04)
 number of electron     156.0000000 magnetization      19.6100000
 augmentation part      156.0000000 magnetization      19.6100000

 Free energy of the ion-electron system (eV)
  ---------------------------------------------------
  alpha Z        PSCENC =      1084.01356410
  Ewald energy   TEWEN  =    -18043.11859864
  -Hartree energ DENC   =     -6021.62793954
  -exchange      EXHF   =         0.00000000
  -V(xc)+E(xc)   XCENC  =       656.79676500
  PAW double counting   =     20094.04331022   -20817.97623692
  entropy T*S    EENTRO =         0.00000000
  eigenvalues    EBANDS =       512.33162371
  atomic energy  EATOM  =     24304.10294433
  Solvation  Ediel_sol  =         0.00000000
  ---------------------------------------------------
  free energy    TOTEN  =      1768.56543226 eV

  energy without entropy =     1768.56543226  energy(sigma->0) =     1768.56543226


--------------------------------------------------------------------------------------------------------




--------------------------------------- Iteration      1(   2)  ---------------------------------------


     EDDAV:  cpu time     10.3128: real time     10.3990
 BZINTS: Fermi energy:   12.147721;  156.000000 electrons
         Band energy:-0.125060E+04;  BLOECHL correction:   -0.022183
       DOS:  cpu time      0.2314: real time      0.2336
    --------------------------------------------
      LOOP:  cpu time     10.5442: real time     10.6326

 eigenvalue-minimisations  : 75264
 total energy-change (2. order) :-0.1762927E+04  (-0.1671799E+04)
 number of electron     156.0000000 magnetization      19.6100000
 augmentation part      156.0000000 magnetization      19.6100000

 Free energy of the ion-electron system (eV)
  ---------------------------------------------------
  alpha Z        PSCENC =      1084.01356410
  Ewald energy   TEWEN  =    -18043.11859864
  -Hartree energ DENC   =     -6021.62793954
  -exchange      EXHF   =         0.00000000
  -V(xc)+E(xc)   XCENC  =       656.79676500
  PAW double counting   =     20094.04331022   -20817.97623692
  entropy T*S    EENTRO =         0.00000000
  eigenvalues    EBANDS =     -1250.59555435
  atomic energy  EATOM  =     24304.10294433
  Solvation  Ediel_sol  =         0.00000000
  ---------------------------------------------------
  free energy    TOTEN  =         5.63825420 eV

  energy without entropy =        5.63825420  energy(sigma->0) =        5.63825420


--------------------------------------------------------------------------------------------------------




--------------------------------------- Iteration      1(   3)  ---------------------------------------


     EDDAV:  cpu time     12.4237: real time     12.5202
 BZINTS: Fermi energy:   11.556261;  156.000000 electrons
         Band energy:-0.135955E+04;  BLOECHL correction:   -0.030033
       DOS:  cpu time      0.2303: real time      0.2331
    --------------------------------------------
      LOOP:  cpu time     12.6541: real time     12.7534

 eigenvalue-minimisations  : 88448
 total energy-change (2. order) :-0.1089501E+03  (-0.1074337E+03)
 number of electron     156.0000000 magnetization      19.6100000
 augmentation part      156.0000000 magnetization      19.6100000

 Free energy of the ion-electron system (eV)
  ---------------------------------------------------
  alpha Z        PSCENC =      1084.01356410
  Ewald energy   TEWEN  =    -18043.11859864
  -Hartree energ DENC   =     -6021.62793954
  -exchange      EXHF   =         0.00000000
  -V(xc)+E(xc)   XCENC  =       656.79676500
  PAW double counting   =     20094.04331022   -20817.97623692
  entropy T*S    EENTRO =         0.00000000
  eigenvalues    EBANDS =     -1359.54560459
  atomic energy  EATOM  =     24304.10294433
  Solvation  Ediel_sol  =         0.00000000
  ---------------------------------------------------
  free energy    TOTEN  =      -103.31179604 eV

  energy without entropy =     -103.31179604  energy(sigma->0) =     -103.31179604


--------------------------------------------------------------------------------------------------------




--------------------------------------- Iteration      1(   4)  ---------------------------------------


     EDDAV:  cpu time     10.8875: real time     10.9816
 BZINTS: Fermi energy:   11.551423;  156.000000 electrons
         Band energy:-0.136114E+04;  BLOECHL correction:   -0.030037
       DOS:  cpu time      0.2301: real time      0.2333
    --------------------------------------------
      LOOP:  cpu time     11.1176: real time     11.2148

 eigenvalue-minimisations  : 79872
 total energy-change (2. order) :-0.1591641E+01  (-0.1591288E+01)
 number of electron     156.0000000 magnetization      19.6100000
 augmentation part      156.0000000 magnetization      19.6100000

 Free energy of the ion-electron system (eV)
  ---------------------------------------------------
  alpha Z        PSCENC =      1084.01356410
  Ewald energy   TEWEN  =    -18043.11859864
  -Hartree energ DENC   =     -6021.62793954
  -exchange      EXHF   =         0.00000000
  -V(xc)+E(xc)   XCENC  =       656.79676500
  PAW double counting   =     20094.04331022   -20817.97623692
  entropy T*S    EENTRO =         0.00000000
  eigenvalues    EBANDS =     -1361.13724588
  atomic energy  EATOM  =     24304.10294433
  Solvation  Ediel_sol  =         0.00000000
  ---------------------------------------------------
  free energy    TOTEN  =      -104.90343733 eV

  energy without entropy =     -104.90343733  energy(sigma->0) =     -104.90343733


--------------------------------------------------------------------------------------------------------




--------------------------------------- Iteration      1(   5)  ---------------------------------------


     EDDAV:  cpu time     13.1669: real time     13.2710
 BZINTS: Fermi energy:   11.551377;  156.000000 electrons
         Band energy:-0.136117E+04;  BLOECHL correction:   -0.030037
       DOS:  cpu time      0.2323: real time      0.2345
    CHARGE:  cpu time      0.2436: real time      0.2452
    MIXING:  cpu time      0.0072: real time      0.0075
    --------------------------------------------
      LOOP:  cpu time     13.6500: real time     13.7582

 eigenvalue-minimisations  : 93120
 total energy-change (2. order) :-0.3106056E-01  (-0.3105985E-01)
 number of electron     155.9999922 magnetization      18.6289395
 augmentation part       79.2987760 magnetization      13.7779669

 Broyden mixing:
  rms(total) = 0.38567E+01    rms(broyden)= 0.38564E+01
  rms(prec ) = 0.44021E+01
  weight for this iteration     100.00

 Free energy of the ion-electron system (eV)
  ---------------------------------------------------
  alpha Z        PSCENC =      1084.01356410
  Ewald energy   TEWEN  =    -18043.11859864
  -Hartree energ DENC   =     -6021.62793954
  -exchange      EXHF   =         0.00000000
  -V(xc)+E(xc)   XCENC  =       656.79676500
  PAW double counting   =     20094.04331022   -20817.97623692
  entropy T*S    EENTRO =         0.00000000
  eigenvalues    EBANDS =     -1361.16830644
  atomic energy  EATOM  =     24304.10294433
  Solvation  Ediel_sol  =         0.00000000
  ---------------------------------------------------
  free energy    TOTEN  =      -104.93449789 eV

  energy without entropy =     -104.93449789  energy(sigma->0) =     -104.93449789


--------------------------------------------------------------------------------------------------------




--------------------------------------- Iteration      1(   6)  ---------------------------------------


    POTLOK:  cpu time      0.0349: real time      0.0441
    SETDIJ:  cpu time      0.0081: real time      0.0082
     EDDAV:  cpu time     12.8528: real time     12.9447
 BZINTS: Fermi energy:    8.990195;  156.000000 electrons
         Band energy:-0.180105E+04;  BLOECHL correction:   -0.023484
       DOS:  cpu time      0.2386: real time      0.2411
    CHARGE:  cpu time      0.2356: real time      0.2368
    MIXING:  cpu time      0.0050: real time      0.0060
    --------------------------------------------
      LOOP:  cpu time     13.3750: real time     13.4809

 eigenvalue-minimisations  : 91072
[...]
    113      24.0586      0.00000
    114      24.3746      0.00000
    115      24.6999      0.00000
    116      24.8107      0.00000
    117      25.0319      0.00000
    118      25.5803      0.00000
    119      25.9063      0.00000
    120      27.0378      0.00000
    121      27.1256      0.00000
    122      27.2159      0.00000
    123      27.5242      0.00000
    124      27.9348      0.00000
    125      28.1474      0.00000
    126      29.0908      0.00000
    127      29.1642      0.00000
    128      29.5024      0.00000


--------------------------------------------------------------------------------------------------------


 soft charge-density along one line, spin component           1
         0         1         2         3         4         5         6         7         8         9
 total charge-density along one line
 
 soft charge-density along one line, spin component           2
         0         1         2         3         4         5         6         7         8         9
 total charge-density along one line
 
 pseudopotential strength for first ion, spin component:           1
-43.387   0.000  -0.000   6.950  -0.000   0.000   0.000   0.000
  0.000 -43.405   0.000  -0.000   6.957  -0.000   0.000   0.000
 -0.000   0.000 -43.365   0.000  -0.000   6.941   0.000   0.000
  6.950  -0.000   0.000   5.826  -0.000   0.000  -0.000  -0.000
 -0.000   6.957  -0.000  -0.000   5.825  -0.000  -0.000  -0.000
  0.000  -0.000   6.941   0.000  -0.000   5.827  -0.000  -0.000
  0.000   0.000   0.000  -0.000  -0.000  -0.000  -0.831   0.000
  0.000   0.000   0.000  -0.000  -0.000  -0.000   0.000  -0.878
 -0.000   0.000   0.000   0.000  -0.000  -0.000   0.000   0.000
  0.000  -0.000  -0.000  -0.000  -0.000   0.000   0.000  -0.000
 -0.000  -0.000   0.000   0.000   0.000   0.000  -0.000  -0.000
 -0.000   0.000   0.000  -0.000  -0.000  -0.000  -1.365   0.000
  0.000   0.000   0.000  -0.000  -0.000  -0.000   0.000  -1.411
 -0.000   0.000   0.000   0.000  -0.000  -0.000   0.000   0.000
  0.000   0.000  -0.000  -0.000  -0.000   0.000   0.000  -0.000
 -0.000  -0.000   0.000   0.000   0.000   0.000  -0.000  -0.000
 -0.000  -0.000   0.000  -0.000   0.000  -0.000   0.000  -0.000
 -0.000  -0.000  -0.000  -0.000   0.000  -0.000   0.000  -0.000
 pseudopotential strength for first ion, spin component:           2
-45.492   0.000  -0.000   7.835  -0.000   0.000   0.000   0.000
  0.000 -45.529   0.000  -0.000   7.850  -0.000   0.000   0.000
 -0.000   0.000 -45.408   0.000  -0.000   7.801   0.000   0.000
  7.835  -0.000   0.000   5.574  -0.000   0.000   0.000  -0.000
 -0.000   7.850  -0.000  -0.000   5.572  -0.000  -0.000  -0.000
  0.000  -0.000   7.801   0.000  -0.000   5.582  -0.000  -0.000
  0.000   0.000   0.000   0.000  -0.000  -0.000  -2.453   0.000
  0.000   0.000   0.000  -0.000  -0.000  -0.000   0.000  -2.517
 -0.000   0.000   0.000   0.000  -0.000  -0.000   0.000   0.000
  0.000  -0.000  -0.000  -0.000   0.000   0.000   0.000  -0.000
 -0.000  -0.000  -0.000   0.000   0.000   0.000  -0.000  -0.000
 -0.000   0.000   0.000  -0.000  -0.000  -0.000  -2.960   0.000
  0.000   0.000   0.000  -0.000  -0.000  -0.000   0.000  -3.023
 -0.000   0.000   0.000   0.000  -0.000  -0.000   0.000   0.000
  0.000  -0.000  -0.000  -0.000   0.000   0.000   0.000  -0.000
 -0.000  -0.000   0.000   0.000   0.000   0.000  -0.000  -0.000
 -0.000   0.000   0.000  -0.000   0.000   0.000   0.000  -0.000
 -0.000   0.000   0.000  -0.000   0.000   0.000   0.000  -0.000
 total augmentation occupancy for first ion, spin component:           1
  1.991   0.000   0.000  -0.030   0.000   0.000   0.000  -0.000   0.000   0.000   0.000   0.000   0.000   0.000   0.000   0.000
  0.000   1.991   0.000   0.000  -0.030   0.000   0.000   0.000  -0.000   0.000  -0.000   0.000   0.000   0.000   0.000   0.000
  0.000   0.000   1.991   0.000   0.000  -0.030   0.000   0.000   0.000  -0.000   0.000   0.000   0.000   0.000   0.000   0.000
 -0.030   0.000   0.000   0.201   0.000   0.000   0.000  -0.000   0.000   0.000   0.000   0.000   0.000   0.000   0.000   0.000
  0.000  -0.030   0.000   0.000   0.199   0.000   0.000   0.000  -0.000   0.000   0.000   0.000   0.000   0.000   0.000  -0.000
  0.000   0.000  -0.030   0.000   0.000   0.175   0.000   0.000   0.000  -0.000   0.000   0.000   0.000   0.000   0.000   0.000
  0.000   0.000   0.000   0.000   0.000   0.000   2.540   0.000   0.000   0.000   0.000  -1.288   0.000   0.000   0.000   0.000
 -0.000   0.000   0.000  -0.000   0.000   0.000   0.000   2.912   0.000   0.000   0.000   0.000  -1.926   0.000   0.000   0.000
  0.000  -0.000   0.000   0.000  -0.000   0.000   0.000   0.000   3.354   0.000   0.300   0.000   0.000  -1.918   0.000  -0.243
  0.000   0.000  -0.000   0.000   0.000  -0.000   0.000   0.000   0.000   2.697   0.000   0.000   0.000   0.000  -1.481   0.000
  0.000  -0.000   0.000   0.000   0.000   0.000   0.000   0.000   0.300   0.000   3.184   0.000   0.000  -0.240   0.000  -1.839
  0.000   0.000   0.000   0.000   0.000   0.000  -1.288   0.000   0.000   0.000   0.000   1.428   0.000   0.000   0.000   0.000
  0.000   0.000   0.000   0.000   0.000   0.000   0.000  -1.926   0.000   0.000   0.000   0.000   2.278   0.000   0.000   0.000
  0.000   0.000   0.000   0.000   0.000   0.000   0.000   0.000  -1.918   0.000  -0.240   0.000   0.000   1.786   0.000   0.139
  0.000   0.000   0.000   0.000   0.000   0.000   0.000   0.000   0.000  -1.481   0.000   0.000   0.000   0.000   1.560   0.000
  0.000   0.000   0.000   0.000  -0.000   0.000   0.000   0.000  -0.243   0.000  -1.839   0.000   0.000   0.139   0.000   1.771
  0.000   0.000   0.000   0.000   0.000   0.000   0.000   0.000  -0.118   0.000   0.189   0.000   0.000   0.099   0.000  -0.175
  0.000   0.000   0.000   0.000  -0.000   0.000   0.000   0.000   0.011   0.000  -0.010   0.000   0.000  -0.007   0.000   0.009
 total augmentation occupancy for first ion, spin component:           2
  0.002   0.000   0.000   0.007   0.000   0.000   0.000  -0.000   0.000   0.000   0.000   0.000   0.000   0.000   0.000   0.000
  0.000   0.002   0.000   0.000   0.007   0.000   0.000   0.000   0.000   0.000   0.000   0.000   0.000  -0.000   0.000  -0.000
  0.000   0.000   0.002   0.000   0.000   0.007   0.000   0.000   0.000   0.000   0.000   0.000   0.000   0.000  -0.000   0.000
  0.007   0.000   0.000  -0.022   0.000   0.000   0.000   0.000   0.000   0.000   0.000   0.000  -0.000   0.000   0.000   0.000
  0.000   0.007   0.000   0.000  -0.018   0.000   0.000   0.000   0.000   0.000  -0.000   0.000   0.000  -0.000   0.000   0.000
  0.000   0.000   0.007   0.000   0.000  -0.029   0.000   0.000   0.000  -0.000   0.000   0.000   0.000   0.000   0.000   0.000
  0.000   0.000   0.000   0.000   0.000   0.000  -1.633   0.000   0.000   0.000   0.000   0.610   0.000   0.000   0.000   0.000
 -0.000   0.000   0.000   0.000   0.000   0.000   0.000  -1.821   0.000   0.000   0.000   0.000   0.693   0.000   0.000   0.000
  0.000   0.000   0.000   0.000   0.000   0.000   0.000   0.000  -2.505   0.000  -0.272   0.000   0.000   1.093   0.000   0.120
  0.000   0.000   0.000   0.000   0.000  -0.000   0.000   0.000   0.000  -1.859   0.000   0.000   0.000   0.000   0.605   0.000
  0.000   0.000   0.000   0.000  -0.000   0.000   0.000   0.000  -0.272   0.000  -2.477   0.000   0.000   0.123   0.000   1.035
  0.000   0.000   0.000   0.000   0.000   0.000   0.610   0.000   0.000   0.000   0.000  -0.042   0.000   0.000   0.000   0.000
  0.000   0.000   0.000  -0.000   0.000   0.000   0.000   0.693   0.000   0.000   0.000   0.000  -0.035   0.000   0.000   0.000
  0.000  -0.000   0.000   0.000  -0.000   0.000   0.000   0.000   1.093   0.000   0.123   0.000   0.000  -0.363   0.000  -0.068
  0.000   0.000  -0.000   0.000   0.000   0.000   0.000   0.000   0.000   0.605   0.000   0.000   0.000   0.000   0.028   0.000
  0.000  -0.000   0.000   0.000   0.000   0.000   0.000   0.000   0.120   0.000   1.035   0.000   0.000  -0.068   0.000  -0.289
  0.000  -0.000   0.000   0.000  -0.000   0.000   0.000   0.000  -0.017   0.000  -0.022   0.000   0.000   0.012   0.000  -0.003
  0.000   0.000   0.000   0.000  -0.000   0.000   0.000   0.000  -0.006   0.000   0.003   0.000   0.000   0.002   0.000  -0.001


------------------------ aborting loop because EDIFF is reached ----------------------------------------





 total charge

# of ion       s       p       d       tot
------------------------------------------
    1        0.362   6.358   5.985  12.705
    2        0.344   6.317   6.010  12.670
    3        0.344   6.317   6.010  12.671
    4        0.350   6.332   5.997  12.678
    5        0.350   6.332   5.996  12.678
    6        0.343   6.319   6.009  12.671
    7        0.342   6.322   6.113  12.777
    8        0.339   6.309   6.020  12.668
    9        0.339   6.309   6.020  12.669
   10        0.763   0.701   8.007   9.471
   11        0.763   0.701   8.007   9.471
   12        0.752   0.686   8.031   9.469
--------------------------------------------------
tot          5.392  59.001  78.205 142.598



 magnetization (x)

# of ion       s       p       d       tot
------------------------------------------
    1       -0.028  -0.044  -2.462  -2.535
    2        0.005  -0.014   2.790   2.781
    3        0.005  -0.014   2.789   2.780
    4        0.012   0.018   2.602   2.632
    5        0.012   0.018   2.603   2.633
    6       -0.000  -0.016   2.807   2.791
    7       -0.005  -0.005   0.034   0.025
    8        0.002  -0.011   2.714   2.705
    9        0.002  -0.011   2.713   2.704
   10       -0.019  -0.040   0.170   0.111
   11       -0.019  -0.040   0.170   0.111
   12       -0.042  -0.102   0.442   0.297
--------------------------------------------------
tot         -0.075  -0.261  17.372  17.036
 
    CHARGE:  cpu time      0.2365: real time      0.2379
    FORLOC:  cpu time      0.0013: real time      0.0013
    FORNL :  cpu time      1.2777: real time      1.2844
    STRESS:  cpu time      7.7488: real time      7.8150
    FORCOR:  cpu time      0.0207: real time      0.0209
    FORHAR:  cpu time      0.0031: real time      0.0032
    MIXING:  cpu time      0.0242: real time      0.0243
    OFIELD:  cpu time      0.0019: real time      0.0019

  FORCE on cell =-STRESS in cart. coord.  units (eV):
  Direction    XX          YY          ZZ          XY          YZ          ZX
  --------------------------------------------------------------------------------------
  Alpha Z  1084.01356  1084.01356  1084.01356
  Ewald   -6030.75868 -5982.09309 -6030.28997    -0.00000    -0.00000    -0.00000
  Hartree  1882.20182  1914.36067  1875.02134    -0.00000    -0.00000    -0.00000
  E(xc)    -942.78202  -942.86765  -942.78146    -0.00000     0.00000     0.00000
  Local    1089.14893  1007.74314  1096.62202     0.00000    -0.00000    -0.00000
  n-local  -223.85231  -221.44623  -222.61055    13.52811     0.09727     0.11603
  augment  1439.30926  1439.83373  1438.77567     0.00000    -0.00000     0.00000
  Kinetic  1697.50227  1696.54018  1697.35435     5.17433    -0.35325    -0.23687
  Fock        0.00000     0.00000     0.00000     0.00000     0.00000     0.00000
  -------------------------------------------------------------------------------------
  Total      -5.21718    -3.91568    -3.89503     0.00000     0.00000     0.00000
  in kB     -53.24106   -39.95929   -39.74857     0.00000     0.00000     0.00000
  external pressure =      -44.32 kB  Pullay stress =        0.00 kB


 VOLUME and BASIS-vectors are now :
 -----------------------------------------------------------------------------
  energy-cutoff  :      520.00
  volume of cell :      157.00
      direct lattice vectors                 reciprocal lattice vectors
     3.821560147  0.000000000  0.000000000     0.261673233  0.000000000  0.000000000
     0.000000000  3.634671641  0.000000000     0.000000000  0.275128017  0.000000000
     0.000000000  0.000000000 11.303001121     0.000000000  0.000000000  0.088472078

  length of vectors
     3.821560147  3.634671641 11.303001121     0.261673233  0.275128017  0.088472078


 FORCES acting on ions
    electron-ion (+dipol)            ewald-force                    non-local-force                 convergence-correction
 -----------------------------------------------------------------------------------------------
   -.686E-13 0.126E-11 -.666E+00   -.832E-13 -.618E-13 0.666E+00   -.269E-21 0.426E-21 0.476E-05   0.550E-13 0.256E-13 -.267E-03
   -.703E-13 0.199E-11 -.400E+02   -.526E-13 0.131E-13 0.405E+02   -.531E-18 -.514E-18 -.490E+00   0.511E-13 0.436E-14 0.764E-02
   -.639E-13 -.553E-12 0.410E+02   -.264E-13 0.147E-13 -.414E+02   -.599E-18 -.387E-18 0.486E+00   0.508E-13 0.403E-13 -.727E-02
   0.110E-11 -.471E-11 0.959E+02   0.506E-13 0.587E-14 -.965E+02   -.508E-18 -.293E-18 0.691E+00   -.145E-12 0.202E-15 -.203E-01
   0.109E-11 -.466E-11 -.975E+02   0.425E-13 0.688E-14 0.981E+02   -.156E-18 -.332E-18 -.685E+00   -.151E-12 -.137E-13 0.194E-01
   0.109E-11 -.388E-11 0.134E+01   0.147E-13 -.359E-13 -.133E+01   0.248E-21 -.478E-22 -.423E-02   -.150E-12 -.781E-14 0.908E-03
   0.110E-11 -.713E-13 -.682E+00   0.294E-13 0.563E-13 0.683E+00   0.101E-20 -.513E-21 -.433E-05   -.182E-12 0.270E-13 -.182E-03
   0.109E-11 -.313E-12 -.480E+02   -.139E-13 -.154E-13 0.483E+02   -.963E-20 0.107E-18 -.269E+00   -.188E-12 0.157E-13 0.819E-02
   0.112E-11 0.727E-13 0.489E+02   0.454E-13 0.339E-13 -.492E+02   -.337E-21 -.816E-19 0.267E+00   -.174E-12 0.183E-13 -.799E-02
   -.229E-13 0.283E-12 0.784E+02   -.396E-13 -.403E-13 -.785E+02   0.116E-17 0.913E-19 0.196E+00   0.374E-13 0.358E-14 -.137E-01
   -.260E-13 0.202E-12 -.794E+02   0.683E-14 0.395E-15 0.795E+02   -.966E-18 -.142E-19 -.191E+00   0.378E-13 -.289E-14 0.130E-01
   -.241E-13 -.346E-13 0.740E+00   -.457E-14 -.131E-14 -.741E+00   -.243E-20 0.146E-21 -.605E-03   0.369E-13 0.633E-15 0.704E-03
 -----------------------------------------------------------------------------------------------
   0.631E-11 -.104E-10 -.102E-02   -.308E-13 -.235E-13 0.242E-12   -.161E-17 -.142E-17 0.797E-03   -.722E-12 0.111E-12 0.155E-03
 
 
 POSITION                                       TOTAL-FORCE (eV/Angst)
 -----------------------------------------------------------------------------------
      0.00000      1.81734      1.88364        -0.000000     -0.000000     -0.000329
      0.00000      1.81734      5.64372        -0.000000      0.000000     -0.017389
      0.00000      1.81734      9.42739        -0.000000      0.000000      0.015389
      1.91078      1.81734      0.03687        -0.000000      0.000000      0.061906
      1.91078      1.81734      3.72994        -0.000000     -0.000000     -0.060725
      1.91078      1.81734      7.53607         0.000000     -0.000000     -0.001328
      1.91078      0.00000      1.88353         0.000000      0.000000      0.000627
      1.91078      0.00000      5.62609        -0.000000      0.000000      0.032546
      1.91078      0.00000      9.44492         0.000000      0.000000     -0.033749
      0.00000      0.00000      0.06123        -0.000000      0.000000      0.085598
      0.00000      0.00000      3.70601        -0.000000      0.000000     -0.081695
      0.00000      0.00000      7.53560        -0.000000      0.000000     -0.000850
 -----------------------------------------------------------------------------------
    total drift:                                0.000000     -0.000000     -0.000064


--------------------------------------------------------------------------------------------------------



  FREE ENERGIE OF THE ION-ELECTRON SYSTEM (eV)
  ---------------------------------------------------
  free  energy   TOTEN  =       -92.98500145 eV

  energy  without entropy=      -92.98500145  energy(sigma->0) =      -92.98500145
 


--------------------------------------------------------------------------------------------------------


    POTLOK:  cpu time      0.0384: real time      0.0389


--------------------------------------------------------------------------------------------------------


     LOOP+:  cpu time    485.2781: real time    489.9286
 -----------------------------------------------------------------------------
|                                                                             |
|           W    W    AA    RRRRR   N    N  II  N    N   GGGG   !!!           |
|           W    W   A  A   R    R  NN   N  II  NN   N  G    G  !!!           |
|           W    W  A    A  R    R  N N  N  II  N N  N  G       !!!           |
|           W WW W  AAAAAA  RRRRR   N  N N  II  N  N N  G  GGG   !            |
|           WW  WW  A    A  R   R   N   NN  II  N   NN  G    G                |
|           W    W  A    A  R    R  N    N  II  N    N   GGGG   !!!           |
|                                                                             |
|     Tetrahedron method does not include variations of the Fermi             |
|     occupations, so forces and stress will be inaccurate. We suggest        |
|     using a different smearing scheme ISMEAR = 1 or 2 for metals in         |
|     relaxations.                                                            |
|                                                                             |
 -----------------------------------------------------------------------------

    4ORBIT:  cpu time      0.0000: real time      0.0000



 total charge

# of ion       s       p       d       tot
------------------------------------------
    1        0.362   6.358   5.985  12.705
    2        0.344   6.317   6.010  12.670
    3        0.344   6.317   6.010  12.671
    4        0.350   6.332   5.997  12.678
    5        0.350   6.332   5.996  12.678
    6        0.343   6.319   6.009  12.671
    7        0.342   6.322   6.113  12.777
    8        0.339   6.309   6.020  12.668
    9        0.339   6.309   6.020  12.669
   10        0.763   0.701   8.007   9.471
   11        0.763   0.701   8.007   9.471
   12        0.752   0.686   8.031   9.469
--------------------------------------------------
tot          5.392  59.001  78.205 142.598



 magnetization (x)

# of ion       s       p       d       tot
------------------------------------------
    1       -0.028  -0.044  -2.462  -2.535
    2        0.005  -0.014   2.790   2.781
    3        0.005  -0.014   2.789   2.780
    4        0.012   0.018   2.602   2.632
    5        0.012   0.018   2.603   2.633
    6       -0.000  -0.016   2.807   2.791
    7       -0.005  -0.005   0.034   0.025
    8        0.002  -0.011   2.714   2.705
    9        0.002  -0.011   2.713   2.704
   10       -0.019  -0.040   0.170   0.111
   11       -0.019  -0.040   0.170   0.111
   12       -0.042  -0.102   0.442   0.297
--------------------------------------------------
tot         -0.075  -0.261  17.372  17.036
 
 BZINTS: Fermi energy:    9.699728;  156.000000 electrons
         Band energy:-0.164920E+04;  BLOECHL correction:   -0.020091

 total amount of memory used by VASP MPI-rank0   305331. kBytes
=======================================================================

   base      :      30000. kBytes
   nonl-proj :     182360. kBytes
   fftplans  :        888. kBytes
   grid      :       6813. kBytes
   one-center:        373. kBytes
   wavefun   :      84897. kBytes
 
  
  
 General timing and accounting informations for this job:
 ========================================================
  
                  Total CPU time used (sec):      514.889
                            User time (sec):      502.579
                          System time (sec):       12.310
                         Elapsed time (sec):      524.012
  
                   Maximum memory used (kb):     1125116.
                   Average memory used (kb):          N/A
  
                          Minor page faults:       262522
                          Major page faults:          583
                 Voluntary context switches:         9623
