       N       E                     dE             d eps       ncg     rms          rms(c)
DAV:   1     0.176426525047E+04    0.17643E+04   -0.84062E+04 43072   0.183E+03
DAV:   2     0.563379039789E+01   -0.17586E+04   -0.16682E+04 43008   0.484E+02
DAV:   3    -0.103393959588E+03   -0.10903E+03   -0.10767E+03 50720   0.129E+02
DAV:   4    -0.104911412300E+03   -0.15175E+01   -0.15172E+01 45792   0.153E+01
DAV:   5    -0.104938840939E+03   -0.27429E-01   -0.27428E-01 52928   0.200E+00    0.419E+01
DAV:   6    -0.115892243238E+03   -0.10953E+02   -0.22457E+02 53280   0.646E+01    0.679E+01
DAV:   7    -0.111599404695E+03    0.42928E+01   -0.27174E+02 52928   0.622E+01    0.680E+01
DAV:   8    -0.964349777854E+02    0.15164E+02   -0.19184E+02 51904   0.457E+01    0.306E+01
DAV:   9    -0.108311240737E+03   -0.11876E+02   -0.17640E+02 49920   0.467E+01    0.553E+01
DAV:  10    -0.927015294444E+02    0.15610E+02   -0.34891E+01 49472   0.273E+01    0.191E+01
DAV:  11    -0.937950188629E+02   -0.10935E+01   -0.23694E+01 51584   0.182E+01    0.266E+01
DAV:  12    -0.920467412420E+02    0.17483E+01   -0.20537E+01 50624   0.126E+01    0.853E+00
DAV:  13    -0.922187633051E+02   -0.17202E+00   -0.78185E-01 51680   0.301E+00    0.812E+00
DAV:  14    -0.922829929220E+02   -0.64230E-01   -0.84558E-02 51648   0.130E+00    0.757E+00
DAV:  15    -0.925223421911E+02   -0.23935E+00   -0.33319E-01 52576   0.182E+00    0.789E+00
DAV:  16    -0.927840241407E+02   -0.26168E+00   -0.58126E-01 52480   0.264E+00    0.637E+00
DAV:  17    -0.929769399494E+02   -0.19292E+00   -0.10814E+00 51840   0.380E+00    0.348E+00
DAV:  18    -0.930157458865E+02   -0.38806E-01   -0.27172E-01 52832   0.196E+00    0.247E+00
DAV:  19    -0.930127578627E+02    0.29880E-02   -0.79704E-02 54016   0.949E-01    0.159E+00
DAV:  20    -0.930057577974E+02    0.70001E-02   -0.20911E-02 50208   0.578E-01    0.836E-01
DAV:  21    -0.930050987408E+02    0.65906E-03   -0.77505E-03 58976   0.384E-01    0.340E-01
DAV:  22    -0.930058237704E+02   -0.72503E-03   -0.23923E-03 54752   0.235E-01    0.129E-01
DAV:  23    -0.930059596153E+02   -0.13584E-03   -0.56532E-04 52896   0.111E-01    0.100E-01
DAV:  24    -0.930059601302E+02   -0.51491E-06   -0.34812E-04 50048   0.839E-02    0.361E-02
DAV:  25    -0.930059483531E+02    0.11777E-04   -0.35985E-05 54944   0.226E-02    0.212E-02
DAV:  26    -0.930059457549E+02    0.25982E-05   -0.64644E-06 49664   0.151E-02    0.133E-02
DAV:  27    -0.930059500773E+02   -0.43224E-05   -0.29814E-06 32224   0.895E-03    0.987E-03
DAV:  28    -0.930059456376E+02    0.44397E-05   -0.20958E-06 31552   0.764E-03    0.589E-03
DAV:  29    -0.930059457969E+02   -0.15931E-06   -0.11593E-06 34048   0.388E-03
   1 F= -.93005946E+02 E0= -.93005946E+02  d E =0.000000E+00  mag=    12.8589
