 vasp.6.4.3 19Mar24 (build Mar 26 2024 14:05:37) complex                        
  
 executed on             LinuxIFC date 2024.12.17  12:03:18
 running  128 mpi-ranks, on    1 nodes
 distrk:  each k-point on   32 cores,    4 groups
 distr:  one band on NCORE=   1 cores,   32 groups


--------------------------------------------------------------------------------------------------------


 INCAR:
   ALGO = Normal
   EDIFF = 1e-06
   EDIFFG = -0.01
   ENCUT = 520
   GGA = Pe
   IBRION = -1
   ISIF = 4
   ISMEAR = -5
   ISPIN = 2
   KPAR = 4
   LCHARG = True
   LORBIT = 11
   LREAL = False
   LWAVE = False
   MAGMOM = 1*-2.146 2*2.459 2*2.283 1*2.558 1*-2.146 2*2.459 2*0.039 1*0.272
   NELM = 200
   NSW = 0
   PREC = Accurate
   SIGMA = 0.2
   SYMPREC = 9.999999999999999e-05

 POTCAR:    PAW_PBE Fe_pv 02Aug2007               
 POTCAR:    PAW_PBE Pt 04Feb2005                  
 -----------------------------------------------------------------------------
|                                                                             |
|           W    W    AA    RRRRR   N    N  II  N    N   GGGG   !!!           |
|           W    W   A  A   R    R  NN   N  II  NN   N  G    G  !!!           |
|           W    W  A    A  R    R  N N  N  II  N N  N  G       !!!           |
|           W WW W  AAAAAA  RRRRR   N  N N  II  N  N N  G  GGG   !            |
|           WW  WW  A    A  R   R   N   NN  II  N   NN  G    G                |
|           W    W  A    A  R    R  N    N  II  N    N   GGGG   !!!           |
|                                                                             |
|     For optimal performance we recommend to set                             |
|       NCORE = 2 up to number-of-cores-per-socket                            |
|     NCORE specifies how many cores store one orbital (NPAR=cpu/NCORE).      |
|     This setting can greatly improve the performance of VASP for DFT.       |
|     The default, NCORE=1 might be grossly inefficient on modern             |
|     multi-core architectures or massively parallel machines. Do your        |
|     own testing! More info at https://www.vasp.at/wiki/index.php/NCORE      |
|     Unfortunately you need to use the default for GW and RPA                |
|     calculations (for HF NCORE is supported but not extensively tested      |
|     yet).                                                                   |
|                                                                             |
 -----------------------------------------------------------------------------

 POTCAR:    PAW_PBE Fe_pv 02Aug2007               
   SHA256 =  5d22e414b1f82158bf2c7ecb8b97b28fd0923e48cadc1c3bf74d524558f5dd32 Fe_pv/POTCAR          
   COPYR  = (c) Copyright 02Aug2007 Georg Kresse                                                    
   COPYR  = This file is part of the software VASP. Any use, copying, and all other rights are regul
   COPYR  = If you do not have a valid VASP license, you may not use, copy or distribute this file. 
   VRHFIN =Fe:  3pd7s1                                                                              
   LEXCH  = PE                                                                                      
   EATOM  =  2457.4239 eV,  180.6156 Ry                                                             
                                                                                                    
   TITEL  = PAW_PBE Fe_pv 02Aug2007                                                                 
   LULTRA =        F    use ultrasoft PP ?                                                          
   IUNSCR =        1    unscreen: 0-lin 1-nonlin 2-no                                               
   RPACOR =    1.750    partial core radius                                                         
   POMASS =   55.847; ZVAL   =   14.000    mass and valenz                                          
   RCORE  =    2.200    outmost cutoff radius                                                       
   RWIGS  =    2.200; RWIGS  =    1.164    wigner-seitz radius (au A)                               
   ENMAX  =  293.238; ENMIN  =  219.928 eV                                                          
   ICORE  =        3    local potential                                                             
   LCOR   =        T    correct aug charges                                                         
   LPAW   =        T    paw PP                                                                      
   EAUG   =  578.342                                                                                
   DEXC   =    0.000                                                                                
   RMAX   =    2.249    core radius for proj-oper                                                   
   RAUG   =    1.300    factor for augmentation sphere                                              
   RDEP   =    2.296    radius for radial grids                                                     
   RDEPT  =    1.766    core radius for aug-charge                                                  
                                                                                                    
   Atomic configuration                                                                             
    8 entries                                                                                       
     n  l   j            E        occ.                                                              
     1  0  0.50     -6993.8440   2.0000                                                             
     2  0  0.50      -814.6047   2.0000                                                             
     2  1  1.50      -693.3689   6.0000                                                             
     3  0  0.50       -89.4732   2.0000                                                             
     3  1  1.50       -55.6373   6.0000                                                             
     3  2  2.50        -3.8151   7.0000                                                             
     4  0  0.50        -4.2551   1.0000                                                             
     4  3  2.50        -1.3606   0.0000                                                             
   Description                                                                                      
     l       E           TYP  RCUT    TYP  RCUT                                                     
     1    -55.6372668     23  2.000                                                                 
     1     -5.4423304     23  2.000                                                                 
     2     -3.8151096     23  2.200                                                                 
     2     -5.1756922     23  2.200                                                                 
     0     -4.2550951     23  2.200                                                                 
     0     27.2116520     23  2.200                                                                 
     3     -1.3605826     23  2.200                                                                 
  local pseudopotential read in
  partial core-charges read in
  partial kinetic energy density read in
  atomic valenz-charges read in
  non local Contribution for L=           1  read in
    real space projection operators read in
  non local Contribution for L=           1  read in
    real space projection operators read in
  non local Contribution for L=           2  read in
    real space projection operators read in
  non local Contribution for L=           2  read in
    real space projection operators read in
  non local Contribution for L=           0  read in
    real space projection operators read in
  non local Contribution for L=           0  read in
    real space projection operators read in
    PAW grid and wavefunctions read in
 
   number of l-projection  operators is LMAX  =           6
   number of lm-projection operators is LMMAX =          18
 
 POTCAR:    PAW_PBE Pt 04Feb2005                  
   SHA256 =  3ed90460adef76debcff1cfb73ee1349b515b1a3db03439735b44de3a8db7dc8 Pt/POTCAR             
   COPYR  = (c) Copyright 04Feb2005 Georg Kresse                                                    
   COPYR  = This file is part of the software VASP. Any use, copying, and all other rights are regul
   COPYR  = If you do not have a valid VASP license, you may not use, copy or distribute this file. 
   VRHFIN =Pt: s1d9                                                                                 
   LEXCH  = PE                                                                                      
   EATOM  =   729.1176 eV,   53.5886 Ry                                                             
                                                                                                    
   TITEL  = PAW_PBE Pt 04Feb2005                                                                    
   LULTRA =        F    use ultrasoft PP ?                                                          
   IUNSCR =        1    unscreen: 0-lin 1-nonlin 2-no                                               
   RPACOR =    2.330    partial core radius                                                         
   POMASS =  195.080; ZVAL   =   10.000    mass and valenz                                          
   RCORE  =    2.600    outmost cutoff radius                                                       
   RWIGS  =    2.750; RWIGS  =    1.455    wigner-seitz radius (au A)                               
   ENMAX  =  230.283; ENMIN  =  172.712 eV                                                          
   ICORE  =        3    local potential                                                             
   LCOR   =        T    correct aug charges                                                         
   LPAW   =        T    paw PP                                                                      
   EAUG   =  358.966                                                                                
   DEXC   =    0.000                                                                                
   RMAX   =    2.658    core radius for proj-oper                                                   
   RAUG   =    1.300    factor for augmentation sphere                                              
   RDEP   =    2.761    radius for radial grids                                                     
   RDEPT  =    2.203    core radius for aug-charge                                                  
                                                                                                    
   Atomic configuration                                                                             
   16 entries                                                                                       
     n  l   j            E        occ.                                                              
     1  0  0.50    -78401.1885   2.0000                                                             
     2  0  0.50    -13770.7750   2.0000                                                             
     2  1  1.50    -11931.0468   6.0000                                                             
     3  0  0.50     -3234.7234   2.0000                                                             
     3  1  1.50     -2699.2216   6.0000                                                             
     3  2  2.50     -2119.5714  10.0000                                                             
     4  0  0.50      -695.1528   2.0000                                                             
     4  1  1.50      -519.6034   6.0000                                                             
     4  2  2.50      -306.6786  10.0000                                                             
     4  3  3.50       -70.1041  14.0000                                                             
     5  0  0.50      -101.7747   2.0000                                                             
     5  1  1.50       -55.9873   6.0000                                                             
     5  2  2.50        -6.1423   9.0000                                                             
     6  0  0.50        -5.6573   1.0000                                                             
     6  1  1.50        -6.8029   0.0000                                                             
     5  3  2.50        -1.3606   0.0000                                                             
   Description                                                                                      
     l       E           TYP  RCUT    TYP  RCUT                                                     
     2     -6.1423404     23  2.500                                                                 
     2     -7.5029230     23  2.500                                                                 
     0     -5.6573207     23  2.500                                                                 
     0      0.7416693     23  2.500                                                                 
     1     -2.7211652     23  2.600                                                                 
     1     20.4087390     23  2.600                                                                 
     3     -1.3605826     23  2.500                                                                 
  local pseudopotential read in
  partial core-charges read in
  partial kinetic energy density read in
  atomic valenz-charges read in
  non local Contribution for L=           2  read in
    real space projection operators read in
  non local Contribution for L=           2  read in
    real space projection operators read in
  non local Contribution for L=           0  read in
    real space projection operators read in
  non local Contribution for L=           0  read in
    real space projection operators read in
  non local Contribution for L=           1  read in
    real space projection operators read in
  non local Contribution for L=           1  read in
    real space projection operators read in
    PAW grid and wavefunctions read in
 
   number of l-projection  operators is LMAX  =           6
   number of lm-projection operators is LMMAX =          18
 
  PAW_PBE Fe_pv 02Aug2007               :
 energy of atom  1       EATOM=-2457.4239
 kinetic energy error for atom=    0.0062 (will be added to EATOM!!)
  PAW_PBE Pt 04Feb2005                  :
 energy of atom  2       EATOM= -729.1176
 kinetic energy error for atom=    0.0032 (will be added to EATOM!!)
 
 
 POSCAR: Fe9 Pt3
  positions in direct lattice
  velocities in cartesian coordinates


 exchange-correlation table for PE
   RHO(1)=    0.500       N(1)  =     2000
   RHO(2)=  100.500       N(2)  =     4000
 


--------------------------------------------------------------------------------------------------------


 ion  position               nearest neighbor table
   1  0.000  0.500  0.167-  11 2.55  11 2.55  10 2.55  10 2.55   7 2.57   7 2.57   7 2.57   7 2.57
                             4 2.61   4 2.61   5 2.61   5 2.61
   2  0.000  0.500  0.499-   5 2.54   5 2.54   8 2.57   8 2.57   8 2.57   8 2.57   6 2.59   6 2.59
                            12 2.59  12 2.59  11 2.60  11 2.60
   3  0.000  0.500  0.834-   4 2.54   4 2.54   9 2.57   9 2.57   9 2.57   9 2.57  12 2.59  12 2.59
                             6 2.59   6 2.59  10 2.60  10 2.60
   4  0.500  0.500  0.996-   9 2.54   9 2.54   3 2.54   3 2.54  10 2.57  10 2.57  10 2.57  10 2.57
                             1 2.61   1 2.61   7 2.61   7 2.61
   5  0.500  0.500  0.337-   8 2.54   8 2.54   2 2.54   2 2.54  11 2.57  11 2.57  11 2.57  11 2.57
                             1 2.61   1 2.61   7 2.61   7 2.61
   6  0.500  0.500  0.667-  12 2.57  12 2.57  12 2.57  12 2.57   2 2.59   2 2.59   3 2.59   3 2.59
                             8 2.59   8 2.59   9 2.59   9 2.59
   7  0.500  0.000  0.167-  11 2.55  11 2.55  10 2.55  10 2.55   1 2.57   1 2.57   1 2.57   1 2.57
                             4 2.61   4 2.61   5 2.61   5 2.61
   8  0.500  0.000  0.499-   5 2.54   5 2.54   2 2.57   2 2.57   2 2.57   2 2.57   6 2.59   6 2.59
                            12 2.59  12 2.59  11 2.60  11 2.60
   9  0.500  0.000  0.834-   4 2.54   4 2.54   3 2.57   3 2.57   3 2.57   3 2.57  12 2.59  12 2.59
                             6 2.59   6 2.59  10 2.60  10 2.60
  10  0.000  0.000  0.004-   7 2.55   7 2.55   1 2.55   1 2.55   4 2.57   4 2.57   4 2.57   4 2.57
                             9 2.60   9 2.60   3 2.60   3 2.60
  11  0.000  0.000  0.329-   7 2.55   7 2.55   1 2.55   1 2.55   5 2.57   5 2.57   5 2.57   5 2.57
                             8 2.60   8 2.60   2 2.60   2 2.60
  12  0.000  0.000  0.667-   6 2.57   6 2.57   6 2.57   6 2.57   3 2.59   3 2.59   2 2.59   2 2.59
                             9 2.59   9 2.59   8 2.59   8 2.59
 
  LATTYP: Found a simple tetragonal cell.
 ALAT       =     3.6351153418
 C/A-ratio  =     3.0186118968
  
  Lattice vectors:
  
 A1 = (   3.6351153418,   0.0000000000,   0.0000000000)
 A2 = (   0.0000000000,   3.6351667041,   0.0000000000)
 A3 = (   0.0000000000,   0.0000000000,  10.9730024170)


Analysis of symmetry for initial positions (statically):
=====================================================================
 Subroutine PRICEL returns:
 Original cell was already a primitive cell.
 

 Routine SETGRP: Setting up the symmetry group for a 
 simple tetragonal supercell.


 Subroutine GETGRP returns: Found 16 space group operations
 (whereof  8 operations were pure point group operations)
 out of a pool of 16 trial point group operations.


The static configuration has the point symmetry C_4v.
 The point group associated with its full space group is D_4h.


Analysis of symmetry for dynamics (positions and initial velocities):
=====================================================================
 Subroutine PRICEL returns:
 Original cell was already a primitive cell.
 

 Routine SETGRP: Setting up the symmetry group for a 
 simple tetragonal supercell.


 Subroutine GETGRP returns: Found 16 space group operations
 (whereof  8 operations were pure point group operations)
 out of a pool of 16 trial point group operations.


The dynamic configuration has the point symmetry C_4v.
 The point group associated with its full space group is D_4h.


Analysis of structural, dynamic, and magnetic symmetry:
=====================================================================
 Subroutine PRICEL returns:
 Original cell was already a primitive cell.
 

 Routine SETGRP: Setting up the symmetry group for a 
 simple tetragonal supercell.


 Subroutine GETGRP returns: Found 16 space group operations
 (whereof  8 operations were pure point group operations)
 out of a pool of 16 trial point group operations.


The overall configuration has the point symmetry C_4v.
 The point group associated with its full space group is D_4h.


 Subroutine INISYM returns: Found 16 space group operations
 (whereof  8 operations are pure point group operations),
 and found     1 'primitive' translations


----------------------------------------------------------------------------------------

                                     Primitive cell                                     

  volume of cell :     145.0000

  direct lattice vectors                    reciprocal lattice vectors
     3.635115342  0.000000000  0.000000000     0.275094435  0.000000000  0.000000000
     0.000000000  3.635166704  0.000000000     0.000000000  0.275090548  0.000000000
     0.000000000  0.000000000 10.973002417     0.000000000  0.000000000  0.091132760

  length of vectors
     3.635115342  3.635166704 10.973002417     0.275094435  0.275090548  0.091132760

  position of ions in fractional coordinates (direct lattice)
     0.000000000  0.500000000  0.166660318
     0.000000000  0.500000000  0.499019042
     0.000000000  0.500000000  0.834319692
     0.500000000  0.500000000  0.996078995
     0.500000000  0.500000000  0.337268202
     0.500000000  0.500000000  0.666664342
     0.500000000  0.000000000  0.166660235
     0.500000000  0.000000000  0.499010525
     0.500000000  0.000000000  0.834328274
     0.000000000  0.000000000  0.004056994
     0.000000000  0.000000000  0.329262062
     0.000000000  0.000000000  0.666671319

  ion indices of the primitive-cell ions
   primitive index   ion index
                 1           1
                 2           2
                 3           3
                 4           4
                 5           5
                 6           6
                 7           7
                 8           8
                 9           9
                10          10
                11          11
                12          12

----------------------------------------------------------------------------------------

 
 
 KPOINTS: pymatgen with grid density = 8800 / numb

Automatic generation of k-mesh.
 Grid dimensions read from file:
 generate k-points for:   13   13    4

 Generating k-lattice:

  Cartesian coordinates                     Fractional coordinates (reciprocal lattice)
     0.021161110  0.000000000  0.000000000     0.076923077  0.000000000  0.000000000
     0.000000000  0.021160811  0.000000000     0.000000000  0.076923077  0.000000000
     0.000000000  0.000000000  0.022783190     0.000000000  0.000000000  0.250000000

  Length of vectors
     0.021161110  0.021160811  0.022783190

  Shift w.r.t. Gamma in fractional coordinates (k-lattice)
     0.000000000  0.000000000  0.000000000

 TETIRR: Found   1010 inequivalent tetrahedra from     4056
 
 Subroutine IBZKPT returns following result:
 ===========================================
 
 Found     84 irreducible k-points:
 
 Following reciprocal coordinates:
            Coordinates               Weight
  0.000000  0.000000  0.000000      1.000000
  0.076923  0.000000  0.000000      4.000000
  0.153846  0.000000  0.000000      4.000000
  0.230769  0.000000  0.000000      4.000000
  0.307692  0.000000  0.000000      4.000000
  0.384615  0.000000  0.000000      4.000000
  0.461538  0.000000  0.000000      4.000000
  0.076923  0.076923  0.000000      4.000000
  0.153846  0.076923  0.000000      8.000000
  0.230769  0.076923  0.000000      8.000000
  0.307692  0.076923  0.000000      8.000000
  0.384615  0.076923  0.000000      8.000000
  0.461538  0.076923  0.000000      8.000000
  0.153846  0.153846  0.000000      4.000000
  0.230769  0.153846  0.000000      8.000000
  0.307692  0.153846  0.000000      8.000000
  0.384615  0.153846  0.000000      8.000000
  0.461538  0.153846  0.000000      8.000000
  0.230769  0.230769  0.000000      4.000000
  0.307692  0.230769  0.000000      8.000000
  0.384615  0.230769  0.000000      8.000000
  0.461538  0.230769  0.000000      8.000000
  0.307692  0.307692  0.000000      4.000000
  0.384615  0.307692  0.000000      8.000000
  0.461538  0.307692  0.000000      8.000000
  0.384615  0.384615  0.000000      4.000000
  0.461538  0.384615  0.000000      8.000000
  0.461538  0.461538  0.000000      4.000000
  0.000000  0.000000  0.250000      2.000000
  0.076923  0.000000  0.250000      8.000000
  0.153846  0.000000  0.250000      8.000000
  0.230769  0.000000  0.250000      8.000000
  0.307692  0.000000  0.250000      8.000000
  0.384615  0.000000  0.250000      8.000000
  0.461538  0.000000  0.250000      8.000000
  0.076923  0.076923  0.250000      8.000000
  0.153846  0.076923  0.250000     16.000000
  0.230769  0.076923  0.250000     16.000000
  0.307692  0.076923  0.250000     16.000000
  0.384615  0.076923  0.250000     16.000000
  0.461538  0.076923  0.250000     16.000000
  0.153846  0.153846  0.250000      8.000000
  0.230769  0.153846  0.250000     16.000000
  0.307692  0.153846  0.250000     16.000000
  0.384615  0.153846  0.250000     16.000000
  0.461538  0.153846  0.250000     16.000000
  0.230769  0.230769  0.250000      8.000000
  0.307692  0.230769  0.250000     16.000000
  0.384615  0.230769  0.250000     16.000000
  0.461538  0.230769  0.250000     16.000000
  0.307692  0.307692  0.250000      8.000000
  0.384615  0.307692  0.250000     16.000000
  0.461538  0.307692  0.250000     16.000000
  0.384615  0.384615  0.250000      8.000000
  0.461538  0.384615  0.250000     16.000000
  0.461538  0.461538  0.250000      8.000000
  0.000000  0.000000  0.500000      1.000000
  0.076923  0.000000  0.500000      4.000000
  0.153846  0.000000  0.500000      4.000000
  0.230769  0.000000  0.500000      4.000000
  0.307692  0.000000  0.500000      4.000000
  0.384615  0.000000  0.500000      4.000000
  0.461538  0.000000  0.500000      4.000000
  0.076923  0.076923  0.500000      4.000000
  0.153846  0.076923  0.500000      8.000000
  0.230769  0.076923  0.500000      8.000000
  0.307692  0.076923  0.500000      8.000000
  0.384615  0.076923  0.500000      8.000000
  0.461538  0.076923  0.500000      8.000000
  0.153846  0.153846  0.500000      4.000000
  0.230769  0.153846  0.500000      8.000000
  0.307692  0.153846  0.500000      8.000000
  0.384615  0.153846  0.500000      8.000000
  0.461538  0.153846  0.500000      8.000000
  0.230769  0.230769  0.500000      4.000000
  0.307692  0.230769  0.500000      8.000000
  0.384615  0.230769  0.500000      8.000000
  0.461538  0.230769  0.500000      8.000000
  0.307692  0.307692  0.500000      4.000000
  0.384615  0.307692  0.500000      8.000000
  0.461538  0.307692  0.500000      8.000000
  0.384615  0.384615  0.500000      4.000000
  0.461538  0.384615  0.500000      8.000000
  0.461538  0.461538  0.500000      4.000000
 
 Following cartesian coordinates:
            Coordinates               Weight
  0.000000  0.000000  0.000000      1.000000
  0.021161  0.000000  0.000000      4.000000
  0.042322  0.000000  0.000000      4.000000
  0.063483  0.000000  0.000000      4.000000
  0.084644  0.000000  0.000000      4.000000
  0.105806  0.000000  0.000000      4.000000
  0.126967  0.000000  0.000000      4.000000
  0.021161  0.021161  0.000000      4.000000
  0.042322  0.021161  0.000000      8.000000
  0.063483  0.021161  0.000000      8.000000
  0.084644  0.021161  0.000000      8.000000
  0.105806  0.021161  0.000000      8.000000
  0.126967  0.021161  0.000000      8.000000
  0.042322  0.042322  0.000000      4.000000
  0.063483  0.042322  0.000000      8.000000
  0.084644  0.042322  0.000000      8.000000
  0.105806  0.042322  0.000000      8.000000
  0.126967  0.042322  0.000000      8.000000
  0.063483  0.063482  0.000000      4.000000
  0.084644  0.063482  0.000000      8.000000
  0.105806  0.063482  0.000000      8.000000
  0.126967  0.063482  0.000000      8.000000
  0.084644  0.084643  0.000000      4.000000
  0.105806  0.084643  0.000000      8.000000
  0.126967  0.084643  0.000000      8.000000
  0.105806  0.105804  0.000000      4.000000
  0.126967  0.105804  0.000000      8.000000
  0.126967  0.126965  0.000000      4.000000
  0.000000  0.000000  0.022783      2.000000
  0.021161  0.000000  0.022783      8.000000
  0.042322  0.000000  0.022783      8.000000
  0.063483  0.000000  0.022783      8.000000
  0.084644  0.000000  0.022783      8.000000
  0.105806  0.000000  0.022783      8.000000
  0.126967  0.000000  0.022783      8.000000
  0.021161  0.021161  0.022783      8.000000
  0.042322  0.021161  0.022783     16.000000
  0.063483  0.021161  0.022783     16.000000
  0.084644  0.021161  0.022783     16.000000
  0.105806  0.021161  0.022783     16.000000
  0.126967  0.021161  0.022783     16.000000
  0.042322  0.042322  0.022783      8.000000
  0.063483  0.042322  0.022783     16.000000
  0.084644  0.042322  0.022783     16.000000
  0.105806  0.042322  0.022783     16.000000
  0.126967  0.042322  0.022783     16.000000
  0.063483  0.063482  0.022783      8.000000
  0.084644  0.063482  0.022783     16.000000
  0.105806  0.063482  0.022783     16.000000
  0.126967  0.063482  0.022783     16.000000
  0.084644  0.084643  0.022783      8.000000
  0.105806  0.084643  0.022783     16.000000
  0.126967  0.084643  0.022783     16.000000
  0.105806  0.105804  0.022783      8.000000
  0.126967  0.105804  0.022783     16.000000
  0.126967  0.126965  0.022783      8.000000
  0.000000  0.000000  0.045566      1.000000
  0.021161  0.000000  0.045566      4.000000
  0.042322  0.000000  0.045566      4.000000
  0.063483  0.000000  0.045566      4.000000
  0.084644  0.000000  0.045566      4.000000
  0.105806  0.000000  0.045566      4.000000
  0.126967  0.000000  0.045566      4.000000
  0.021161  0.021161  0.045566      4.000000
  0.042322  0.021161  0.045566      8.000000
  0.063483  0.021161  0.045566      8.000000
  0.084644  0.021161  0.045566      8.000000
  0.105806  0.021161  0.045566      8.000000
  0.126967  0.021161  0.045566      8.000000
  0.042322  0.042322  0.045566      4.000000
  0.063483  0.042322  0.045566      8.000000
  0.084644  0.042322  0.045566      8.000000
  0.105806  0.042322  0.045566      8.000000
  0.126967  0.042322  0.045566      8.000000
  0.063483  0.063482  0.045566      4.000000
  0.084644  0.063482  0.045566      8.000000
  0.105806  0.063482  0.045566      8.000000
  0.126967  0.063482  0.045566      8.000000
  0.084644  0.084643  0.045566      4.000000
  0.105806  0.084643  0.045566      8.000000
  0.126967  0.084643  0.045566      8.000000
  0.105806  0.105804  0.045566      4.000000
  0.126967  0.105804  0.045566      8.000000
  0.126967  0.126965  0.045566      4.000000
 


--------------------------------------------------------------------------------------------------------




 Dimension of arrays:
   k-points           NKPTS =     84   k-points in BZ     NKDIM =     84   number of bands    NBANDS=    128
   number of dos      NEDOS =    301   number of ions     NIONS =     12
   non local maximal  LDIM  =      6   non local SUM 2l+1 LMDIM =     18
   total plane-waves  NPLWV =  65856
   max r-space proj   IRMAX =      1   max aug-charges    IRDMAX=  27705
   dimension x,y,z NGX =    28 NGY =   28 NGZ =   84
   dimension x,y,z NGXF=    56 NGYF=   56 NGZF=  168
   support grid    NGXF=    56 NGYF=   56 NGZF=  168
   ions per type =               9   3
   NGX,Y,Z   is equivalent  to a cutoff of  12.81, 12.81, 12.73 a.u.
   NGXF,Y,Z  is equivalent  to a cutoff of  25.61, 25.61, 25.45 a.u.

 SYSTEM =  unknown system                          
 POSCAR =  Fe9 Pt3                                 

 Startparameter for this run:
   NWRITE =      2    write-flag & timer
   PREC   = accura    normal or accurate (medium, high low for compatibility)
   ISTART =      0    job   : 0-new  1-cont  2-samecut
   ICHARG =      2    charge: 1-file 2-atom 10-const
   ISPIN  =      2    spin polarized calculation?
   LNONCOLLINEAR =      F non collinear calculations
   LSORBIT =      F    spin-orbit coupling
   INIWAV =      1    electr: 0-lowe 1-rand  2-diag
   LASPH  =      F    aspherical Exc in radial PAW
 Electronic Relaxation 1
   ENCUT  =  520.0 eV  38.22 Ry    6.18 a.u.   6.76  6.76 20.40*2*pi/ulx,y,z
   ENINI  =  520.0     initial cutoff
   ENAUG  =  578.3 eV  augmentation charge cutoff
   NELM   =    200;   NELMIN=  2; NELMDL=  0     # of ELM steps 
   EDIFF  = 0.1E-05   stopping-criterion for ELM
   LREAL  =      F    real-space projection
   NLSPLINE    = F    spline interpolate recip. space projectors
   LCOMPAT=      F    compatible to vasp.4.4
   GGA_COMPAT  = T    GGA compatible to vasp.4.4-vasp.4.6
   LMAXPAW     = -100 max onsite density
   LMAXMIX     =    2 max onsite mixed and CHGCAR
   VOSKOWN=      0    Vosko Wilk Nusair interpolation
   ROPT   =    0.00000   0.00000
 Ionic relaxation
   EDIFFG = -.1E-01   stopping-criterion for IOM
   NSW    =      0    number of steps for IOM
   NBLOCK =      1;   KBLOCK =      1    inner block; outer block 
   IBRION =     -1    ionic relax: 0-MD 1-quasi-New 2-CG
   NFREE  =      0    steps in history (QN), initial steepest desc. (CG)
   ISIF   =      4    stress and relaxation
   IWAVPR =     10    prediction:  0-non 1-charg 2-wave 3-comb
   ISYM   =      2    0-nonsym 1-usesym 2-fastsym
   LCORR  =      T    Harris-Foulkes like correction to forces

   POTIM  = 0.5000    time-step for ionic-motion
   TEIN   =    0.0    initial temperature
   TEBEG  =    0.0;   TEEND  =   0.0 temperature during run
   SMASS  =  -3.00    Nose mass-parameter (am)
   estimated Nose-frequenzy (Omega)   =  0.10E-29 period in steps = 0.13E+47 mass=  -0.302E-27a.u.
   SCALEE = 1.0000    scale energy and forces
   NPACO  =    256;   APACO  = 10.0  distance and # of slots for P.C.
   PSTRESS=    0.0 pullay stress

  Mass of Ions in am
   POMASS =  55.85195.08
  Ionic Valenz
   ZVAL   =  14.00 10.00
  Atomic Wigner-Seitz radii
   RWIGS  =  -1.00 -1.00
  virtual crystal weights 
   VCA    =   1.00  1.00
   NELECT =     156.0000    total number of electrons
   NUPDOWN=      -1.0000    fix difference up-down

 DOS related values:
   EMIN   =  10.00;   EMAX   =-10.00  energy-range for DOS
   EFERMI =   0.00;   METHOD = LEGACY      
   ISMEAR =    -5;   SIGMA  =   0.20  broadening in eV -4-tet -1-fermi 0-gaus

 Electronic relaxation 2 (details)
   IALGO  =     38    algorithm
   LDIAG  =      T    sub-space diagonalisation (order eigenvalues)
   LSUBROT=      F    optimize rotation matrix (better conditioning)
   TURBO    =      0    0=normal 1=particle mesh
   IRESTART =      0    0=no restart 2=restart with 2 vectors
   NREBOOT  =      0    no. of reboots
   NMIN     =      0    reboot dimension
   EREF     =   0.00    reference energy to select bands
   IMIX   =      4    mixing-type and parameters
     AMIX     =   0.40;   BMIX     =  1.00
     AMIX_MAG =   1.60;   BMIX_MAG =  1.00
     AMIN     =   0.10
     WC   =   100.;   INIMIX=   1;  MIXPRE=   1;  MAXMIX= -45

 Intra band minimization:
   WEIMIN = 0.0000     energy-eigenvalue tresh-hold
   EBREAK =  0.20E-08  absolut break condition
   DEPER  =   0.30     relativ break condition  

   TIME   =   0.40     timestep for ELM

  volume/ion in A,a.u.               =      12.08        81.54
  Fermi-wavevector in a.u.,A,eV,Ry     =   1.677492  3.170000 38.286498  2.813978
  Thomas-Fermi vector in A             =   2.761748
 
 Write flags
   LWAVE        =      F    write WAVECAR
   LDOWNSAMPLE  =      F    k-point downsampling of WAVECAR
   LCHARG       =      T    write CHGCAR
   LVTOT        =      F    write LOCPOT, total local potential
   LVHAR        =      F    write LOCPOT, Hartree potential only
   WRT_POTENTIAL= false  ! write potential to hdf5 file
   LELF         =      F    write electronic localiz. function (ELF)
   LORBIT       =     11    0 simple, 1 ext, 2 COOP (PROOUT), +10 PAW based schemes


 Dipole corrections
   LMONO      =      F    monopole corrections only (constant potential shift)
   LDIPOL     =      F    correct potential (dipole corrections)
   IDIPOL     =      0    1-x, 2-y, 3-z, 4-all directions 
   EPSILON    =  1.0000000 bulk dielectric constant
   LVACPOTAV  =      F  vacuum potentials using an averaging scheme for the charge density
   VACPOTFLAT =  0.1000000 required flatness to determine vacuum potential
 Exchange correlation treatment:
   GGA     = PE    functional components
   XC_C    = 1    coefficients multiplying the functional components
   LIBXC   =     F    Libxc                    
   VOSKOWN =     0    Vosko Wilk Nusair interpolation
   LHFCALC =     F    Hartree Fock is set to
   LHFONE  =     F    Hartree Fock one center treatment
   AEXX    =    0.0000 exact exchange contribution

 Parameters of functionals:
   PE:
     No parameter
 
 Van der Waals corrections
   IVDW    =     0    specifies the selected vdW correction

 Linear response parameters
   LEPSILON=     F    determine dielectric tensor
   LRPA    =     F    only Hartree local field effects (RPA)
   LNABLA  =     F    use nabla operator in PAW spheres
   LVEL    =     F    velocity operator in full k-point grid
   CSHIFT  =0.1000    complex shift for real part using Kramers Kronig
   OMEGAMAX=  -1.0    maximum frequency
   DEG_THRESHOLD= 0.2000000E-02 threshold for treating states as degnerate
   RTIME   =   -0.100 relaxation time in fs
  (WPLASMAI=    0.000 imaginary part of plasma frequency in eV, 0.658/RTIME)
   DFIELD  = 0.0000000 0.0000000 0.0000000 field for delta impulse in time
 
  Optional k-point grid parameters
   LKPOINTS_OPT  =     F    use optional k-point grid
   KPOINTS_OPT_MODE=     1    mode for optional k-point grid
 
 Orbital magnetization related:
   ORBITALMAG=     F  switch on orbital magnetization
   LCHIMAG   =     F  perturbation theory with respect to B field
   DQ        =  0.001000  dq finite difference perturbation B field
   LLRAUG    =     F  two centre corrections for induced B field
   LBONE     =     F  B-component reconstruction in AE one-centre
   LVGVCALC  =     T  calculate vGv susceptibility
   LVGVAPPL  =     F  apply vGv susceptibility instead of pGv for G=0

 Random number generation:
   RANDOM_GENERATOR = DEFAULT
   PCG_SEED         = not used


--------------------------------------------------------------------------------------------------------


 Static calculation
 charge density and potential will be updated during run
 spin polarized calculation
 Variant of blocked Davidson
 Davidson routine will perform the subspace rotation
 perform sub-space diagonalisation
    after iterative eigenvector-optimisation
 modified Broyden-mixing scheme, WC =      100.0
 initial mixing is a Kerker type mixing with AMIX =  0.4000 and BMIX =      1.0000
 Hartree-type preconditioning will be used
 using additional bands           50
 reciprocal scheme for non local part
 use partial core corrections
 calculate Harris-corrections to forces 
   (improved forces if not selfconsistent)
 use gradient corrections 
 use of overlap-Matrix (Vanderbilt PP)
 Fermi weights with tetrahedron method with Bloechl corrections


--------------------------------------------------------------------------------------------------------


  energy-cutoff  :      520.00
  volume of cell :      145.00
      direct lattice vectors                 reciprocal lattice vectors
     3.635115342  0.000000000  0.000000000     0.275094435  0.000000000  0.000000000
     0.000000000  3.635166704  0.000000000     0.000000000  0.275090548  0.000000000
     0.000000000  0.000000000 10.973002417     0.000000000  0.000000000  0.091132760

  length of vectors
     3.635115342  3.635166704 10.973002417     0.275094435  0.275090548  0.091132760


 
 k-points in units of 2pi/SCALE and weight: pymatgen with grid density = 8800 / numb
   0.00000000  0.00000000  0.00000000       0.001
   0.02116111  0.00000000  0.00000000       0.006
   0.04232222  0.00000000  0.00000000       0.006
   0.06348333  0.00000000  0.00000000       0.006
   0.08464444  0.00000000  0.00000000       0.006
   0.10580555  0.00000000  0.00000000       0.006
   0.12696666  0.00000000  0.00000000       0.006
   0.02116111  0.02116081  0.00000000       0.006
   0.04232222  0.02116081  0.00000000       0.012
   0.06348333  0.02116081  0.00000000       0.012
   0.08464444  0.02116081  0.00000000       0.012
   0.10580555  0.02116081  0.00000000       0.012
   0.12696666  0.02116081  0.00000000       0.012
   0.04232222  0.04232162  0.00000000       0.006
   0.06348333  0.04232162  0.00000000       0.012
   0.08464444  0.04232162  0.00000000       0.012
   0.10580555  0.04232162  0.00000000       0.012
   0.12696666  0.04232162  0.00000000       0.012
   0.06348333  0.06348243  0.00000000       0.006
   0.08464444  0.06348243  0.00000000       0.012
   0.10580555  0.06348243  0.00000000       0.012
   0.12696666  0.06348243  0.00000000       0.012
   0.08464444  0.08464325  0.00000000       0.006
   0.10580555  0.08464325  0.00000000       0.012
   0.12696666  0.08464325  0.00000000       0.012
   0.10580555  0.10580406  0.00000000       0.006
   0.12696666  0.10580406  0.00000000       0.012
   0.12696666  0.12696487  0.00000000       0.006
   0.00000000  0.00000000  0.02278319       0.003
   0.02116111  0.00000000  0.02278319       0.012
   0.04232222  0.00000000  0.02278319       0.012
   0.06348333  0.00000000  0.02278319       0.012
   0.08464444  0.00000000  0.02278319       0.012
   0.10580555  0.00000000  0.02278319       0.012
   0.12696666  0.00000000  0.02278319       0.012
   0.02116111  0.02116081  0.02278319       0.012
   0.04232222  0.02116081  0.02278319       0.024
   0.06348333  0.02116081  0.02278319       0.024
   0.08464444  0.02116081  0.02278319       0.024
   0.10580555  0.02116081  0.02278319       0.024
   0.12696666  0.02116081  0.02278319       0.024
   0.04232222  0.04232162  0.02278319       0.012
   0.06348333  0.04232162  0.02278319       0.024
   0.08464444  0.04232162  0.02278319       0.024
   0.10580555  0.04232162  0.02278319       0.024
   0.12696666  0.04232162  0.02278319       0.024
   0.06348333  0.06348243  0.02278319       0.012
   0.08464444  0.06348243  0.02278319       0.024
   0.10580555  0.06348243  0.02278319       0.024
   0.12696666  0.06348243  0.02278319       0.024
   0.08464444  0.08464325  0.02278319       0.012
   0.10580555  0.08464325  0.02278319       0.024
   0.12696666  0.08464325  0.02278319       0.024
   0.10580555  0.10580406  0.02278319       0.012
   0.12696666  0.10580406  0.02278319       0.024
   0.12696666  0.12696487  0.02278319       0.012
   0.00000000  0.00000000  0.04556638       0.001
   0.02116111  0.00000000  0.04556638       0.006
   0.04232222  0.00000000  0.04556638       0.006
   0.06348333  0.00000000  0.04556638       0.006
   0.08464444  0.00000000  0.04556638       0.006
   0.10580555  0.00000000  0.04556638       0.006
   0.12696666  0.00000000  0.04556638       0.006
   0.02116111  0.02116081  0.04556638       0.006
   0.04232222  0.02116081  0.04556638       0.012
   0.06348333  0.02116081  0.04556638       0.012
   0.08464444  0.02116081  0.04556638       0.012
   0.10580555  0.02116081  0.04556638       0.012
   0.12696666  0.02116081  0.04556638       0.012
   0.04232222  0.04232162  0.04556638       0.006
   0.06348333  0.04232162  0.04556638       0.012
   0.08464444  0.04232162  0.04556638       0.012
   0.10580555  0.04232162  0.04556638       0.012
   0.12696666  0.04232162  0.04556638       0.012
   0.06348333  0.06348243  0.04556638       0.006
   0.08464444  0.06348243  0.04556638       0.012
   0.10580555  0.06348243  0.04556638       0.012
   0.12696666  0.06348243  0.04556638       0.012
   0.08464444  0.08464325  0.04556638       0.006
   0.10580555  0.08464325  0.04556638       0.012
   0.12696666  0.08464325  0.04556638       0.012
   0.10580555  0.10580406  0.04556638       0.006
   0.12696666  0.10580406  0.04556638       0.012
   0.12696666  0.12696487  0.04556638       0.006
 
 k-points in reciprocal lattice and weights: pymatgen with grid density = 8800 / numb
   0.00000000  0.00000000  0.00000000       0.001
   0.07692308  0.00000000  0.00000000       0.006
   0.15384615  0.00000000  0.00000000       0.006
   0.23076923  0.00000000  0.00000000       0.006
   0.30769231  0.00000000  0.00000000       0.006
   0.38461538  0.00000000  0.00000000       0.006
   0.46153846  0.00000000  0.00000000       0.006
   0.07692308  0.07692308  0.00000000       0.006
   0.15384615  0.07692308  0.00000000       0.012
   0.23076923  0.07692308  0.00000000       0.012
   0.30769231  0.07692308  0.00000000       0.012
   0.38461538  0.07692308  0.00000000       0.012
   0.46153846  0.07692308  0.00000000       0.012
   0.15384615  0.15384615  0.00000000       0.006
   0.23076923  0.15384615  0.00000000       0.012
   0.30769231  0.15384615  0.00000000       0.012
   0.38461538  0.15384615  0.00000000       0.012
   0.46153846  0.15384615  0.00000000       0.012
   0.23076923  0.23076923  0.00000000       0.006
   0.30769231  0.23076923  0.00000000       0.012
   0.38461538  0.23076923  0.00000000       0.012
   0.46153846  0.23076923  0.00000000       0.012
   0.30769231  0.30769231  0.00000000       0.006
   0.38461538  0.30769231  0.00000000       0.012
   0.46153846  0.30769231  0.00000000       0.012
   0.38461538  0.38461538  0.00000000       0.006
   0.46153846  0.38461538  0.00000000       0.012
   0.46153846  0.46153846  0.00000000       0.006
   0.00000000  0.00000000  0.25000000       0.003
   0.07692308  0.00000000  0.25000000       0.012
   0.15384615  0.00000000  0.25000000       0.012
   0.23076923  0.00000000  0.25000000       0.012
   0.30769231  0.00000000  0.25000000       0.012
   0.38461538  0.00000000  0.25000000       0.012
   0.46153846  0.00000000  0.25000000       0.012
   0.07692308  0.07692308  0.25000000       0.012
   0.15384615  0.07692308  0.25000000       0.024
   0.23076923  0.07692308  0.25000000       0.024
   0.30769231  0.07692308  0.25000000       0.024
   0.38461538  0.07692308  0.25000000       0.024
   0.46153846  0.07692308  0.25000000       0.024
   0.15384615  0.15384615  0.25000000       0.012
   0.23076923  0.15384615  0.25000000       0.024
   0.30769231  0.15384615  0.25000000       0.024
   0.38461538  0.15384615  0.25000000       0.024
   0.46153846  0.15384615  0.25000000       0.024
   0.23076923  0.23076923  0.25000000       0.012
   0.30769231  0.23076923  0.25000000       0.024
   0.38461538  0.23076923  0.25000000       0.024
   0.46153846  0.23076923  0.25000000       0.024
   0.30769231  0.30769231  0.25000000       0.012
   0.38461538  0.30769231  0.25000000       0.024
   0.46153846  0.30769231  0.25000000       0.024
   0.38461538  0.38461538  0.25000000       0.012
   0.46153846  0.38461538  0.25000000       0.024
   0.46153846  0.46153846  0.25000000       0.012
   0.00000000  0.00000000  0.50000000       0.001
   0.07692308  0.00000000  0.50000000       0.006
   0.15384615  0.00000000  0.50000000       0.006
   0.23076923  0.00000000  0.50000000       0.006
   0.30769231  0.00000000  0.50000000       0.006
   0.38461538  0.00000000  0.50000000       0.006
   0.46153846  0.00000000  0.50000000       0.006
   0.07692308  0.07692308  0.50000000       0.006
   0.15384615  0.07692308  0.50000000       0.012
   0.23076923  0.07692308  0.50000000       0.012
   0.30769231  0.07692308  0.50000000       0.012
   0.38461538  0.07692308  0.50000000       0.012
   0.46153846  0.07692308  0.50000000       0.012
   0.15384615  0.15384615  0.50000000       0.006
   0.23076923  0.15384615  0.50000000       0.012
   0.30769231  0.15384615  0.50000000       0.012
   0.38461538  0.15384615  0.50000000       0.012
   0.46153846  0.15384615  0.50000000       0.012
   0.23076923  0.23076923  0.50000000       0.006
   0.30769231  0.23076923  0.50000000       0.012
   0.38461538  0.23076923  0.50000000       0.012
   0.46153846  0.23076923  0.50000000       0.012
   0.30769231  0.30769231  0.50000000       0.006
   0.38461538  0.30769231  0.50000000       0.012
   0.46153846  0.30769231  0.50000000       0.012
   0.38461538  0.38461538  0.50000000       0.006
   0.46153846  0.38461538  0.50000000       0.012
   0.46153846  0.46153846  0.50000000       0.006
 
 position of ions in fractional coordinates (direct lattice) 
   0.00000000  0.50000000  0.16666032
   0.00000000  0.50000000  0.49901904
   0.00000000  0.50000000  0.83431969
   0.50000000  0.50000000  0.99607900
   0.50000000  0.50000000  0.33726820
   0.50000000  0.50000000  0.66666434
   0.50000000  0.00000000  0.16666024
   0.50000000  0.00000000  0.49901053
   0.50000000  0.00000000  0.83432827
   0.00000000  0.00000000  0.00405699
   0.00000000  0.00000000  0.32926206
   0.00000000  0.00000000  0.66667132
 
 position of ions in cartesian coordinates  (Angst):
   0.00000000  1.81758335  1.82876407
   0.00000000  1.81758335  5.47573715
   0.00000000  1.81758335  9.15499200
   1.81755767  1.81758335 10.92997722
   1.81755767  1.81758335  3.70084479
   1.81755767  1.81758335  7.31530944
   1.81755767  0.00000000  1.82876316
   1.81755767  0.00000000  5.47564370
   1.81755767  0.00000000  9.15508617
   0.00000000  0.00000000  0.04451741
   0.00000000  0.00000000  3.61299340
   0.00000000  0.00000000  7.31538599
 


--------------------------------------------------------------------------------------------------------


 k-point     1 :   0.0000 0.0000 0.0000  plane waves:    3945
 k-point     2 :   0.0769 0.0000 0.0000  plane waves:    3917
 k-point     3 :   0.1538 0.0000 0.0000  plane waves:    3915
 k-point     4 :   0.2308 0.0000 0.0000  plane waves:    3915
 k-point     5 :   0.3077 0.0000 0.0000  plane waves:    3912
 k-point     6 :   0.3846 0.0000 0.0000  plane waves:    3898
 k-point     7 :   0.4615 0.0000 0.0000  plane waves:    3894
 k-point     8 :   0.0769 0.0769 0.0000  plane waves:    3925
 k-point     9 :   0.1538 0.0769 0.0000  plane waves:    3912
 k-point    10 :   0.2308 0.0769 0.0000  plane waves:    3916
 k-point    11 :   0.3077 0.0769 0.0000  plane waves:    3907
 k-point    12 :   0.3846 0.0769 0.0000  plane waves:    3903
 k-point    13 :   0.4615 0.0769 0.0000  plane waves:    3889
 k-point    14 :   0.1538 0.1538 0.0000  plane waves:    3909
 k-point    15 :   0.2308 0.1538 0.0000  plane waves:    3900
 k-point    16 :   0.3077 0.1538 0.0000  plane waves:    3907
 k-point    17 :   0.3846 0.1538 0.0000  plane waves:    3912
 k-point    18 :   0.4615 0.1538 0.0000  plane waves:    3909
 k-point    19 :   0.2308 0.2308 0.0000  plane waves:    3878
 k-point    20 :   0.3077 0.2308 0.0000  plane waves:    3888
 k-point    21 :   0.3846 0.2308 0.0000  plane waves:    3891
 k-point    22 :   0.4615 0.2308 0.0000  plane waves:    3894
 k-point    23 :   0.3077 0.3077 0.0000  plane waves:    3892
 k-point    24 :   0.3846 0.3077 0.0000  plane waves:    3910
 k-point    25 :   0.4615 0.3077 0.0000  plane waves:    3912
 k-point    26 :   0.3846 0.3846 0.0000  plane waves:    3914
 k-point    27 :   0.4615 0.3846 0.0000  plane waves:    3918
 k-point    28 :   0.4615 0.4615 0.0000  plane waves:    3912
 k-point    29 :   0.0000 0.0000 0.2500  plane waves:    3929
 k-point    30 :   0.0769 0.0000 0.2500  plane waves:    3911
 k-point    31 :   0.1538 0.0000 0.2500  plane waves:    3911
 k-point    32 :   0.2308 0.0000 0.2500  plane waves:    3901
 k-point    33 :   0.3077 0.0000 0.2500  plane waves:    3905
 k-point    34 :   0.3846 0.0000 0.2500  plane waves:    3905
 k-point    35 :   0.4615 0.0000 0.2500  plane waves:    3888
 k-point    36 :   0.0769 0.0769 0.2500  plane waves:    3914
 k-point    37 :   0.1538 0.0769 0.2500  plane waves:    3913
 k-point    38 :   0.2308 0.0769 0.2500  plane waves:    3904
 k-point    39 :   0.3077 0.0769 0.2500  plane waves:    3907
 k-point    40 :   0.3846 0.0769 0.2500  plane waves:    3903
 k-point    41 :   0.4615 0.0769 0.2500  plane waves:    3890
 k-point    42 :   0.1538 0.1538 0.2500  plane waves:    3901
 k-point    43 :   0.2308 0.1538 0.2500  plane waves:    3894
 k-point    44 :   0.3077 0.1538 0.2500  plane waves:    3904
 k-point    45 :   0.3846 0.1538 0.2500  plane waves:    3902
 k-point    46 :   0.4615 0.1538 0.2500  plane waves:    3896
 k-point    47 :   0.2308 0.2308 0.2500  plane waves:    3898
 k-point    48 :   0.3077 0.2308 0.2500  plane waves:    3896
 k-point    49 :   0.3846 0.2308 0.2500  plane waves:    3895
 k-point    50 :   0.4615 0.2308 0.2500  plane waves:    3900
 k-point    51 :   0.3077 0.3077 0.2500  plane waves:    3901
 k-point    52 :   0.3846 0.3077 0.2500  plane waves:    3905
 k-point    53 :   0.4615 0.3077 0.2500  plane waves:    3905
 k-point    54 :   0.3846 0.3846 0.2500  plane waves:    3908
 k-point    55 :   0.4615 0.3846 0.2500  plane waves:    3926
 k-point    56 :   0.4615 0.4615 0.2500  plane waves:    3949
 k-point    57 :   0.0000 0.0000 0.5000  plane waves:    3880
 k-point    58 :   0.0769 0.0000 0.5000  plane waves:    3888
 k-point    59 :   0.1538 0.0000 0.5000  plane waves:    3904
 k-point    60 :   0.2308 0.0000 0.5000  plane waves:    3902
 k-point    61 :   0.3077 0.0000 0.5000  plane waves:    3900
 k-point    62 :   0.3846 0.0000 0.5000  plane waves:    3912
 k-point    63 :   0.4615 0.0000 0.5000  plane waves:    3888
 k-point    64 :   0.0769 0.0769 0.5000  plane waves:    3888
 k-point    65 :   0.1538 0.0769 0.5000  plane waves:    3900
 k-point    66 :   0.2308 0.0769 0.5000  plane waves:    3898
 k-point    67 :   0.3077 0.0769 0.5000  plane waves:    3902
 k-point    68 :   0.3846 0.0769 0.5000  plane waves:    3914
 k-point    69 :   0.4615 0.0769 0.5000  plane waves:    3898
 k-point    70 :   0.1538 0.1538 0.5000  plane waves:    3900
 k-point    71 :   0.2308 0.1538 0.5000  plane waves:    3910
 k-point    72 :   0.3077 0.1538 0.5000  plane waves:    3906
 k-point    73 :   0.3846 0.1538 0.5000  plane waves:    3886
 k-point    74 :   0.4615 0.1538 0.5000  plane waves:    3890
 k-point    75 :   0.2308 0.2308 0.5000  plane waves:    3908
 k-point    76 :   0.3077 0.2308 0.5000  plane waves:    3892
 k-point    77 :   0.3846 0.2308 0.5000  plane waves:    3898
 k-point    78 :   0.4615 0.2308 0.5000  plane waves:    3912
 k-point    79 :   0.3077 0.3077 0.5000  plane waves:    3914
 k-point    80 :   0.3846 0.3077 0.5000  plane waves:    3898
 k-point    81 :   0.4615 0.3077 0.5000  plane waves:    3918
 k-point    82 :   0.3846 0.3846 0.5000  plane waves:    3908
 k-point    83 :   0.4615 0.3846 0.5000  plane waves:    3918
 k-point    84 :   0.4615 0.4615 0.5000  plane waves:    3922

 maximum and minimum number of plane-waves per node :      3949     3878

 maximum number of plane-waves:      3949
 maximum index in each direction: 
   IXMAX=    6   IYMAX=    6   IZMAX=   20
   IXMIN=   -7   IYMIN=   -7   IZMIN=  -20


 serial   3D FFT for wavefunctions
 parallel 3D FFT for charge:
    minimum data exchange during FFTs selected (reduces bandwidth)


 total amount of memory used by VASP MPI-rank0   179901. kBytes
=======================================================================

   base      :      30000. kBytes
   nonl-proj :      96755. kBytes
   fftplans  :        888. kBytes
   grid      :       6813. kBytes
   one-center:        373. kBytes
   wavefun   :      45072. kBytes
 
     INWAV:  cpu time      0.0000: real time      0.0000
 Broyden mixing: mesh for mixing (old mesh)
   NGX = 13   NGY = 13   NGZ = 41
  (NGX  = 56   NGY  = 56   NGZ  =168)
  gives a total of   6929 points

 initial charge density was supplied:
 charge density of overlapping atoms calculated
 number of electron     156.0000000 magnetization      13.0180000
 keeping initial charge density in first step


--------------------------------------------------------------------------------------------------------


 Maximum index for augmentation-charges         1085 (set IRDMAX)


--------------------------------------------------------------------------------------------------------


 First call to EWALD:  gamma=   0.337
 Maximum number of real-space cells 4x 4x 2
 Maximum number of reciprocal cells 2x 2x 5

    FEWALD:  cpu time      0.0026: real time      0.0026


--------------------------------------- Ionic step        1  -------------------------------------------




--------------------------------------- Iteration      1(   1)  ---------------------------------------


    POTLOK:  cpu time      0.0278: real time      0.0445
    SETDIJ:  cpu time      0.0093: real time      0.0094
     EDDAV:  cpu time      5.7404: real time      5.7844
 BZINTS: Fermi energy:   24.291248;  156.000000 electrons
         Band energy: 0.658319E+03;  BLOECHL correction:   -0.061474
       DOS:  cpu time      0.1299: real time      0.1314
    --------------------------------------------
      LOOP:  cpu time      5.9076: real time      5.9699

 eigenvalue-minimisations  : 43072
 total energy-change (2. order) : 0.1764265E+04  (-0.8406150E+04)
 number of electron     156.0000000 magnetization      13.0180000
 augmentation part      156.0000000 magnetization      13.0180000

 Free energy of the ion-electron system (eV)
  ---------------------------------------------------
  alpha Z        PSCENC =      1173.72503148
  Ewald energy   TEWEN  =    -18536.02390978
  -Hartree energ DENC   =     -5770.89139851
  -exchange      EXHF   =         0.00000000
  -V(xc)+E(xc)   XCENC  =       659.09089746
  PAW double counting   =     20095.36014593   -20819.41771499
  entropy T*S    EENTRO =         0.00000000
  eigenvalues    EBANDS =       658.31925456
  atomic energy  EATOM  =     24304.10294433
  Solvation  Ediel_sol  =         0.00000000
  ---------------------------------------------------
  free energy    TOTEN  =      1764.26525047 eV

  energy without entropy =     1764.26525047  energy(sigma->0) =     1764.26525047


--------------------------------------------------------------------------------------------------------




--------------------------------------- Iteration      1(   2)  ---------------------------------------


     EDDAV:  cpu time      5.6440: real time      5.6861
 BZINTS: Fermi energy:   13.320686;  156.000000 electrons
         Band energy:-0.110031E+04;  BLOECHL correction:   -0.023200
       DOS:  cpu time      0.1301: real time      0.1312
    --------------------------------------------
      LOOP:  cpu time      5.7740: real time      5.8172

 eigenvalue-minimisations  : 43008
 total energy-change (2. order) :-0.1758631E+04  (-0.1668218E+04)
 number of electron     156.0000000 magnetization      13.0180000
 augmentation part      156.0000000 magnetization      13.0180000

 Free energy of the ion-electron system (eV)
  ---------------------------------------------------
  alpha Z        PSCENC =      1173.72503148
  Ewald energy   TEWEN  =    -18536.02390978
  -Hartree energ DENC   =     -5770.89139851
  -exchange      EXHF   =         0.00000000
  -V(xc)+E(xc)   XCENC  =       659.09089746
  PAW double counting   =     20095.36014593   -20819.41771499
  entropy T*S    EENTRO =         0.00000000
  eigenvalues    EBANDS =     -1100.31220552
  atomic energy  EATOM  =     24304.10294433
  Solvation  Ediel_sol  =         0.00000000
  ---------------------------------------------------
  free energy    TOTEN  =         5.63379040 eV

  energy without entropy =        5.63379040  energy(sigma->0) =        5.63379040


--------------------------------------------------------------------------------------------------------




--------------------------------------- Iteration      1(   3)  ---------------------------------------


     EDDAV:  cpu time      6.8141: real time      6.8709
 BZINTS: Fermi energy:   12.728727;  156.000000 electrons
         Band energy:-0.120934E+04;  BLOECHL correction:   -0.032782
       DOS:  cpu time      0.1274: real time      0.1286
    --------------------------------------------
      LOOP:  cpu time      6.9414: real time      6.9994

 eigenvalue-minimisations  : 50720
 total energy-change (2. order) :-0.1090277E+03  (-0.1076729E+03)
 number of electron     156.0000000 magnetization      13.0180000
 augmentation part      156.0000000 magnetization      13.0180000

 Free energy of the ion-electron system (eV)
  ---------------------------------------------------
  alpha Z        PSCENC =      1173.72503148
  Ewald energy   TEWEN  =    -18536.02390978
  -Hartree energ DENC   =     -5770.89139851
  -exchange      EXHF   =         0.00000000
  -V(xc)+E(xc)   XCENC  =       659.09089746
  PAW double counting   =     20095.36014593   -20819.41771499
  entropy T*S    EENTRO =         0.00000000
  eigenvalues    EBANDS =     -1209.33995550
  atomic energy  EATOM  =     24304.10294433
  Solvation  Ediel_sol  =         0.00000000
  ---------------------------------------------------
  free energy    TOTEN  =      -103.39395959 eV

  energy without entropy =     -103.39395959  energy(sigma->0) =     -103.39395959


--------------------------------------------------------------------------------------------------------




--------------------------------------- Iteration      1(   4)  ---------------------------------------


     EDDAV:  cpu time      5.9912: real time      6.0437
 BZINTS: Fermi energy:   12.723637;  156.000000 electrons
         Band energy:-0.121086E+04;  BLOECHL correction:   -0.032753
       DOS:  cpu time      0.1305: real time      0.1315
    --------------------------------------------
      LOOP:  cpu time      6.1217: real time      6.1752

 eigenvalue-minimisations  : 45792
 total energy-change (2. order) :-0.1517453E+01  (-0.1517169E+01)
 number of electron     156.0000000 magnetization      13.0180000
 augmentation part      156.0000000 magnetization      13.0180000

 Free energy of the ion-electron system (eV)
  ---------------------------------------------------
  alpha Z        PSCENC =      1173.72503148
  Ewald energy   TEWEN  =    -18536.02390978
  -Hartree energ DENC   =     -5770.89139851
  -exchange      EXHF   =         0.00000000
  -V(xc)+E(xc)   XCENC  =       659.09089746
  PAW double counting   =     20095.36014593   -20819.41771499
  entropy T*S    EENTRO =         0.00000000
  eigenvalues    EBANDS =     -1210.85740821
  atomic energy  EATOM  =     24304.10294433
  Solvation  Ediel_sol  =         0.00000000
  ---------------------------------------------------
  free energy    TOTEN  =      -104.91141230 eV

  energy without entropy =     -104.91141230  energy(sigma->0) =     -104.91141230


--------------------------------------------------------------------------------------------------------




--------------------------------------- Iteration      1(   5)  ---------------------------------------


     EDDAV:  cpu time      7.2361: real time      7.3038
 BZINTS: Fermi energy:   12.723588;  156.000000 electrons
         Band energy:-0.121088E+04;  BLOECHL correction:   -0.032752
       DOS:  cpu time      0.1291: real time      0.1300
    CHARGE:  cpu time      0.1523: real time      0.1535
    MIXING:  cpu time      0.0073: real time      0.0075
    --------------------------------------------
      LOOP:  cpu time      7.5248: real time      7.5948

 eigenvalue-minimisations  : 52928
 total energy-change (2. order) :-0.2742864E-01  (-0.2742833E-01)
 number of electron     155.9999901 magnetization      12.1409254
 augmentation part       79.2724541 magnetization       9.1445922

 Broyden mixing:
  rms(total) = 0.41860E+01    rms(broyden)= 0.41855E+01
  rms(prec ) = 0.47003E+01
  weight for this iteration     100.00

 Free energy of the ion-electron system (eV)
  ---------------------------------------------------
  alpha Z        PSCENC =      1173.72503148
  Ewald energy   TEWEN  =    -18536.02390978
  -Hartree energ DENC   =     -5770.89139851
  -exchange      EXHF   =         0.00000000
  -V(xc)+E(xc)   XCENC  =       659.09089746
  PAW double counting   =     20095.36014593   -20819.41771499
  entropy T*S    EENTRO =         0.00000000
  eigenvalues    EBANDS =     -1210.88483685
  atomic energy  EATOM  =     24304.10294433
  Solvation  Ediel_sol  =         0.00000000
  ---------------------------------------------------
  free energy    TOTEN  =      -104.93884094 eV

  energy without entropy =     -104.93884094  energy(sigma->0) =     -104.93884094


--------------------------------------------------------------------------------------------------------




--------------------------------------- Iteration      1(   6)  ---------------------------------------


    POTLOK:  cpu time      0.0350: real time      0.0446
    SETDIJ:  cpu time      0.0082: real time      0.0083
     EDDAV:  cpu time      7.1929: real time      7.2415
 BZINTS: Fermi energy:   10.206064;  156.000000 electrons
         Band energy:-0.162530E+04;  BLOECHL correction:   -0.022462
       DOS:  cpu time      0.1363: real time      0.1373
    CHARGE:  cpu time      0.1482: real time      0.1491
    MIXING:  cpu time      0.0046: real time      0.0047
    --------------------------------------------
      LOOP:  cpu time      7.5254: real time      7.5855

 eigenvalue-minimisations  : 53280
 total energy-change (2. order) :-0.1095340E+02  (-0.2245705E+02)
 number of electron     155.9999881 magnetization      12.0632993
 augmentation part       87.7292975 magnetization       8.8707896

 Broyden mixing:
  rms(total) = 0.67942E+01    rms(broyden)= 0.67939E+01
  rms(prec ) = 0.10849E+02
  weight for this iteration     100.00

 eigenvalues of (default mixing * dielectric matrix)
  average eigenvalue GAMMA=   0.2530
  0.2530

 Free energy of the ion-electron system (eV)
  ---------------------------------------------------
  alpha Z        PSCENC =      1173.72503148
  Ewald energy   TEWEN  =    -18536.02390978
  -Hartree energ DENC   =     -5371.29357032
  -exchange      EXHF   =         0.00000000
  -V(xc)+E(xc)   XCENC  =       641.59121840
  PAW double counting   =     20694.84876096   -21397.53959217
  entropy T*S    EENTRO =         0.00000000
  eigenvalues    EBANDS =     -1625.30312613
  atomic energy  EATOM  =     24304.10294433
  Solvation  Ediel_sol  =         0.00000000
  ---------------------------------------------------
  free energy    TOTEN  =      -115.89224324 eV

  energy without entropy =     -115.89224324  energy(sigma->0) =     -115.89224324


--------------------------------------------------------------------------------------------------------




--------------------------------------- Iteration      1(   7)  ---------------------------------------


    POTLOK:  cpu time      0.0359: real time      0.0450
    SETDIJ:  cpu time      0.0077: real time      0.0078
     EDDAV:  cpu time      7.1866: real time      7.2356
 BZINTS: Fermi energy:   10.574524;  156.000000 electrons
         Band energy:-0.155527E+04;  BLOECHL correction:   -0.029158
       DOS:  cpu time      0.1365: real time      0.1374
    CHARGE:  cpu time      0.1474: real time      0.1487
    MIXING:  cpu time      0.0023: real time      0.0023
    --------------------------------------------
      LOOP:  cpu time      7.5163: real time      7.5768

 eigenvalue-minimisations  : 52928
 total energy-change (2. order) : 0.4292839E+01  (-0.2717394E+02)
 number of electron     155.9999841 magnetization      11.0819245
 augmentation part       86.2922602 magnetization      10.4182683

 Broyden mixing:
  rms(total) = 0.68014E+01    rms(broyden)= 0.68009E+01
  rms(prec ) = 0.11669E+02
  weight for this iteration     100.00

 eigenvalues of (default mixing * dielectric matrix)
  average eigenvalue GAMMA=   0.3183
  0.5314  0.1051

 Free energy of the ion-electron system (eV)
  ---------------------------------------------------
  alpha Z        PSCENC =      1173.72503148
  Ewald energy   TEWEN  =    -18536.02390978
  -Hartree energ DENC   =     -5425.74879523
  -exchange      EXHF   =         0.00000000
  -V(xc)+E(xc)   XCENC  =       643.14811435
  PAW double counting   =     20977.80922139   -21693.33729248
  entropy T*S    EENTRO =         0.00000000
  eigenvalues    EBANDS =     -1555.27471874
  atomic energy  EATOM  =     24304.10294433
  Solvation  Ediel_sol  =         0.00000000
  ---------------------------------------------------
  free energy    TOTEN  =      -111.59940469 eV

  energy without entropy =     -111.59940469  energy(sigma->0) =     -111.59940469


--------------------------------------------------------------------------------------------------------




--------------------------------------- Iteration      1(   8)  ---------------------------------------


    POTLOK:  cpu time      0.0437: real time      0.0445
    SETDIJ:  cpu time      0.0084: real time      0.0084
     EDDAV:  cpu time      6.9944: real time      7.0419
 BZINTS: Fermi energy:   11.315692;  156.000000 electrons
         Band energy:-0.142482E+04;  BLOECHL correction:   -0.030856
       DOS:  cpu time      0.1365: real time      0.1375
    CHARGE:  cpu time      0.1485: real time      0.1495
    MIXING:  cpu time      0.0016: real time      0.0016
    --------------------------------------------
      LOOP:  cpu time      7.3331: real time      7.3835

 eigenvalue-minimisations  : 51904
 total energy-change (2. order) : 0.1516443E+02  (-0.1918417E+02)
 number of electron     155.9999917 magnetization      10.4882900
 augmentation part       83.2875494 magnetization       7.3452366

 Broyden mixing:
  rms(total) = 0.30566E+01    rms(broyden)= 0.30557E+01
  rms(prec ) = 0.46794E+01
  weight for this iteration     100.00

 eigenvalues of (default mixing * dielectric matrix)
  average eigenvalue GAMMA=   0.4872
  0.9801  0.3873  0.0941

 Free energy of the ion-electron system (eV)
  ---------------------------------------------------
  alpha Z        PSCENC =      1173.72503148
  Ewald energy   TEWEN  =    -18536.02390978
  -Hartree energ DENC   =     -5518.04912284
  -exchange      EXHF   =         0.00000000
  -V(xc)+E(xc)   XCENC  =       645.52882195
  PAW double counting   =     21578.71177514   -22319.61055216
  entropy T*S    EENTRO =         0.00000000
  eigenvalues    EBANDS =     -1424.81996590
  atomic energy  EATOM  =     24304.10294433
  Solvation  Ediel_sol  =         0.00000000
  ---------------------------------------------------
  free energy    TOTEN  =       -96.43497779 eV

  energy without entropy =      -96.43497779  energy(sigma->0) =      -96.43497779


--------------------------------------------------------------------------------------------------------




--------------------------------------- Iteration      1(   9)  ---------------------------------------


    POTLOK:  cpu time      0.0341: real time      0.0447
    SETDIJ:  cpu time      0.0087: real time      0.0087
     EDDAV:  cpu time      6.6375: real time      6.6842
 BZINTS: Fermi energy:   11.306927;  156.000000 electrons
         Band energy:-0.146888E+04;  BLOECHL correction:   -0.015682
       DOS:  cpu time      0.1357: real time      0.1367
    CHARGE:  cpu time      0.1486: real time      0.1495
    MIXING:  cpu time      0.0017: real time      0.0018
    --------------------------------------------
      LOOP:  cpu time      6.9663: real time      7.0256

 eigenvalue-minimisations  : 49920
 total energy-change (2. order) :-0.1187626E+02  (-0.1764027E+02)
 number of electron     155.9999929 magnetization      10.0085920
 augmentation part       84.1410326 magnetization       7.4654502

 Broyden mixing:
  rms(total) = 0.55314E+01    rms(broyden)= 0.55309E+01
  rms(prec ) = 0.74329E+01
  weight for this iteration     100.00

 eigenvalues of (default mixing * dielectric matrix)
  average eigenvalue GAMMA=   0.4947
  1.3270  0.4349  0.0890  0.1280

 Free energy of the ion-electron system (eV)
  ---------------------------------------------------
  alpha Z        PSCENC =      1173.72503148
  Ewald energy   TEWEN  =    -18536.02390978
  -Hartree energ DENC   =     -5479.24279901
  -exchange      EXHF   =         0.00000000
  -V(xc)+E(xc)   XCENC  =       643.80105801
  PAW double counting   =     21852.92121949   -22598.71954937
  entropy T*S    EENTRO =         0.00000000
  eigenvalues    EBANDS =     -1468.87523588
  atomic energy  EATOM  =     24304.10294433
  Solvation  Ediel_sol  =         0.00000000
  ---------------------------------------------------
  free energy    TOTEN  =      -108.31124074 eV

  energy without entropy =     -108.31124074  energy(sigma->0) =     -108.31124074


--------------------------------------------------------------------------------------------------------




--------------------------------------- Iteration      1(  10)  ---------------------------------------


    POTLOK:  cpu time      0.0366: real time      0.0455
    SETDIJ:  cpu time      0.0084: real time      0.0084
     EDDAV:  cpu time      6.4856: real time      6.5312
 BZINTS: Fermi energy:   10.724145;  156.000000 electrons
         Band energy:-0.148746E+04;  BLOECHL correction:   -0.030487
       DOS:  cpu time      0.1355: real time      0.1365
    CHARGE:  cpu time      0.1494: real time      0.1502
    MIXING:  cpu time      0.0017: real time      0.0018
    --------------------------------------------
      LOOP:  cpu time      6.8171: real time      6.8736

 eigenvalue-minimisations  : 49472
 total energy-change (2. order) : 0.1560971E+02  (-0.3489128E+01)
 number of electron     155.9999967 magnetization      10.0069241
 augmentation part       84.6677587 magnetization       7.3732601

 Broyden mixing:
  rms(total) = 0.19147E+01    rms(broyden)= 0.19138E+01
  rms(prec ) = 0.26540E+01
  weight for this iteration     100.00

 eigenvalues of (default mixing * dielectric matrix)
  average eigenvalue GAMMA=   0.4468
  1.2671  0.3993  0.3399  0.0905  0.1372

 Free energy of the ion-electron system (eV)
  ---------------------------------------------------
  alpha Z        PSCENC =      1173.72503148
  Ewald energy   TEWEN  =    -18536.02390978
  -Hartree energ DENC   =     -5439.92551117
  -exchange      EXHF   =         0.00000000
  -V(xc)+E(xc)   XCENC  =       642.18728204
  PAW double counting   =     22082.01470547   -22831.31954495
  entropy T*S    EENTRO =         0.00000000
  eigenvalues    EBANDS =     -1487.46252686
  atomic energy  EATOM  =     24304.10294433
  Solvation  Ediel_sol  =         0.00000000
  ---------------------------------------------------
  free energy    TOTEN  =       -92.70152944 eV

  energy without entropy =      -92.70152944  energy(sigma->0) =      -92.70152944


--------------------------------------------------------------------------------------------------------




--------------------------------------- Iteration      1(  11)  ---------------------------------------


    POTLOK:  cpu time      0.0354: real time      0.0447
    SETDIJ:  cpu time      0.0083: real time      0.0083
     EDDAV:  cpu time      6.8079: real time      6.8570
 BZINTS: Fermi energy:   10.825944;  156.000000 electrons
         Band energy:-0.148832E+04;  BLOECHL correction:   -0.034327
       DOS:  cpu time      0.1355: real time      0.1364
    CHARGE:  cpu time      0.2086: real time      0.2097
    MIXING:  cpu time      0.0017: real time      0.0018
    --------------------------------------------
      LOOP:  cpu time      7.1973: real time      7.2578

 eigenvalue-minimisations  : 51584
 total energy-change (2. order) :-0.1093489E+01  (-0.2369417E+01)
 number of electron     155.9999999 magnetization       9.8598373
 augmentation part       84.5691840 magnetization       8.0149780

 Broyden mixing:
  rms(total) = 0.26610E+01    rms(broyden)= 0.26606E+01
  rms(prec ) = 0.36778E+01
  weight for this iteration     100.00

 eigenvalues of (default mixing * dielectric matrix)
  average eigenvalue GAMMA=   0.4223
  1.2442  0.4847  0.4847  0.1394  0.0928  0.0880

 Free energy of the ion-electron system (eV)
  ---------------------------------------------------
  alpha Z        PSCENC =      1173.72503148
  Ewald energy   TEWEN  =    -18536.02390978
  -Hartree energ DENC   =     -5439.32380955
  -exchange      EXHF   =         0.00000000
  -V(xc)+E(xc)   XCENC  =       642.28023560
  PAW double counting   =     22100.03484301   -22850.27036300
  entropy T*S    EENTRO =         0.00000000
  eigenvalues    EBANDS =     -1488.31999094
  atomic energy  EATOM  =     24304.10294433
  Solvation  Ediel_sol  =         0.00000000
  ---------------------------------------------------
  free energy    TOTEN  =       -93.79501886 eV

  energy without entropy =      -93.79501886  energy(sigma->0) =      -93.79501886


--------------------------------------------------------------------------------------------------------




--------------------------------------- Iteration      1(  12)  ---------------------------------------


    POTLOK:  cpu time      0.0446: real time      0.0454
    SETDIJ:  cpu time      0.0074: real time      0.0075
     EDDAV:  cpu time      6.6137: real time      6.6605
 BZINTS: Fermi energy:   10.760431;  156.000000 electrons
         Band energy:-0.148280E+04;  BLOECHL correction:   -0.034710
       DOS:  cpu time      0.1360: real time      0.1370
    CHARGE:  cpu time      0.1493: real time      0.1501
    MIXING:  cpu time      0.0019: real time      0.0019
    --------------------------------------------
      LOOP:  cpu time      6.9530: real time      7.0023

 eigenvalue-minimisations  : 50624
 total energy-change (2. order) : 0.1748278E+01  (-0.2053726E+01)
 number of electron     155.9999952 magnetization       9.9701022
 augmentation part       84.4855299 magnetization       7.3804252

 Broyden mixing:
  rms(total) = 0.85250E+00    rms(broyden)= 0.85182E+00
  rms(prec ) = 0.10450E+01
  weight for this iteration     100.00

 eigenvalues of (default mixing * dielectric matrix)
  average eigenvalue GAMMA=   0.4640
  1.2385  0.6734  0.6734  0.3567  0.1324  0.0899  0.0838

 Free energy of the ion-electron system (eV)
  ---------------------------------------------------
  alpha Z        PSCENC =      1173.72503148
  Ewald energy   TEWEN  =    -18536.02390978
  -Hartree energ DENC   =     -5441.12138635
  -exchange      EXHF   =         0.00000000
  -V(xc)+E(xc)   XCENC  =       642.48406778
  PAW double counting   =     22139.27971600   -22891.69014137
  entropy T*S    EENTRO =         0.00000000
  eigenvalues    EBANDS =     -1482.80306333
  atomic energy  EATOM  =     24304.10294433
  Solvation  Ediel_sol  =         0.00000000
  ---------------------------------------------------
  free energy    TOTEN  =       -92.04674124 eV

  energy without entropy =      -92.04674124  energy(sigma->0) =      -92.04674124


--------------------------------------------------------------------------------------------------------




--------------------------------------- Iteration      1(  13)  ---------------------------------------


    POTLOK:  cpu time      0.0339: real time      0.0448
    SETDIJ:  cpu time      0.0084: real time      0.0084
     EDDAV:  cpu time      6.8393: real time      6.8873
 BZINTS: Fermi energy:   10.763019;  156.000000 electrons
         Band energy:-0.148404E+04;  BLOECHL correction:   -0.033915
       DOS:  cpu time      0.1360: real time      0.1370
    CHARGE:  cpu time      0.1476: real time      0.1485
    MIXING:  cpu time      0.0018: real time      0.0018
    --------------------------------------------
      LOOP:  cpu time      7.1670: real time      7.2278

 eigenvalue-minimisations  : 51680
 total energy-change (2. order) :-0.1720221E+00  (-0.7818477E-01)
 number of electron     155.9999922 magnetization      10.0881305
 augmentation part       84.5291391 magnetization       7.4203669

 Broyden mixing:
  rms(total) = 0.81216E+00    rms(broyden)= 0.81202E+00
  rms(prec ) = 0.94979E+00
  weight for this iteration     100.00

 eigenvalues of (default mixing * dielectric matrix)
  average eigenvalue GAMMA=   0.4332
  1.2729  0.6616  0.6616  0.3371  0.2254  0.1321  0.0899  0.0850

 Free energy of the ion-electron system (eV)
  ---------------------------------------------------
  alpha Z        PSCENC =      1173.72503148
  Ewald energy   TEWEN  =    -18536.02390978
  -Hartree energ DENC   =     -5439.62263267
  -exchange      EXHF   =         0.00000000
  -V(xc)+E(xc)   XCENC  =       642.72388949
  PAW double counting   =     22157.57599935   -22910.65837733
  entropy T*S    EENTRO =         0.00000000
  eigenvalues    EBANDS =     -1484.04170816
  atomic energy  EATOM  =     24304.10294433
  Solvation  Ediel_sol  =         0.00000000
  ---------------------------------------------------
  free energy    TOTEN  =       -92.21876331 eV

  energy without entropy =      -92.21876331  energy(sigma->0) =      -92.21876331


--------------------------------------------------------------------------------------------------------




--------------------------------------- Iteration      1(  14)  ---------------------------------------


[...]
    113      26.1490      0.00000
    114      26.4667      0.00000
    115      26.5520      0.00000
    116      26.9106      0.00000
    117      27.0267      0.00000
    118      27.7123      0.00000
    119      28.0102      0.00000
    120      28.6782      0.00000
    121      28.7297      0.00000
    122      28.7392      0.00000
    123      29.2672      0.00000
    124      30.3158      0.00000
    125      30.5084      0.00000
    126      30.7690      0.00000
    127      30.9086      0.00000
    128      31.5442      0.00000


--------------------------------------------------------------------------------------------------------


 soft charge-density along one line, spin component           1
         0         1         2         3         4         5         6         7         8         9
 total charge-density along one line
 
 soft charge-density along one line, spin component           2
         0         1         2         3         4         5         6         7         8         9
 total charge-density along one line
 
 pseudopotential strength for first ion, spin component:           1
-42.498   0.000   0.000   6.578  -0.000  -0.000   0.000   0.001
  0.000 -42.550   0.000  -0.000   6.600  -0.000  -0.000   0.000
  0.000   0.000 -42.471  -0.000  -0.000   6.568   0.000  -0.000
  6.578  -0.000  -0.000   5.906  -0.000  -0.000   0.000  -0.000
 -0.000   6.600  -0.000  -0.000   5.900  -0.000   0.000  -0.000
 -0.000  -0.000   6.568  -0.000  -0.000   5.907  -0.000   0.000
  0.000  -0.000   0.000   0.000   0.000  -0.000  -0.120   0.000
  0.001   0.000  -0.000  -0.000  -0.000   0.000   0.000  -0.147
 -0.000   0.001   0.000   0.000  -0.000  -0.000  -0.000   0.000
 -0.000  -0.000   0.001   0.000   0.000  -0.000   0.000   0.000
 -0.000   0.000   0.000   0.000  -0.000   0.000   0.000  -0.000
  0.000  -0.000   0.000   0.000   0.000  -0.000  -0.665   0.000
  0.001   0.000  -0.000  -0.000  -0.000   0.000   0.000  -0.691
 -0.000   0.001  -0.000   0.000  -0.000  -0.000  -0.000   0.000
 -0.000   0.000   0.001   0.000   0.000  -0.000   0.000   0.000
 -0.000   0.000  -0.000   0.000  -0.000   0.000   0.000  -0.000
 -0.000  -0.000   0.000  -0.000  -0.000   0.000  -0.000  -0.000
 -0.000  -0.000   0.000  -0.000  -0.000  -0.000  -0.000  -0.000
 pseudopotential strength for first ion, spin component:           2
-44.324   0.000   0.000   7.349  -0.000  -0.000   0.000   0.001
  0.000 -44.398   0.000  -0.000   7.378  -0.000  -0.000   0.000
  0.000   0.000 -44.223  -0.000  -0.000   7.307   0.000  -0.000
  7.349  -0.000  -0.000   5.690  -0.000  -0.000  -0.000  -0.000
 -0.000   7.378  -0.000  -0.000   5.684  -0.000   0.000  -0.000
 -0.000  -0.000   7.307  -0.000  -0.000   5.698  -0.000   0.000
  0.000  -0.000   0.000  -0.000   0.000  -0.000  -1.462   0.000
  0.001   0.000  -0.000  -0.000  -0.000   0.000   0.000  -1.619
 -0.000   0.001  -0.000   0.000  -0.000   0.000  -0.000   0.000
 -0.000   0.000   0.001   0.000  -0.000  -0.000   0.000   0.000
 -0.000   0.000   0.000   0.000  -0.000  -0.000   0.000  -0.000
  0.000  -0.000   0.000  -0.000   0.000  -0.000  -1.985   0.000
  0.001   0.000  -0.000  -0.000  -0.000   0.000   0.000  -2.139
 -0.000   0.001  -0.000   0.000  -0.000  -0.000  -0.000   0.000
 -0.000   0.000   0.001   0.000  -0.000  -0.000   0.000   0.000
 -0.000   0.000   0.000   0.000  -0.000  -0.000   0.000  -0.000
 -0.000  -0.000  -0.000  -0.000  -0.000  -0.000  -0.000  -0.000
 -0.000  -0.000  -0.000  -0.000  -0.000  -0.000  -0.000  -0.000
 total augmentation occupancy for first ion, spin component:           1
  1.992   0.000   0.000  -0.026   0.000   0.000   0.000   0.000   0.000   0.000   0.000   0.000  -0.000   0.000   0.000   0.000
  0.000   1.991   0.000  -0.000  -0.027   0.000   0.000   0.000  -0.000   0.000  -0.000   0.000   0.000  -0.000   0.000   0.000
  0.000   0.000   1.992   0.000   0.000  -0.027   0.000  -0.000  -0.000   0.000   0.000   0.000   0.000   0.000   0.000   0.000
 -0.026  -0.000   0.000   0.216  -0.000   0.000   0.000   0.000   0.000   0.000   0.000   0.000   0.000  -0.000   0.000   0.000
  0.000  -0.027   0.000  -0.000   0.211   0.000   0.000   0.000   0.000   0.000   0.000  -0.000  -0.000  -0.000   0.000  -0.000
  0.000   0.000  -0.027   0.000   0.000   0.178   0.000  -0.000   0.000   0.000  -0.000   0.000   0.000   0.000   0.000   0.000
  0.000   0.000   0.000   0.000   0.000   0.000   2.628   0.000   0.000   0.000   0.000  -1.479   0.000   0.000  -0.000   0.000
  0.000   0.000   0.000   0.000   0.000  -0.000   0.000   2.725  -0.000   0.000   0.000   0.000  -1.993  -0.000   0.000   0.000
  0.000  -0.000  -0.000   0.000   0.000   0.000   0.000  -0.000   3.218   0.000   0.306   0.000   0.000  -1.870   0.000  -0.256
  0.000   0.000   0.000   0.000   0.000   0.000   0.000   0.000   0.000   2.340  -0.000   0.000   0.000  -0.000  -1.361   0.000
  0.000  -0.000   0.000   0.000   0.000   0.000   0.000   0.000   0.306  -0.000   2.897   0.000   0.000  -0.250   0.000  -1.733
  0.000   0.000   0.000   0.000  -0.000   0.000  -1.479   0.000   0.000   0.000   0.000   1.784   0.000   0.000  -0.000  -0.000
 -0.000   0.000   0.000   0.000  -0.000   0.000   0.000  -1.993   0.000   0.000   0.000   0.000   2.536   0.000   0.000   0.000
  0.000  -0.000   0.000  -0.000  -0.000   0.000   0.000  -0.000  -1.870  -0.000  -0.250   0.000   0.000   1.898   0.000   0.162
  0.000   0.000   0.000   0.000   0.000   0.000  -0.000   0.000   0.000  -1.361   0.000  -0.000   0.000   0.000   1.641   0.000
  0.000   0.000   0.000   0.000  -0.000   0.000   0.000   0.000  -0.256   0.000  -1.733  -0.000   0.000   0.162   0.000   1.856
  0.000  -0.000  -0.000   0.000   0.000   0.000   0.000   0.000  -0.143   0.000   0.261   0.000   0.000   0.094   0.000  -0.238
  0.000   0.000   0.000   0.000   0.000   0.000   0.000   0.000   0.013   0.000  -0.012   0.000   0.000  -0.006   0.000   0.010
 total augmentation occupancy for first ion, spin component:           2
  0.002   0.000   0.000   0.007   0.000   0.000   0.000   0.000   0.000   0.000   0.000   0.000   0.000  -0.000   0.000  -0.000
  0.000   0.002  -0.000   0.000   0.006   0.000   0.000   0.000   0.000   0.000  -0.000   0.000   0.000   0.000   0.000  -0.000
  0.000  -0.000   0.002   0.000   0.000   0.007   0.000   0.000  -0.000  -0.000  -0.000  -0.000  -0.000   0.000   0.000   0.000
  0.007   0.000   0.000  -0.011   0.000   0.000   0.000  -0.000  -0.000   0.000  -0.000   0.000   0.000   0.000  -0.000   0.000
  0.000   0.006   0.000   0.000  -0.011   0.000  -0.000  -0.000   0.000   0.000  -0.000   0.000   0.000   0.000   0.000   0.000
  0.000   0.000   0.007   0.000   0.000  -0.012   0.000   0.000  -0.000  -0.000   0.000   0.000  -0.000   0.000   0.000  -0.000
  0.000   0.000   0.000   0.000  -0.000   0.000  -1.640   0.000   0.000   0.000   0.000   0.747   0.000   0.000   0.000   0.000
  0.000   0.000   0.000  -0.000  -0.000   0.000   0.000  -1.523  -0.000   0.000   0.000   0.000   0.477   0.000   0.000   0.000
  0.000   0.000  -0.000  -0.000   0.000  -0.000   0.000  -0.000  -2.063  -0.000  -0.254   0.000   0.000   0.910   0.000   0.103
  0.000   0.000  -0.000   0.000   0.000  -0.000   0.000   0.000  -0.000  -1.518   0.000  -0.000   0.000   0.000   0.361   0.000
  0.000  -0.000  -0.000  -0.000  -0.000   0.000   0.000   0.000  -0.254   0.000  -1.986   0.000   0.000   0.109   0.000   0.706
  0.000   0.000  -0.000   0.000   0.000   0.000   0.747   0.000   0.000  -0.000   0.000  -0.188   0.000   0.000   0.000   0.000
  0.000   0.000  -0.000   0.000   0.000  -0.000   0.000   0.477   0.000   0.000   0.000   0.000   0.113   0.000   0.000   0.000
 -0.000   0.000   0.000   0.000   0.000  -0.000   0.000   0.000   0.910   0.000   0.109   0.000   0.000  -0.288   0.000  -0.053
  0.000   0.000   0.000  -0.000   0.000   0.000   0.000   0.000   0.000   0.361   0.000   0.000   0.000   0.000   0.207   0.000
 -0.000  -0.000   0.000  -0.000   0.000  -0.000   0.000   0.000   0.103   0.000   0.706   0.000   0.000  -0.053   0.000  -0.046
  0.000   0.000   0.000   0.000  -0.000  -0.000   0.000   0.000  -0.024   0.000  -0.058   0.000   0.000  -0.008   0.000   0.023
  0.000   0.000   0.000   0.000   0.000   0.000   0.000   0.000  -0.006   0.000   0.002   0.000   0.000   0.001   0.000   0.000


------------------------ aborting loop because EDIFF is reached ----------------------------------------





 total charge

# of ion       s       p       d       tot
------------------------------------------
    1        0.371   6.379   6.073  12.823
    2        0.366   6.365   6.085  12.816
    3        0.366   6.365   6.085  12.816
    4        0.373   6.372   6.076  12.820
    5        0.373   6.372   6.076  12.820
    6        0.366   6.369   6.065  12.799
    7        0.371   6.379   6.073  12.823
    8        0.366   6.365   6.085  12.816
    9        0.366   6.365   6.085  12.816
   10        0.809   0.787   8.050   9.646
   11        0.809   0.787   8.050   9.646
   12        0.796   0.791   8.060   9.647
--------------------------------------------------
tot          5.734  59.695  78.861 144.290



 magnetization (x)

# of ion       s       p       d       tot
------------------------------------------
    1       -0.017  -0.021  -2.128  -2.167
    2        0.000  -0.013   2.457   2.444
    3        0.000  -0.013   2.457   2.444
    4        0.012   0.022   2.232   2.266
    5        0.012   0.022   2.232   2.266
    6       -0.002  -0.012   2.563   2.549
    7       -0.017  -0.021  -2.128  -2.167
    8        0.000  -0.013   2.457   2.444
    9        0.000  -0.013   2.457   2.444
   10       -0.011  -0.022   0.065   0.032
   11       -0.011  -0.022   0.065   0.032
   12       -0.039  -0.106   0.412   0.266
--------------------------------------------------
tot         -0.073  -0.212  13.140  12.855
 
    CHARGE:  cpu time      0.1498: real time      0.1509
    FORLOC:  cpu time      0.0022: real time      0.0024
    FORNL :  cpu time      0.6821: real time      0.6858
    STRESS:  cpu time      4.1397: real time      4.1738
    FORCOR:  cpu time      0.0206: real time      0.0207
    FORHAR:  cpu time      0.0031: real time      0.0031
    MIXING:  cpu time      0.0140: real time      0.0141
    OFIELD:  cpu time      0.0006: real time      0.0006

  FORCE on cell =-STRESS in cart. coord.  units (eV):
  Direction    XX          YY          ZZ          XY          YZ          ZX
  --------------------------------------------------------------------------------------
  Alpha Z  1173.72503  1173.72503  1173.72503
  Ewald   -6175.05023 -6175.05378 -6185.94240    -0.00000     0.00000    -0.00000
  Hartree  1813.70715  1813.72761  1802.08122    -0.00000    -0.00000    -0.00000
  E(xc)    -945.44031  -945.44054  -945.38692     0.00000    -0.00000     0.00000
  Local    1201.99857  1201.93535  1230.42997    -0.00000     0.00000    -0.00000
  n-local  -200.88951  -213.82463  -207.41062    15.38069     0.19187     0.26467
  augment  1437.58897  1437.61680  1433.93949     0.00000    -0.00000     0.00000
  Kinetic  1720.51223  1700.66037  1708.29628     4.34062    -0.12145    -0.34447
  Fock        0.00000     0.00000     0.00000     0.00000     0.00000     0.00000
  -------------------------------------------------------------------------------------
  Total       9.74914     9.74942     9.73206     0.00000     0.00000     0.00000
  in kB     107.72313   107.72617   107.53436     0.00000     0.00000     0.00000
  external pressure =      107.66 kB  Pullay stress =        0.00 kB


 VOLUME and BASIS-vectors are now :
 -----------------------------------------------------------------------------
  energy-cutoff  :      520.00
  volume of cell :      145.00
      direct lattice vectors                 reciprocal lattice vectors
     3.635115342  0.000000000  0.000000000     0.275094435  0.000000000  0.000000000
     0.000000000  3.635166704  0.000000000     0.000000000  0.275090548  0.000000000
     0.000000000  0.000000000 10.973002417     0.000000000  0.000000000  0.091132760

  length of vectors
     3.635115342  3.635166704 10.973002417     0.275094435  0.275090548  0.091132760


 FORCES acting on ions
    electron-ion (+dipol)            ewald-force                    non-local-force                 convergence-correction
 -----------------------------------------------------------------------------------------------
   -.795E-13 0.901E-12 -.101E+00   0.273E-13 0.182E-13 0.170E+00   -.103E-20 -.369E-20 0.115E-17   0.140E-12 0.281E-13 -.438E-02
   -.774E-13 0.182E-11 -.232E+02   -.285E-13 -.921E-14 0.235E+02   0.449E-18 -.622E-19 -.450E+00   0.141E-12 0.975E-14 0.462E-02
   -.813E-13 0.810E-12 0.232E+02   -.834E-14 -.252E-13 -.236E+02   -.301E-18 0.116E-20 0.450E+00   0.146E-12 0.535E-13 -.282E-03
   0.106E-11 0.605E-12 -.377E+02   -.573E-13 0.247E-13 0.357E+02   -.135E-19 -.314E-19 0.186E+01   -.144E-12 -.529E-13 -.125E-01
   0.106E-11 -.486E-11 0.376E+02   0.174E-13 -.335E-14 -.358E+02   0.644E-20 -.434E-19 -.186E+01   -.181E-12 -.978E-14 0.850E-02
   0.106E-11 -.354E-11 -.514E-01   0.364E-13 0.453E-14 0.389E-02   0.212E-22 0.213E-20 -.131E-17   -.177E-12 -.516E-13 0.424E-02
   0.104E-11 -.548E-13 -.101E+00   0.978E-14 -.107E-13 0.170E+00   0.216E-20 0.680E-22 -.380E-17   -.147E-12 -.887E-14 -.438E-02
   0.105E-11 -.353E-12 -.232E+02   0.482E-13 0.724E-14 0.235E+02   -.171E-19 0.468E-18 -.450E+00   -.120E-12 0.115E-13 0.461E-02
   0.104E-11 -.187E-12 0.231E+02   0.507E-13 0.527E-13 -.237E+02   -.133E-18 -.601E-18 0.450E+00   -.147E-12 -.967E-14 -.277E-03
   -.403E-13 -.180E-13 0.138E+02   0.562E-14 -.483E-14 -.138E+02   0.552E-18 -.600E-18 -.346E-01   0.754E-13 0.114E-13 -.896E-02
   -.483E-13 -.712E-13 -.138E+02   -.317E-13 -.313E-14 0.138E+02   -.405E-19 -.404E-18 0.346E-01   0.905E-13 -.533E-14 0.588E-02
   -.411E-13 -.408E-13 -.127E-01   -.222E-14 -.190E-13 -.370E-01   0.154E-20 0.387E-21 0.352E-18   0.821E-13 0.240E-14 0.295E-02
 -----------------------------------------------------------------------------------------------
   0.593E-11 -.499E-11 -.496E+00   0.675E-13 0.319E-13 -.213E-12   0.505E-18 -.127E-17 0.111E-15   -.241E-12 -.215E-13 -.227E-04
 
 
 POSITION                                       TOTAL-FORCE (eV/Angst)
 -----------------------------------------------------------------------------------
      0.00000      1.81758      1.82876        -0.000000     -0.000000     -0.000000
      0.00000      1.81758      5.47574        -0.000000      0.000000     -0.007521
      0.00000      1.81758      9.15499        -0.000000      0.000000      0.007521
      1.81756      1.81758     10.92998        -0.000000     -0.000000     -0.010338
      1.81756      1.81758      3.70084         0.000000      0.000000      0.010338
      1.81756      1.81758      7.31531         0.000000     -0.000000      0.000000
      1.81756      0.00000      1.82876         0.000000     -0.000000     -0.000000
      1.81756      0.00000      5.47564        -0.000000     -0.000000     -0.007521
      1.81756      0.00000      9.15509         0.000000      0.000000      0.007521
      0.00000      0.00000      0.04452        -0.000000     -0.000000     -0.036109
      0.00000      0.00000      3.61299        -0.000000     -0.000000      0.036109
      0.00000      0.00000      7.31539        -0.000000     -0.000000      0.000000
 -----------------------------------------------------------------------------------
    total drift:                                0.000000     -0.000000     -0.496247


--------------------------------------------------------------------------------------------------------



  FREE ENERGIE OF THE ION-ELECTRON SYSTEM (eV)
  ---------------------------------------------------
  free  energy   TOTEN  =       -93.00594580 eV

  energy  without entropy=      -93.00594580  energy(sigma->0) =      -93.00594580
 


--------------------------------------------------------------------------------------------------------


    POTLOK:  cpu time      0.0390: real time      0.0394


--------------------------------------------------------------------------------------------------------


     LOOP+:  cpu time    211.2409: real time    213.3150
 -----------------------------------------------------------------------------
|                                                                             |
|           W    W    AA    RRRRR   N    N  II  N    N   GGGG   !!!           |
|           W    W   A  A   R    R  NN   N  II  NN   N  G    G  !!!           |
|           W    W  A    A  R    R  N N  N  II  N N  N  G       !!!           |
|           W WW W  AAAAAA  RRRRR   N  N N  II  N  N N  G  GGG   !            |
|           WW  WW  A    A  R   R   N   NN  II  N   NN  G    G                |
|           W    W  A    A  R    R  N    N  II  N    N   GGGG   !!!           |
|                                                                             |
|     Tetrahedron method does not include variations of the Fermi             |
|     occupations, so forces and stress will be inaccurate. We suggest        |
|     using a different smearing scheme ISMEAR = 1 or 2 for metals in         |
|     relaxations.                                                            |
|                                                                             |
 -----------------------------------------------------------------------------

    4ORBIT:  cpu time      0.0000: real time      0.0000



 total charge

# of ion       s       p       d       tot
------------------------------------------
    1        0.371   6.379   6.073  12.823
    2        0.366   6.365   6.085  12.816
    3        0.366   6.365   6.085  12.816
    4        0.373   6.372   6.076  12.820
    5        0.373   6.372   6.076  12.820
    6        0.366   6.369   6.065  12.799
    7        0.371   6.379   6.073  12.823
    8        0.366   6.365   6.085  12.816
    9        0.366   6.365   6.085  12.816
   10        0.809   0.787   8.050   9.646
   11        0.809   0.787   8.050   9.646
   12        0.796   0.791   8.060   9.647
--------------------------------------------------
tot          5.734  59.695  78.861 144.290



 magnetization (x)

# of ion       s       p       d       tot
------------------------------------------
    1       -0.017  -0.021  -2.128  -2.167
    2        0.000  -0.013   2.457   2.444
    3        0.000  -0.013   2.457   2.444
    4        0.012   0.022   2.232   2.266
    5        0.012   0.022   2.232   2.266
    6       -0.002  -0.012   2.563   2.549
    7       -0.017  -0.021  -2.128  -2.167
    8        0.000  -0.013   2.457   2.444
    9        0.000  -0.013   2.457   2.444
   10       -0.011  -0.022   0.065   0.032
   11       -0.011  -0.022   0.065   0.032
   12       -0.039  -0.106   0.412   0.266
--------------------------------------------------
tot         -0.073  -0.212  13.140  12.855
 
 BZINTS: Fermi energy:   10.842179;  156.000000 electrons
         Band energy:-0.148808E+04;  BLOECHL correction:   -0.036441

 total amount of memory used by VASP MPI-rank0   179901. kBytes
=======================================================================

   base      :      30000. kBytes
   nonl-proj :      96755. kBytes
   fftplans  :        888. kBytes
   grid      :       6813. kBytes
   one-center:        373. kBytes
   wavefun   :      45072. kBytes
 
  
  
 General timing and accounting informations for this job:
 ========================================================
  
                  Total CPU time used (sec):      229.586
                            User time (sec):      221.387
                          System time (sec):        8.199
                         Elapsed time (sec):      237.805
  
                   Maximum memory used (kb):      837320.
                   Average memory used (kb):          N/A
  
                          Minor page faults:       194394
                          Major page faults:          112
                 Voluntary context switches:         8621
