  16  16   1   0
  0.1862500E+02  0.7132130E-09  0.6827757E-09  0.6587382E-09  0.5000000E-15
  1.000000000000000E-004
  CAR 
 unknown system                          
      9.92071223    -52.34662845  301      3.91616680      1.00000000
    -52.347  0.0000E+00  0.0000E+00  0.0000E+00  0.0000E+00
    -52.139  0.0000E+00  0.0000E+00  0.0000E+00  0.0000E+00
    -51.932  0.0000E+00  0.0000E+00  0.0000E+00  0.0000E+00
    -51.724  0.0000E+00  0.0000E+00  0.0000E+00  0.0000E+00
    -51.516  0.0000E+00  0.0000E+00  0.0000E+00  0.0000E+00
    -51.309  0.0000E+00  0.0000E+00  0.0000E+00  0.0000E+00
    -51.101  0.0000E+00  0.0000E+00  0.0000E+00  0.0000E+00
    -50.894  0.0000E+00  0.0000E+00  0.0000E+00  0.0000E+00
    -50.686  0.0000E+00  0.0000E+00  0.0000E+00  0.0000E+00
    -50.479  0.0000E+00  0.0000E+00  0.0000E+00  0.0000E+00
    -50.271  0.0000E+00  0.0000E+00  0.0000E+00  0.0000E+00
    -50.063  0.0000E+00  0.0000E+00  0.0000E+00  0.0000E+00
    -49.856  0.0000E+00  0.0000E+00  0.0000E+00  0.0000E+00
    -49.648  0.0000E+00  0.0000E+00  0.0000E+00  0.0000E+00
    -49.441  0.1927E+02  0.1927E+02  0.4000E+01  0.4000E+01
    -49.233  0.0000E+00  0.0000E+00  0.4000E+01  0.4000E+01
    -49.026  0.1175E+03  0.1175E+03  0.1188E+02  0.1188E+02
    -48.818  0.8596E+02  0.8596E+02  0.2230E+02  0.2230E+02
    -48.611  0.7276E+01  0.7276E+01  0.2400E+02  0.2400E+02
    -48.403  0.0000E+00  0.0000E+00  0.2400E+02  0.2400E+02
    -48.195  0.0000E+00  0.0000E+00  0.2400E+02  0.2400E+02
    -47.988  0.0000E+00  0.0000E+00  0.2400E+02  0.2400E+02
    -47.780  0.0000E+00  0.0000E+00  0.2400E+02  0.2400E+02
    -47.573  0.0000E+00  0.0000E+00  0.2400E+02  0.2400E+02
    -47.365  0.0000E+00  0.0000E+00  0.2400E+02  0.2400E+02
    -47.158  0.0000E+00  0.0000E+00  0.2400E+02  0.2400E+02
    -46.950  0.0000E+00  0.0000E+00  0.2400E+02  0.2400E+02
    -46.743  0.0000E+00  0.0000E+00  0.2400E+02  0.2400E+02
    -46.535  0.0000E+00  0.0000E+00  0.2400E+02  0.2400E+02
    -46.327  0.0000E+00  0.0000E+00  0.2400E+02  0.2400E+02
    -46.120  0.0000E+00  0.0000E+00  0.2400E+02  0.2400E+02
    -45.912  0.0000E+00  0.0000E+00  0.2400E+02  0.2400E+02
    -45.705  0.0000E+00  0.0000E+00  0.2400E+02  0.2400E+02
    -45.497  0.0000E+00  0.0000E+00  0.2400E+02  0.2400E+02
    -45.290  0.0000E+00  0.0000E+00  0.2400E+02  0.2400E+02
    -45.082  0.0000E+00  0.0000E+00  0.2400E+02  0.2400E+02
    -44.875  0.0000E+00  0.0000E+00  0.2400E+02  0.2400E+02
    -44.667  0.0000E+00  0.0000E+00  0.2400E+02  0.2400E+02
    -44.459  0.0000E+00  0.0000E+00  0.2400E+02  0.2400E+02
    -44.252  0.0000E+00  0.0000E+00  0.2400E+02  0.2400E+02
    -44.044  0.0000E+00  0.0000E+00  0.2400E+02  0.2400E+02
    -43.837  0.0000E+00  0.0000E+00  0.2400E+02  0.2400E+02
    -43.629  0.0000E+00  0.0000E+00  0.2400E+02  0.2400E+02
    -43.422  0.0000E+00  0.0000E+00  0.2400E+02  0.2400E+02
    -43.214  0.0000E+00  0.0000E+00  0.2400E+02  0.2400E+02
    -43.007  0.0000E+00  0.0000E+00  0.2400E+02  0.2400E+02
    -42.799  0.0000E+00  0.0000E+00  0.2400E+02  0.2400E+02
    -42.591  0.0000E+00  0.0000E+00  0.2400E+02  0.2400E+02
    -42.384  0.0000E+00  0.0000E+00  0.2400E+02  0.2400E+02
    -42.176  0.0000E+00  0.0000E+00  0.2400E+02  0.2400E+02
    -41.969  0.0000E+00  0.0000E+00  0.2400E+02  0.2400E+02
    -41.761  0.0000E+00  0.0000E+00  0.2400E+02  0.2400E+02
    -41.554  0.0000E+00  0.0000E+00  0.2400E+02  0.2400E+02
    -41.346  0.0000E+00  0.0000E+00  0.2400E+02  0.2400E+02
    -41.139  0.0000E+00  0.0000E+00  0.2400E+02  0.2400E+02
    -40.931  0.0000E+00  0.0000E+00  0.2400E+02  0.2400E+02
    -40.723  0.0000E+00  0.0000E+00  0.2400E+02  0.2400E+02
    -40.516  0.0000E+00  0.0000E+00  0.2400E+02  0.2400E+02
    -40.308  0.0000E+00  0.0000E+00  0.2400E+02  0.2400E+02
    -40.101  0.0000E+00  0.0000E+00  0.2400E+02  0.2400E+02
    -39.893  0.0000E+00  0.0000E+00  0.2400E+02  0.2400E+02
    -39.686  0.0000E+00  0.0000E+00  0.2400E+02  0.2400E+02
    -39.478  0.0000E+00  0.0000E+00  0.2400E+02  0.2400E+02
    -39.270  0.0000E+00  0.0000E+00  0.2400E+02  0.2400E+02
    -39.063  0.0000E+00  0.0000E+00  0.2400E+02  0.2400E+02
    -38.855  0.0000E+00  0.0000E+00  0.2400E+02  0.2400E+02
    -38.648  0.0000E+00  0.0000E+00  0.2400E+02  0.2400E+02
    -38.440  0.0000E+00  0.0000E+00  0.2400E+02  0.2400E+02
    -38.233  0.0000E+00  0.0000E+00  0.2400E+02  0.2400E+02
    -38.025  0.0000E+00  0.0000E+00  0.2400E+02  0.2400E+02
    -37.818  0.0000E+00  0.0000E+00  0.2400E+02  0.2400E+02
    -37.610  0.0000E+00  0.0000E+00  0.2400E+02  0.2400E+02
    -37.402  0.0000E+00  0.0000E+00  0.2400E+02  0.2400E+02
    -37.195  0.0000E+00  0.0000E+00  0.2400E+02  0.2400E+02
    -36.987  0.0000E+00  0.0000E+00  0.2400E+02  0.2400E+02
    -36.780  0.0000E+00  0.0000E+00  0.2400E+02  0.2400E+02
    -36.572  0.0000E+00  0.0000E+00  0.2400E+02  0.2400E+02
    -36.365  0.0000E+00  0.0000E+00  0.2400E+02  0.2400E+02
    -36.157  0.0000E+00  0.0000E+00  0.2400E+02  0.2400E+02
    -35.950  0.0000E+00  0.0000E+00  0.2400E+02  0.2400E+02
    -35.742  0.0000E+00  0.0000E+00  0.2400E+02  0.2400E+02
    -35.534  0.0000E+00  0.0000E+00  0.2400E+02  0.2400E+02
    -35.327  0.0000E+00  0.0000E+00  0.2400E+02  0.2400E+02
    -35.119  0.0000E+00  0.0000E+00  0.2400E+02  0.2400E+02
    -34.912  0.0000E+00  0.0000E+00  0.2400E+02  0.2400E+02
    -34.704  0.0000E+00  0.0000E+00  0.2400E+02  0.2400E+02
    -34.497  0.0000E+00  0.0000E+00  0.2400E+02  0.2400E+02
    -34.289  0.0000E+00  0.0000E+00  0.2400E+02  0.2400E+02
    -34.082  0.0000E+00  0.0000E+00  0.2400E+02  0.2400E+02
    -33.874  0.0000E+00  0.0000E+00  0.2400E+02  0.2400E+02
    -33.666  0.0000E+00  0.0000E+00  0.2400E+02  0.2400E+02
    -33.459  0.0000E+00  0.0000E+00  0.2400E+02  0.2400E+02
    -33.251  0.0000E+00  0.0000E+00  0.2400E+02  0.2400E+02
    -33.044  0.0000E+00  0.0000E+00  0.2400E+02  0.2400E+02
    -32.836  0.0000E+00  0.0000E+00  0.2400E+02  0.2400E+02
    -32.629  0.0000E+00  0.0000E+00  0.2400E+02  0.2400E+02
    -32.421  0.0000E+00  0.0000E+00  0.2400E+02  0.2400E+02
    -32.214  0.0000E+00  0.0000E+00  0.2400E+02  0.2400E+02
    -32.006  0.0000E+00  0.0000E+00  0.2400E+02  0.2400E+02
    -31.798  0.0000E+00  0.0000E+00  0.2400E+02  0.2400E+02
    -31.591  0.0000E+00  0.0000E+00  0.2400E+02  0.2400E+02
    -31.383  0.0000E+00  0.0000E+00  0.2400E+02  0.2400E+02
    -31.176  0.0000E+00  0.0000E+00  0.2400E+02  0.2400E+02
    -30.968  0.0000E+00  0.0000E+00  0.2400E+02  0.2400E+02
    -30.761  0.0000E+00  0.0000E+00  0.2400E+02  0.2400E+02
    -30.553  0.0000E+00  0.0000E+00  0.2400E+02  0.2400E+02
    -30.346  0.0000E+00  0.0000E+00  0.2400E+02  0.2400E+02
    -30.138  0.0000E+00  0.0000E+00  0.2400E+02  0.2400E+02
    -29.930  0.0000E+00  0.0000E+00  0.2400E+02  0.2400E+02
    -29.723  0.0000E+00  0.0000E+00  0.2400E+02  0.2400E+02
    -29.515  0.0000E+00  0.0000E+00  0.2400E+02  0.2400E+02
    -29.308  0.0000E+00  0.0000E+00  0.2400E+02  0.2400E+02
    -29.100  0.0000E+00  0.0000E+00  0.2400E+02  0.2400E+02
    -28.893  0.0000E+00  0.0000E+00  0.2400E+02  0.2400E+02
    -28.685  0.0000E+00  0.0000E+00  0.2400E+02  0.2400E+02
    -28.477  0.0000E+00  0.0000E+00  0.2400E+02  0.2400E+02
    -28.270  0.0000E+00  0.0000E+00  0.2400E+02  0.2400E+02
    -28.062  0.0000E+00  0.0000E+00  0.2400E+02  0.2400E+02
    -27.855  0.0000E+00  0.0000E+00  0.2400E+02  0.2400E+02
    -27.647  0.0000E+00  0.0000E+00  0.2400E+02  0.2400E+02
    -27.440  0.0000E+00  0.0000E+00  0.2400E+02  0.2400E+02
    -27.232  0.0000E+00  0.0000E+00  0.2400E+02  0.2400E+02
    -27.025  0.0000E+00  0.0000E+00  0.2400E+02  0.2400E+02
    -26.817  0.0000E+00  0.0000E+00  0.2400E+02  0.2400E+02
    -26.609  0.0000E+00  0.0000E+00  0.2400E+02  0.2400E+02
    -26.402  0.0000E+00  0.0000E+00  0.2400E+02  0.2400E+02
    -26.194  0.0000E+00  0.0000E+00  0.2400E+02  0.2400E+02
    -25.987  0.0000E+00  0.0000E+00  0.2400E+02  0.2400E+02
    -25.779  0.0000E+00  0.0000E+00  0.2400E+02  0.2400E+02
    -25.572  0.0000E+00  0.0000E+00  0.2400E+02  0.2400E+02
    -25.364  0.0000E+00  0.0000E+00  0.2400E+02  0.2400E+02
    -25.157  0.0000E+00  0.0000E+00  0.2400E+02  0.2400E+02
    -24.949  0.0000E+00  0.0000E+00  0.2400E+02  0.2400E+02
    -24.741  0.0000E+00  0.0000E+00  0.2400E+02  0.2400E+02
    -24.534  0.0000E+00  0.0000E+00  0.2400E+02  0.2400E+02
    -24.326  0.0000E+00  0.0000E+00  0.2400E+02  0.2400E+02
    -24.119  0.0000E+00  0.0000E+00  0.2400E+02  0.2400E+02
    -23.911  0.0000E+00  0.0000E+00  0.2400E+02  0.2400E+02
    -23.704  0.0000E+00  0.0000E+00  0.2400E+02  0.2400E+02
    -23.496  0.0000E+00  0.0000E+00  0.2400E+02  0.2400E+02
    -23.289  0.0000E+00  0.0000E+00  0.2400E+02  0.2400E+02
    -23.081  0.0000E+00  0.0000E+00  0.2400E+02  0.2400E+02
    -22.873  0.0000E+00  0.0000E+00  0.2400E+02  0.2400E+02
    -22.666  0.0000E+00  0.0000E+00  0.2400E+02  0.2400E+02
    -22.458  0.0000E+00  0.0000E+00  0.2400E+02  0.2400E+02
    -22.251  0.0000E+00  0.0000E+00  0.2400E+02  0.2400E+02
    -22.043  0.0000E+00  0.0000E+00  0.2400E+02  0.2400E+02
    -21.836  0.0000E+00  0.0000E+00  0.2400E+02  0.2400E+02
    -21.628  0.0000E+00  0.0000E+00  0.2400E+02  0.2400E+02
    -21.421  0.0000E+00  0.0000E+00  0.2400E+02  0.2400E+02
    -21.213  0.0000E+00  0.0000E+00  0.2400E+02  0.2400E+02
    -21.005  0.0000E+00  0.0000E+00  0.2400E+02  0.2400E+02
    -20.798  0.0000E+00  0.0000E+00  0.2400E+02  0.2400E+02
    -20.590  0.0000E+00  0.0000E+00  0.2400E+02  0.2400E+02
    -20.383  0.0000E+00  0.0000E+00  0.2400E+02  0.2400E+02
    -20.175  0.0000E+00  0.0000E+00  0.2400E+02  0.2400E+02
    -19.968  0.0000E+00  0.0000E+00  0.2400E+02  0.2400E+02
    -19.760  0.0000E+00  0.0000E+00  0.2400E+02  0.2400E+02
    -19.552  0.0000E+00  0.0000E+00  0.2400E+02  0.2400E+02
    -19.345  0.0000E+00  0.0000E+00  0.2400E+02  0.2400E+02
    -19.137  0.0000E+00  0.0000E+00  0.2400E+02  0.2400E+02
    -18.930  0.0000E+00  0.0000E+00  0.2400E+02  0.2400E+02
    -18.722  0.0000E+00  0.0000E+00  0.2400E+02  0.2400E+02
    -18.515  0.0000E+00  0.0000E+00  0.2400E+02  0.2400E+02
    -18.307  0.0000E+00  0.0000E+00  0.2400E+02  0.2400E+02
    -18.100  0.0000E+00  0.0000E+00  0.2400E+02  0.2400E+02
    -17.892  0.0000E+00  0.0000E+00  0.2400E+02  0.2400E+02
    -17.684  0.0000E+00  0.0000E+00  0.2400E+02  0.2400E+02
    -17.477  0.0000E+00  0.0000E+00  0.2400E+02  0.2400E+02
    -17.269  0.0000E+00  0.0000E+00  0.2400E+02  0.2400E+02
    -17.062  0.0000E+00  0.0000E+00  0.2400E+02  0.2400E+02
    -16.854  0.0000E+00  0.0000E+00  0.2400E+02  0.2400E+02
    -16.647  0.0000E+00  0.0000E+00  0.2400E+02  0.2400E+02
    -16.439  0.0000E+00  0.0000E+00  0.2400E+02  0.2400E+02
    -16.232  0.0000E+00  0.0000E+00  0.2400E+02  0.2400E+02
    -16.024  0.0000E+00  0.0000E+00  0.2400E+02  0.2400E+02
    -15.816  0.0000E+00  0.0000E+00  0.2400E+02  0.2400E+02
    -15.609  0.0000E+00  0.0000E+00  0.2400E+02  0.2400E+02
    -15.401  0.0000E+00  0.0000E+00  0.2400E+02  0.2400E+02
    -15.194  0.0000E+00  0.0000E+00  0.2400E+02  0.2400E+02
    -14.986  0.0000E+00  0.0000E+00  0.2400E+02  0.2400E+02
    -14.779  0.0000E+00  0.0000E+00  0.2400E+02  0.2400E+02
    -14.571  0.0000E+00  0.0000E+00  0.2400E+02  0.2400E+02
    -14.364  0.0000E+00  0.0000E+00  0.2400E+02  0.2400E+02
    -14.156  0.0000E+00  0.0000E+00  0.2400E+02  0.2400E+02
    -13.948  0.0000E+00  0.0000E+00  0.2400E+02  0.2400E+02
    -13.741  0.0000E+00  0.0000E+00  0.2400E+02  0.2400E+02
    -13.533  0.0000E+00  0.0000E+00  0.2400E+02  0.2400E+02
    -13.326  0.0000E+00  0.0000E+00  0.2400E+02  0.2400E+02
    -13.118  0.0000E+00  0.0000E+00  0.2400E+02  0.2400E+02
    -12.911  0.0000E+00  0.0000E+00  0.2400E+02  0.2400E+02
    -12.703  0.0000E+00  0.0000E+00  0.2400E+02  0.2400E+02
    -12.496  0.0000E+00  0.0000E+00  0.2400E+02  0.2400E+02
    -12.288  0.0000E+00  0.0000E+00  0.2400E+02  0.2400E+02
    -12.080  0.0000E+00  0.0000E+00  0.2400E+02  0.2400E+02
    -11.873  0.0000E+00  0.0000E+00  0.2400E+02  0.2400E+02
    -11.665  0.0000E+00  0.0000E+00  0.2400E+02  0.2400E+02
    -11.458  0.0000E+00  0.0000E+00  0.2400E+02  0.2400E+02
    -11.250  0.0000E+00  0.0000E+00  0.2400E+02  0.2400E+02
    -11.043  0.0000E+00  0.0000E+00  0.2400E+02  0.2400E+02
    -10.835  0.6720E+00  0.6720E+00  0.2402E+02  0.2402E+02
    -10.628  0.2459E+01  0.2459E+01  0.2428E+02  0.2428E+02
    -10.420  0.2642E+01  0.2642E+01  0.2474E+02  0.2474E+02
    -10.212  0.3604E+01  0.3604E+01  0.2527E+02  0.2527E+02
    -10.005  0.5131E+01  0.5131E+01  0.2601E+02  0.2601E+02
     -9.797  0.5489E+01  0.5489E+01  0.2693E+02  0.2693E+02
     -9.590  0.5651E+01  0.5651E+01  0.2759E+02  0.2759E+02
     -9.382  0.6886E+01  0.6886E+01  0.2848E+02  0.2848E+02
     -9.175  0.1527E+02  0.1527E+02  0.2998E+02  0.2998E+02
     -8.967  0.1344E+02  0.1344E+02  0.3195E+02  0.3195E+02
     -8.759  0.6919E-01  0.6919E-01  0.3200E+02  0.3200E+02
     -8.552  0.0000E+00  0.0000E+00  0.3200E+02  0.3200E+02
     -8.344  0.0000E+00  0.0000E+00  0.3200E+02  0.3200E+02
     -8.137  0.0000E+00  0.0000E+00  0.3200E+02  0.3200E+02
     -7.929  0.0000E+00  0.0000E+00  0.3200E+02  0.3200E+02
     -7.722  0.0000E+00  0.0000E+00  0.3200E+02  0.3200E+02
     -7.514  0.0000E+00  0.0000E+00  0.3200E+02  0.3200E+02
     -7.307  0.0000E+00  0.0000E+00  0.3200E+02  0.3200E+02
     -7.099  0.0000E+00  0.0000E+00  0.3200E+02  0.3200E+02
     -6.891  0.0000E+00  0.0000E+00  0.3200E+02  0.3200E+02
     -6.684  0.0000E+00  0.0000E+00  0.3200E+02  0.3200E+02
     -6.476  0.0000E+00  0.0000E+00  0.3200E+02  0.3200E+02
     -6.269  0.0000E+00  0.0000E+00  0.3200E+02  0.3200E+02
     -6.061  0.0000E+00  0.0000E+00  0.3200E+02  0.3200E+02
     -5.854  0.0000E+00  0.0000E+00  0.3200E+02  0.3200E+02
     -5.646  0.0000E+00  0.0000E+00  0.3200E+02  0.3200E+02
     -5.439  0.0000E+00  0.0000E+00  0.3200E+02  0.3200E+02
     -5.231  0.0000E+00  0.0000E+00  0.3200E+02  0.3200E+02
     -5.023  0.0000E+00  0.0000E+00  0.3200E+02  0.3200E+02
     -4.816  0.0000E+00  0.0000E+00  0.3200E+02  0.3200E+02
     -4.608  0.0000E+00  0.0000E+00  0.3200E+02  0.3200E+02
     -4.401  0.0000E+00  0.0000E+00  0.3200E+02  0.3200E+02
     -4.193  0.0000E+00  0.0000E+00  0.3200E+02  0.3200E+02
     -3.986  0.0000E+00  0.0000E+00  0.3200E+02  0.3200E+02
     -3.778  0.0000E+00  0.0000E+00  0.3200E+02  0.3200E+02
     -3.571  0.0000E+00  0.0000E+00  0.3200E+02  0.3200E+02
     -3.363  0.0000E+00  0.0000E+00  0.3200E+02  0.3200E+02
     -3.155  0.0000E+00  0.0000E+00  0.3200E+02  0.3200E+02
     -2.948  0.0000E+00  0.0000E+00  0.3200E+02  0.3200E+02
     -2.740  0.3690E+00  0.3690E+00  0.3203E+02  0.3203E+02
     -2.533  0.5909E+00  0.5909E+00  0.3212E+02  0.3212E+02
     -2.325  0.9336E+00  0.9336E+00  0.3228E+02  0.3228E+02
     -2.118  0.3760E+01  0.3760E+01  0.3257E+02  0.3257E+02
     -1.910  0.6162E+01  0.6162E+01  0.3353E+02  0.3353E+02
     -1.703  0.7098E+01  0.7098E+01  0.3473E+02  0.3473E+02
     -1.495  0.5216E+01  0.5216E+01  0.3570E+02  0.3570E+02
     -1.287  0.5812E+01  0.5812E+01  0.3664E+02  0.3664E+02
     -1.080  0.5159E+01  0.5159E+01  0.3764E+02  0.3764E+02
     -0.872  0.7457E+01  0.7457E+01  0.3873E+02  0.3873E+02
     -0.665  0.7637E+01  0.7637E+01  0.3982E+02  0.3982E+02
     -0.457  0.1104E+02  0.1104E+02  0.4147E+02  0.4147E+02
     -0.250  0.1147E+02  0.1147E+02  0.4322E+02  0.4322E+02
     -0.042  0.6686E+01  0.6686E+01  0.4454E+02  0.4454E+02
      0.165  0.1633E+02  0.1633E+02  0.4646E+02  0.4646E+02
      0.373  0.1632E+02  0.1632E+02  0.4888E+02  0.4888E+02
      0.581  0.4784E+01  0.4784E+01  0.5011E+02  0.5011E+02
      0.788  0.9662E+01  0.9662E+01  0.5135E+02  0.5135E+02
      0.996  0.5683E+01  0.5683E+01  0.5232E+02  0.5232E+02
      1.203  0.1420E+02  0.1420E+02  0.5407E+02  0.5407E+02
      1.411  0.2632E+02  0.2632E+02  0.5705E+02  0.5705E+02
      1.618  0.8755E+01  0.8755E+01  0.5893E+02  0.5893E+02
      1.826  0.1094E+02  0.1094E+02  0.6048E+02  0.6048E+02
      2.034  0.8243E+01  0.8243E+01  0.6186E+02  0.6186E+02
      2.241  0.8388E+01  0.8388E+01  0.6321E+02  0.6321E+02
      2.449  0.1190E+02  0.1190E+02  0.6491E+02  0.6491E+02
      2.656  0.1270E+02  0.1270E+02  0.6699E+02  0.6699E+02
      2.864  0.1530E+02  0.1530E+02  0.6878E+02  0.6878E+02
      3.071  0.1845E+02  0.1845E+02  0.7110E+02  0.7110E+02
      3.279  0.2364E+02  0.2364E+02  0.7387E+02  0.7387E+02
      3.486  0.1770E+02  0.1770E+02  0.7654E+02  0.7654E+02
      3.694  0.1218E+02  0.1218E+02  0.7855E+02  0.7855E+02
      3.902  0.1075E+02  0.1075E+02  0.7987E+02  0.7987E+02
      4.109  0.2094E+02  0.2094E+02  0.8256E+02  0.8256E+02
      4.317  0.1234E+02  0.1234E+02  0.8449E+02  0.8449E+02
      4.524  0.7389E+01  0.7389E+01  0.8557E+02  0.8557E+02
      4.732  0.7332E+01  0.7332E+01  0.8667E+02  0.8667E+02
      4.939  0.1172E+02  0.1172E+02  0.8806E+02  0.8806E+02
      5.147  0.1420E+02  0.1420E+02  0.9045E+02  0.9045E+02
      5.354  0.4752E+01  0.4752E+01  0.9165E+02  0.9165E+02
      5.562  0.2532E+01  0.2532E+01  0.9218E+02  0.9218E+02
      5.770  0.6143E+01  0.6089E+01  0.9294E+02  0.9294E+02
      5.977  0.8592E+01  0.8587E+01  0.9442E+02  0.9443E+02
      6.185  0.3688E+01  0.3711E+01  0.9533E+02  0.9533E+02
      6.392  0.1747E+01  0.1611E+01  0.9578E+02  0.9578E+02
      6.600  0.4090E+00  0.4663E+00  0.9596E+02  0.9596E+02
      6.807  0.6960E-01  0.5853E-01  0.9599E+02  0.9599E+02
      7.015  0.7404E-03  0.6343E-02  0.9600E+02  0.9600E+02
      7.222  0.0000E+00  0.0000E+00  0.9600E+02  0.9600E+02
      7.430  0.0000E+00  0.0000E+00  0.9600E+02  0.9600E+02
      7.638  0.0000E+00  0.0000E+00  0.9600E+02  0.9600E+02
      7.845  0.0000E+00  0.0000E+00  0.9600E+02  0.9600E+02
      8.053  0.0000E+00  0.0000E+00  0.9600E+02  0.9600E+02
      8.260  0.0000E+00  0.0000E+00  0.9600E+02  0.9600E+02
      8.468  0.0000E+00  0.0000E+00  0.9600E+02  0.9600E+02
      8.675  0.0000E+00  0.0000E+00  0.9600E+02  0.9600E+02
      8.883  0.0000E+00  0.0000E+00  0.9600E+02  0.9600E+02
      9.090  0.0000E+00  0.0000E+00  0.9600E+02  0.9600E+02
      9.298  0.0000E+00  0.0000E+00  0.9600E+02  0.9600E+02
      9.506  0.0000E+00  0.0000E+00  0.9600E+02  0.9600E+02
      9.713  0.0000E+00  0.0000E+00  0.9600E+02  0.9600E+02
      9.921  0.0000E+00  0.0000E+00  0.9600E+02  0.9600E+02
      9.92071223    -52.34662845  301      3.91616680      1.00000000
    -52.347  0.0000E+00  0.0000E+00  0.0000E+00  0.0000E+00  0.0000E+00  0.0000E+00  0.0000E+00  0.0000E+00  0.0000E+00  0.0000E+00  0.0000E+00  0.0000E+00  0.0000E+00  0.0000E+00  0.0000E+00  0.0000E+00  0.0000E+00  0.0000E+00
    -52.139  0.0000E+00  0.0000E+00  0.0000E+00  0.0000E+00  0.0000E+00  0.0000E+00  0.0000E+00  0.0000E+00  0.0000E+00  0.0000E+00  0.0000E+00  0.0000E+00  0.0000E+00  0.0000E+00  0.0000E+00  0.0000E+00  0.0000E+00  0.0000E+00
    -51.932  0.0000E+00  0.0000E+00  0.0000E+00  0.0000E+00  0.0000E+00  0.0000E+00  0.0000E+00  0.0000E+00  0.0000E+00  0.0000E+00  0.0000E+00  0.0000E+00  0.0000E+00  0.0000E+00  0.0000E+00  0.0000E+00  0.0000E+00  0.0000E+00
    -51.724  0.0000E+00  0.0000E+00  0.0000E+00  0.0000E+00  0.0000E+00  0.0000E+00  0.0000E+00  0.0000E+00  0.0000E+00  0.0000E+00  0.0000E+00  0.0000E+00  0.0000E+00  0.0000E+00  0.0000E+00  0.0000E+00  0.0000E+00  0.0000E+00
    -51.516  0.0000E+00  0.0000E+00  0.0000E+00  0.0000E+00  0.0000E+00  0.0000E+00  0.0000E+00  0.0000E+00  0.0000E+00  0.0000E+00  0.0000E+00  0.0000E+00  0.0000E+00  0.0000E+00  0.0000E+00  0.0000E+00  0.0000E+00  0.0000E+00
    -51.309  0.0000E+00  0.0000E+00  0.0000E+00  0.0000E+00  0.0000E+00  0.0000E+00  0.0000E+00  0.0000E+00  0.0000E+00  0.0000E+00  0.0000E+00  0.0000E+00  0.0000E+00  0.0000E+00  0.0000E+00  0.0000E+00  0.0000E+00  0.0000E+00
    -51.101  0.0000E+00  0.0000E+00  0.0000E+00  0.0000E+00  0.0000E+00  0.0000E+00  0.0000E+00  0.0000E+00  0.0000E+00  0.0000E+00  0.0000E+00  0.0000E+00  0.0000E+00  0.0000E+00  0.0000E+00  0.0000E+00  0.0000E+00  0.0000E+00
    -50.894  0.0000E+00  0.0000E+00  0.0000E+00  0.0000E+00  0.0000E+00  0.0000E+00  0.0000E+00  0.0000E+00  0.0000E+00  0.0000E+00  0.0000E+00  0.0000E+00  0.0000E+00  0.0000E+00  0.0000E+00  0.0000E+00  0.0000E+00  0.0000E+00
    -50.686  0.0000E+00  0.0000E+00  0.0000E+00  0.0000E+00  0.0000E+00  0.0000E+00  0.0000E+00  0.0000E+00  0.0000E+00  0.0000E+00  0.0000E+00  0.0000E+00  0.0000E+00  0.0000E+00  0.0000E+00  0.0000E+00  0.0000E+00  0.0000E+00
    -50.479  0.0000E+00  0.0000E+00  0.0000E+00  0.0000E+00  0.0000E+00  0.0000E+00  0.0000E+00  0.0000E+00  0.0000E+00  0.0000E+00  0.0000E+00  0.0000E+00  0.0000E+00  0.0000E+00  0.0000E+00  0.0000E+00  0.0000E+00  0.0000E+00
    -50.271  0.0000E+00  0.0000E+00  0.0000E+00  0.0000E+00  0.0000E+00  0.0000E+00  0.0000E+00  0.0000E+00  0.0000E+00  0.0000E+00  0.0000E+00  0.0000E+00  0.0000E+00  0.0000E+00  0.0000E+00  0.0000E+00  0.0000E+00  0.0000E+00
    -50.063  0.0000E+00  0.0000E+00  0.0000E+00  0.0000E+00  0.0000E+00  0.0000E+00  0.0000E+00  0.0000E+00  0.0000E+00  0.0000E+00  0.0000E+00  0.0000E+00  0.0000E+00  0.0000E+00  0.0000E+00  0.0000E+00  0.0000E+00  0.0000E+00
    -49.856  0.0000E+00  0.0000E+00  0.0000E+00  0.0000E+00  0.0000E+00  0.0000E+00  0.0000E+00  0.0000E+00  0.0000E+00  0.0000E+00  0.0000E+00  0.0000E+00  0.0000E+00  0.0000E+00  0.0000E+00  0.0000E+00  0.0000E+00  0.0000E+00
    -49.648  0.0000E+00  0.0000E+00  0.0000E+00  0.0000E+00  0.0000E+00  0.0000E+00  0.0000E+00  0.0000E+00  0.0000E+00  0.0000E+00  0.0000E+00  0.0000E+00  0.0000E+00  0.0000E+00  0.0000E+00  0.0000E+00  0.0000E+00  0.0000E+00
    -49.441  0.3841E-03  0.3871E-03  0.6272E+00  0.5145E+00  0.2378E-01  0.2828E-01  0.5044E+00  0.5908E+00  0.6941E-05  0.7085E-05  0.2403E-06  0.2722E-06  0.1938E-03  0.1959E-03  0.5547E-04  0.5371E-04  0.6400E-03  0.6441E-03
    -49.233  0.0000E+00  0.0000E+00  0.0000E+00  0.0000E+00  0.0000E+00  0.0000E+00  0.0000E+00  0.0000E+00  0.0000E+00  0.0000E+00  0.0000E+00  0.0000E+00  0.0000E+00  0.0000E+00  0.0000E+00  0.0000E+00  0.0000E+00  0.0000E+00
    -49.026  0.4668E-03  0.5019E-03  0.3571E+01  0.3711E+01  0.7747E+01  0.2548E+02  0.3789E+01  0.4798E+01  0.1097E-04  0.1147E-04  0.8721E-05  0.1956E-04  0.1215E-03  0.1304E-03  0.2181E-04  0.4088E-04  0.6392E-04  0.6172E-04
    -48.818  0.1535E-03  0.1534E-03  0.4457E+01  0.4167E+01  0.1385E+01  0.1645E+01  0.3978E+01  0.4101E+01  0.6609E-04  0.6589E-04  0.2022E-04  0.2210E-04  0.6484E-04  0.5727E-04  0.3096E-04  0.4244E-04  0.3081E-03  0.2959E-03
    -48.611  0.1175E-04  0.1171E-04  0.5220E+00  0.5257E+00  0.1933E-01  0.1993E-01  0.4565E+00  0.5332E+00  0.3227E-05  0.3149E-05  0.6979E-07  0.1470E-06  0.4996E-05  0.4180E-05  0.1509E-05  0.2845E-05  0.4022E-04  0.3889E-04
    -48.403  0.0000E+00  0.0000E+00  0.0000E+00  0.0000E+00  0.0000E+00  0.0000E+00  0.0000E+00  0.0000E+00  0.0000E+00  0.0000E+00  0.0000E+00  0.0000E+00  0.0000E+00  0.0000E+00  0.0000E+00  0.0000E+00  0.0000E+00  0.0000E+00
    -48.195  0.0000E+00  0.0000E+00  0.0000E+00  0.0000E+00  0.0000E+00  0.0000E+00  0.0000E+00  0.0000E+00  0.0000E+00  0.0000E+00  0.0000E+00  0.0000E+00  0.0000E+00  0.0000E+00  0.0000E+00  0.0000E+00  0.0000E+00  0.0000E+00
    -47.988  0.0000E+00  0.0000E+00  0.0000E+00  0.0000E+00  0.0000E+00  0.0000E+00  0.0000E+00  0.0000E+00  0.0000E+00  0.0000E+00  0.0000E+00  0.0000E+00  0.0000E+00  0.0000E+00  0.0000E+00  0.0000E+00  0.0000E+00  0.0000E+00
    -47.780  0.0000E+00  0.0000E+00  0.0000E+00  0.0000E+00  0.0000E+00  0.0000E+00  0.0000E+00  0.0000E+00  0.0000E+00  0.0000E+00  0.0000E+00  0.0000E+00  0.0000E+00  0.0000E+00  0.0000E+00  0.0000E+00  0.0000E+00  0.0000E+00
    -47.573  0.0000E+00  0.0000E+00  0.0000E+00  0.0000E+00  0.0000E+00  0.0000E+00  0.0000E+00  0.0000E+00  0.0000E+00  0.0000E+00  0.0000E+00  0.0000E+00  0.0000E+00  0.0000E+00  0.0000E+00  0.0000E+00  0.0000E+00  0.0000E+00
    -47.365  0.0000E+00  0.0000E+00  0.0000E+00  0.0000E+00  0.0000E+00  0.0000E+00  0.0000E+00  0.0000E+00  0.0000E+00  0.0000E+00  0.0000E+00  0.0000E+00  0.0000E+00  0.0000E+00  0.0000E+00  0.0000E+00  0.0000E+00  0.0000E+00
    -47.158  0.0000E+00  0.0000E+00  0.0000E+00  0.0000E+00  0.0000E+00  0.0000E+00  0.0000E+00  0.0000E+00  0.0000E+00  0.0000E+00  0.0000E+00  0.0000E+00  0.0000E+00  0.0000E+00  0.0000E+00  0.0000E+00  0.0000E+00  0.0000E+00
    -46.950  0.0000E+00  0.0000E+00  0.0000E+00  0.0000E+00  0.0000E+00  0.0000E+00  0.0000E+00  0.0000E+00  0.0000E+00  0.0000E+00  0.0000E+00  0.0000E+00  0.0000E+00  0.0000E+00  0.0000E+00  0.0000E+00  0.0000E+00  0.0000E+00
    -46.743  0.0000E+00  0.0000E+00  0.0000E+00  0.0000E+00  0.0000E+00  0.0000E+00  0.0000E+00  0.0000E+00  0.0000E+00  0.0000E+00  0.0000E+00  0.0000E+00  0.0000E+00  0.0000E+00  0.0000E+00  0.0000E+00  0.0000E+00  0.0000E+00
    -46.535  0.0000E+00  0.0000E+00  0.0000E+00  0.0000E+00  0.0000E+00  0.0000E+00  0.0000E+00  0.0000E+00  0.0000E+00  0.0000E+00  0.0000E+00  0.0000E+00  0.0000E+00  0.0000E+00  0.0000E+00  0.0000E+00  0.0000E+00  0.0000E+00
    -46.327  0.0000E+00  0.0000E+00  0.0000E+00  0.0000E+00  0.0000E+00  0.0000E+00  0.0000E+00  0.0000E+00  0.0000E+00  0.0000E+00  0.0000E+00  0.0000E+00  0.0000E+00  0.0000E+00  0.0000E+00  0.0000E+00  0.0000E+00  0.0000E+00
    -46.120  0.0000E+00  0.0000E+00  0.0000E+00  0.0000E+00  0.0000E+00  0.0000E+00  0.0000E+00  0.0000E+00  0.0000E+00  0.0000E+00  0.0000E+00  0.0000E+00  0.0000E+00  0.0000E+00  0.0000E+00  0.0000E+00  0.0000E+00  0.0000E+00
    -45.912  0.0000E+00  0.0000E+00  0.0000E+00  0.0000E+00  0.0000E+00  0.0000E+00  0.0000E+00  0.0000E+00  0.0000E+00  0.0000E+00  0.0000E+00  0.0000E+00  0.0000E+00  0.0000E+00  0.0000E+00  0.0000E+00  0.0000E+00  0.0000E+00
    -45.705  0.0000E+00  0.0000E+00  0.0000E+00  0.0000E+00  0.0000E+00  0.0000E+00  0.0000E+00  0.0000E+00  0.0000E+00  0.0000E+00  0.0000E+00  0.0000E+00  0.0000E+00  0.0000E+00  0.0000E+00  0.0000E+00  0.0000E+00  0.0000E+00
    -45.497  0.0000E+00  0.0000E+00  0.0000E+00  0.0000E+00  0.0000E+00  0.0000E+00  0.0000E+00  0.0000E+00  0.0000E+00  0.0000E+00  0.0000E+00  0.0000E+00  0.0000E+00  0.0000E+00  0.0000E+00  0.0000E+00  0.0000E+00  0.0000E+00
    -45.290  0.0000E+00  0.0000E+00  0.0000E+00  0.0000E+00  0.0000E+00  0.0000E+00  0.0000E+00  0.0000E+00  0.0000E+00  0.0000E+00  0.0000E+00  0.0000E+00  0.0000E+00  0.0000E+00  0.0000E+00  0.0000E+00  0.0000E+00  0.0000E+00
    -45.082  0.0000E+00  0.0000E+00  0.0000E+00  0.0000E+00  0.0000E+00  0.0000E+00  0.0000E+00  0.0000E+00  0.0000E+00  0.0000E+00  0.0000E+00  0.0000E+00  0.0000E+00  0.0000E+00  0.0000E+00  0.0000E+00  0.0000E+00  0.0000E+00
    -44.875  0.0000E+00  0.0000E+00  0.0000E+00  0.0000E+00  0.0000E+00  0.0000E+00  0.0000E+00  0.0000E+00  0.0000E+00  0.0000E+00  0.0000E+00  0.0000E+00  0.0000E+00  0.0000E+00  0.0000E+00  0.0000E+00  0.0000E+00  0.0000E+00
    -44.667  0.0000E+00  0.0000E+00  0.0000E+00  0.0000E+00  0.0000E+00  0.0000E+00  0.0000E+00  0.0000E+00  0.0000E+00  0.0000E+00  0.0000E+00  0.0000E+00  0.0000E+00  0.0000E+00  0.0000E+00  0.0000E+00  0.0000E+00  0.0000E+00
    -44.459  0.0000E+00  0.0000E+00  0.0000E+00  0.0000E+00  0.0000E+00  0.0000E+00  0.0000E+00  0.0000E+00  0.0000E+00  0.0000E+00  0.0000E+00  0.0000E+00  0.0000E+00  0.0000E+00  0.0000E+00  0.0000E+00  0.0000E+00  0.0000E+00
    -44.252  0.0000E+00  0.0000E+00  0.0000E+00  0.0000E+00  0.0000E+00  0.0000E+00  0.0000E+00  0.0000E+00  0.0000E+00  0.0000E+00  0.0000E+00  0.0000E+00  0.0000E+00  0.0000E+00  0.0000E+00  0.0000E+00  0.0000E+00  0.0000E+00
    -44.044  0.0000E+00  0.0000E+00  0.0000E+00  0.0000E+00  0.0000E+00  0.0000E+00  0.0000E+00  0.0000E+00  0.0000E+00  0.0000E+00  0.0000E+00  0.0000E+00  0.0000E+00  0.0000E+00  0.0000E+00  0.0000E+00  0.0000E+00  0.0000E+00
    -43.837  0.0000E+00  0.0000E+00  0.0000E+00  0.0000E+00  0.0000E+00  0.0000E+00  0.0000E+00  0.0000E+00  0.0000E+00  0.0000E+00  0.0000E+00  0.0000E+00  0.0000E+00  0.0000E+00  0.0000E+00  0.0000E+00  0.0000E+00  0.0000E+00
    -43.629  0.0000E+00  0.0000E+00  0.0000E+00  0.0000E+00  0.0000E+00  0.0000E+00  0.0000E+00  0.0000E+00  0.0000E+00  0.0000E+00  0.0000E+00  0.0000E+00  0.0000E+00  0.0000E+00  0.0000E+00  0.0000E+00  0.0000E+00  0.0000E+00
    -43.422  0.0000E+00  0.0000E+00  0.0000E+00  0.0000E+00  0.0000E+00  0.0000E+00  0.0000E+00  0.0000E+00  0.0000E+00  0.0000E+00  0.0000E+00  0.0000E+00  0.0000E+00  0.0000E+00  0.0000E+00  0.0000E+00  0.0000E+00  0.0000E+00
    -43.214  0.0000E+00  0.0000E+00  0.0000E+00  0.0000E+00  0.0000E+00  0.0000E+00  0.0000E+00  0.0000E+00  0.0000E+00  0.0000E+00  0.0000E+00  0.0000E+00  0.0000E+00  0.0000E+00  0.0000E+00  0.0000E+00  0.0000E+00  0.0000E+00
    -43.007  0.0000E+00  0.0000E+00  0.0000E+00  0.0000E+00  0.0000E+00  0.0000E+00  0.0000E+00  0.0000E+00  0.0000E+00  0.0000E+00  0.0000E+00  0.0000E+00  0.0000E+00  0.0000E+00  0.0000E+00  0.0000E+00  0.0000E+00  0.0000E+00
    -42.799  0.0000E+00  0.0000E+00  0.0000E+00  0.0000E+00  0.0000E+00  0.0000E+00  0.0000E+00  0.0000E+00  0.0000E+00  0.0000E+00  0.0000E+00  0.0000E+00  0.0000E+00  0.0000E+00  0.0000E+00  0.0000E+00  0.0000E+00  0.0000E+00
    -42.591  0.0000E+00  0.0000E+00  0.0000E+00  0.0000E+00  0.0000E+00  0.0000E+00  0.0000E+00  0.0000E+00  0.0000E+00  0.0000E+00  0.0000E+00  0.0000E+00  0.0000E+00  0.0000E+00  0.0000E+00  0.0000E+00  0.0000E+00  0.0000E+00
    -42.384  0.0000E+00  0.0000E+00  0.0000E+00  0.0000E+00  0.0000E+00  0.0000E+00  0.0000E+00  0.0000E+00  0.0000E+00  0.0000E+00  0.0000E+00  0.0000E+00  0.0000E+00  0.0000E+00  0.0000E+00  0.0000E+00  0.0000E+00  0.0000E+00
    -42.176  0.0000E+00  0.0000E+00  0.0000E+00  0.0000E+00  0.0000E+00  0.0000E+00  0.0000E+00  0.0000E+00  0.0000E+00  0.0000E+00  0.0000E+00  0.0000E+00  0.0000E+00  0.0000E+00  0.0000E+00  0.0000E+00  0.0000E+00  0.0000E+00
    -41.969  0.0000E+00  0.0000E+00  0.0000E+00  0.0000E+00  0.0000E+00  0.0000E+00  0.0000E+00  0.0000E+00  0.0000E+00  0.0000E+00  0.0000E+00  0.0000E+00  0.0000E+00  0.0000E+00  0.0000E+00  0.0000E+00  0.0000E+00  0.0000E+00