  16  16   1   0
  0.1950000E+02  0.7489152E-09  0.7489152E-09  0.5651969E-09  0.5000000E-15
  1.000000000000000E-004
  CAR 
 unknown system                          
     11.35559571    -53.97038259  301      3.78808493      1.00000000
    -53.970  0.0000E+00  0.0000E+00  0.0000E+00  0.0000E+00
    -53.753  0.0000E+00  0.0000E+00  0.0000E+00  0.0000E+00
    -53.535  0.0000E+00  0.0000E+00  0.0000E+00  0.0000E+00
    -53.317  0.0000E+00  0.0000E+00  0.0000E+00  0.0000E+00
    -53.099  0.0000E+00  0.0000E+00  0.0000E+00  0.0000E+00
    -52.882  0.0000E+00  0.0000E+00  0.0000E+00  0.0000E+00
    -52.664  0.0000E+00  0.0000E+00  0.0000E+00  0.0000E+00
    -52.446  0.0000E+00  0.0000E+00  0.0000E+00  0.0000E+00
    -52.228  0.0000E+00  0.0000E+00  0.0000E+00  0.0000E+00
    -52.011  0.0000E+00  0.0000E+00  0.0000E+00  0.0000E+00
    -51.793  0.0000E+00  0.0000E+00  0.0000E+00  0.0000E+00
    -51.575  0.0000E+00  0.0000E+00  0.0000E+00  0.0000E+00
    -51.357  0.0000E+00  0.0000E+00  0.0000E+00  0.0000E+00
    -51.140  0.3638E-05  0.3638E-05  0.7922E-06  0.7922E-06
    -50.922  0.1850E+00  0.1850E+00  0.4028E-01  0.4028E-01
    -50.704  0.2802E+00  0.2802E+00  0.1013E+00  0.1013E+00
    -50.486  0.8917E-01  0.8917E-01  0.1207E+00  0.1207E+00
    -50.269  0.2319E-02  0.2319E-02  0.1212E+00  0.1212E+00
    -50.051  0.0000E+00  0.0000E+00  0.1212E+00  0.1212E+00
    -49.833  0.0000E+00  0.0000E+00  0.1212E+00  0.1212E+00
    -49.615  0.0000E+00  0.0000E+00  0.1212E+00  0.1212E+00
    -49.398  0.0000E+00  0.0000E+00  0.1212E+00  0.1212E+00
    -49.180  0.0000E+00  0.0000E+00  0.1212E+00  0.1212E+00
    -48.962  0.0000E+00  0.0000E+00  0.1212E+00  0.1212E+00
    -48.744  0.0000E+00  0.0000E+00  0.1212E+00  0.1212E+00
    -48.527  0.0000E+00  0.0000E+00  0.1212E+00  0.1212E+00
    -48.309  0.4765E-04  0.4765E-04  0.1212E+00  0.1212E+00
    -48.091  0.2426E+00  0.2426E+00  0.1740E+00  0.1740E+00
    -47.873  0.1055E+00  0.1055E+00  0.1970E+00  0.1970E+00
    -47.656  0.2085E+00  0.2085E+00  0.2424E+00  0.2424E+00
    -47.438  0.9173E-06  0.9173E-06  0.2424E+00  0.2424E+00
    -47.220  0.0000E+00  0.0000E+00  0.2424E+00  0.2424E+00
    -47.002  0.0000E+00  0.0000E+00  0.2424E+00  0.2424E+00
    -46.785  0.0000E+00  0.0000E+00  0.2424E+00  0.2424E+00
    -46.567  0.0000E+00  0.0000E+00  0.2424E+00  0.2424E+00
    -46.349  0.0000E+00  0.0000E+00  0.2424E+00  0.2424E+00
    -46.131  0.0000E+00  0.0000E+00  0.2424E+00  0.2424E+00
    -45.914  0.0000E+00  0.0000E+00  0.2424E+00  0.2424E+00
    -45.696  0.0000E+00  0.0000E+00  0.2424E+00  0.2424E+00
    -45.478  0.0000E+00  0.0000E+00  0.2424E+00  0.2424E+00
    -45.260  0.0000E+00  0.0000E+00  0.2424E+00  0.2424E+00
    -45.042  0.0000E+00  0.0000E+00  0.2424E+00  0.2424E+00
    -44.825  0.0000E+00  0.0000E+00  0.2424E+00  0.2424E+00
    -44.607  0.0000E+00  0.0000E+00  0.2424E+00  0.2424E+00
    -44.389  0.0000E+00  0.0000E+00  0.2424E+00  0.2424E+00
    -44.171  0.0000E+00  0.0000E+00  0.2424E+00  0.2424E+00
    -43.954  0.0000E+00  0.0000E+00  0.2424E+00  0.2424E+00
    -43.736  0.0000E+00  0.0000E+00  0.2424E+00  0.2424E+00
    -43.518  0.0000E+00  0.0000E+00  0.2424E+00  0.2424E+00
    -43.300  0.0000E+00  0.0000E+00  0.2424E+00  0.2424E+00
    -43.083  0.0000E+00  0.0000E+00  0.2424E+00  0.2424E+00
    -42.865  0.0000E+00  0.0000E+00  0.2424E+00  0.2424E+00
    -42.647  0.0000E+00  0.0000E+00  0.2424E+00  0.2424E+00
    -42.429  0.0000E+00  0.0000E+00  0.2424E+00  0.2424E+00
    -42.212  0.0000E+00  0.0000E+00  0.2424E+00  0.2424E+00
    -41.994  0.0000E+00  0.0000E+00  0.2424E+00  0.2424E+00
    -41.776  0.0000E+00  0.0000E+00  0.2424E+00  0.2424E+00
    -41.558  0.0000E+00  0.0000E+00  0.2424E+00  0.2424E+00
    -41.341  0.0000E+00  0.0000E+00  0.2424E+00  0.2424E+00
    -41.123  0.0000E+00  0.0000E+00  0.2424E+00  0.2424E+00
    -40.905  0.0000E+00  0.0000E+00  0.2424E+00  0.2424E+00
    -40.687  0.0000E+00  0.0000E+00  0.2424E+00  0.2424E+00
    -40.470  0.0000E+00  0.0000E+00  0.2424E+00  0.2424E+00
    -40.252  0.0000E+00  0.0000E+00  0.2424E+00  0.2424E+00
    -40.034  0.0000E+00  0.0000E+00  0.2424E+00  0.2424E+00
    -39.816  0.0000E+00  0.0000E+00  0.2424E+00  0.2424E+00
    -39.599  0.0000E+00  0.0000E+00  0.2424E+00  0.2424E+00
    -39.381  0.0000E+00  0.0000E+00  0.2424E+00  0.2424E+00
    -39.163  0.0000E+00  0.0000E+00  0.2424E+00  0.2424E+00
    -38.945  0.0000E+00  0.0000E+00  0.2424E+00  0.2424E+00
    -38.728  0.0000E+00  0.0000E+00  0.2424E+00  0.2424E+00
    -38.510  0.0000E+00  0.0000E+00  0.2424E+00  0.2424E+00
    -38.292  0.0000E+00  0.0000E+00  0.2424E+00  0.2424E+00
    -38.074  0.0000E+00  0.0000E+00  0.2424E+00  0.2424E+00
    -37.857  0.0000E+00  0.0000E+00  0.2424E+00  0.2424E+00
    -37.639  0.0000E+00  0.0000E+00  0.2424E+00  0.2424E+00
    -37.421  0.0000E+00  0.0000E+00  0.2424E+00  0.2424E+00
    -37.203  0.0000E+00  0.0000E+00  0.2424E+00  0.2424E+00
    -36.986  0.0000E+00  0.0000E+00  0.2424E+00  0.2424E+00
    -36.768  0.0000E+00  0.0000E+00  0.2424E+00  0.2424E+00
    -36.550  0.0000E+00  0.0000E+00  0.2424E+00  0.2424E+00
    -36.332  0.0000E+00  0.0000E+00  0.2424E+00  0.2424E+00
    -36.115  0.0000E+00  0.0000E+00  0.2424E+00  0.2424E+00
    -35.897  0.0000E+00  0.0000E+00  0.2424E+00  0.2424E+00
    -35.679  0.0000E+00  0.0000E+00  0.2424E+00  0.2424E+00
    -35.461  0.0000E+00  0.0000E+00  0.2424E+00  0.2424E+00
    -35.244  0.0000E+00  0.0000E+00  0.2424E+00  0.2424E+00
    -35.026  0.0000E+00  0.0000E+00  0.2424E+00  0.2424E+00
    -34.808  0.0000E+00  0.0000E+00  0.2424E+00  0.2424E+00
    -34.590  0.0000E+00  0.0000E+00  0.2424E+00  0.2424E+00
    -34.373  0.0000E+00  0.0000E+00  0.2424E+00  0.2424E+00
    -34.155  0.0000E+00  0.0000E+00  0.2424E+00  0.2424E+00
    -33.937  0.0000E+00  0.0000E+00  0.2424E+00  0.2424E+00
    -33.719  0.0000E+00  0.0000E+00  0.2424E+00  0.2424E+00
    -33.502  0.0000E+00  0.0000E+00  0.2424E+00  0.2424E+00
    -33.284  0.0000E+00  0.0000E+00  0.2424E+00  0.2424E+00
    -33.066  0.0000E+00  0.0000E+00  0.2424E+00  0.2424E+00
    -32.848  0.0000E+00  0.0000E+00  0.2424E+00  0.2424E+00
    -32.631  0.0000E+00  0.0000E+00  0.2424E+00  0.2424E+00
    -32.413  0.0000E+00  0.0000E+00  0.2424E+00  0.2424E+00
    -32.195  0.0000E+00  0.0000E+00  0.2424E+00  0.2424E+00
    -31.977  0.0000E+00  0.0000E+00  0.2424E+00  0.2424E+00
    -31.760  0.0000E+00  0.0000E+00  0.2424E+00  0.2424E+00
    -31.542  0.0000E+00  0.0000E+00  0.2424E+00  0.2424E+00
    -31.324  0.0000E+00  0.0000E+00  0.2424E+00  0.2424E+00
    -31.106  0.0000E+00  0.0000E+00  0.2424E+00  0.2424E+00
    -30.889  0.0000E+00  0.0000E+00  0.2424E+00  0.2424E+00
    -30.671  0.0000E+00  0.0000E+00  0.2424E+00  0.2424E+00
    -30.453  0.0000E+00  0.0000E+00  0.2424E+00  0.2424E+00
    -30.235  0.0000E+00  0.0000E+00  0.2424E+00  0.2424E+00
    -30.018  0.0000E+00  0.0000E+00  0.2424E+00  0.2424E+00
    -29.800  0.0000E+00  0.0000E+00  0.2424E+00  0.2424E+00
    -29.582  0.0000E+00  0.0000E+00  0.2424E+00  0.2424E+00
    -29.364  0.0000E+00  0.0000E+00  0.2424E+00  0.2424E+00
    -29.147  0.0000E+00  0.0000E+00  0.2424E+00  0.2424E+00
    -28.929  0.0000E+00  0.0000E+00  0.2424E+00  0.2424E+00
    -28.711  0.0000E+00  0.0000E+00  0.2424E+00  0.2424E+00
    -28.493  0.0000E+00  0.0000E+00  0.2424E+00  0.2424E+00
    -28.275  0.0000E+00  0.0000E+00  0.2424E+00  0.2424E+00
    -28.058  0.0000E+00  0.0000E+00  0.2424E+00  0.2424E+00
    -27.840  0.0000E+00  0.0000E+00  0.2424E+00  0.2424E+00
    -27.622  0.0000E+00  0.0000E+00  0.2424E+00  0.2424E+00
    -27.404  0.0000E+00  0.0000E+00  0.2424E+00  0.2424E+00
    -27.187  0.0000E+00  0.0000E+00  0.2424E+00  0.2424E+00
    -26.969  0.0000E+00  0.0000E+00  0.2424E+00  0.2424E+00
    -26.751  0.0000E+00  0.0000E+00  0.2424E+00  0.2424E+00
    -26.533  0.0000E+00  0.0000E+00  0.2424E+00  0.2424E+00
    -26.316  0.0000E+00  0.0000E+00  0.2424E+00  0.2424E+00
    -26.098  0.0000E+00  0.0000E+00  0.2424E+00  0.2424E+00
    -25.880  0.0000E+00  0.0000E+00  0.2424E+00  0.2424E+00
    -25.662  0.0000E+00  0.0000E+00  0.2424E+00  0.2424E+00
    -25.445  0.0000E+00  0.0000E+00  0.2424E+00  0.2424E+00
    -25.227  0.0000E+00  0.0000E+00  0.2424E+00  0.2424E+00
    -25.009  0.0000E+00  0.0000E+00  0.2424E+00  0.2424E+00
    -24.791  0.0000E+00  0.0000E+00  0.2424E+00  0.2424E+00
    -24.574  0.0000E+00  0.0000E+00  0.2424E+00  0.2424E+00
    -24.356  0.0000E+00  0.0000E+00  0.2424E+00  0.2424E+00
    -24.138  0.0000E+00  0.0000E+00  0.2424E+00  0.2424E+00
    -23.920  0.0000E+00  0.0000E+00  0.2424E+00  0.2424E+00
    -23.703  0.0000E+00  0.0000E+00  0.2424E+00  0.2424E+00
    -23.485  0.0000E+00  0.0000E+00  0.2424E+00  0.2424E+00
    -23.267  0.0000E+00  0.0000E+00  0.2424E+00  0.2424E+00
    -23.049  0.0000E+00  0.0000E+00  0.2424E+00  0.2424E+00
    -22.832  0.0000E+00  0.0000E+00  0.2424E+00  0.2424E+00
    -22.614  0.0000E+00  0.0000E+00  0.2424E+00  0.2424E+00
    -22.396  0.0000E+00  0.0000E+00  0.2424E+00  0.2424E+00
    -22.178  0.0000E+00  0.0000E+00  0.2424E+00  0.2424E+00
    -21.961  0.0000E+00  0.0000E+00  0.2424E+00  0.2424E+00
    -21.743  0.0000E+00  0.0000E+00  0.2424E+00  0.2424E+00
    -21.525  0.0000E+00  0.0000E+00  0.2424E+00  0.2424E+00
    -21.307  0.0000E+00  0.0000E+00  0.2424E+00  0.2424E+00
    -21.090  0.0000E+00  0.0000E+00  0.2424E+00  0.2424E+00
    -20.872  0.0000E+00  0.0000E+00  0.2424E+00  0.2424E+00
    -20.654  0.0000E+00  0.0000E+00  0.2424E+00  0.2424E+00
    -20.436  0.0000E+00  0.0000E+00  0.2424E+00  0.2424E+00
    -20.219  0.0000E+00  0.0000E+00  0.2424E+00  0.2424E+00
    -20.001  0.0000E+00  0.0000E+00  0.2424E+00  0.2424E+00
    -19.783  0.0000E+00  0.0000E+00  0.2424E+00  0.2424E+00
    -19.565  0.0000E+00  0.0000E+00  0.2424E+00  0.2424E+00
    -19.348  0.0000E+00  0.0000E+00  0.2424E+00  0.2424E+00
    -19.130  0.0000E+00  0.0000E+00  0.2424E+00  0.2424E+00
    -18.912  0.0000E+00  0.0000E+00  0.2424E+00  0.2424E+00
    -18.694  0.0000E+00  0.0000E+00  0.2424E+00  0.2424E+00
    -18.477  0.0000E+00  0.0000E+00  0.2424E+00  0.2424E+00
    -18.259  0.0000E+00  0.0000E+00  0.2424E+00  0.2424E+00
    -18.041  0.0000E+00  0.0000E+00  0.2424E+00  0.2424E+00
    -17.823  0.0000E+00  0.0000E+00  0.2424E+00  0.2424E+00
    -17.606  0.0000E+00  0.0000E+00  0.2424E+00  0.2424E+00
    -17.388  0.0000E+00  0.0000E+00  0.2424E+00  0.2424E+00
    -17.170  0.0000E+00  0.0000E+00  0.2424E+00  0.2424E+00
    -16.952  0.0000E+00  0.0000E+00  0.2424E+00  0.2424E+00
    -16.735  0.0000E+00  0.0000E+00  0.2424E+00  0.2424E+00
    -16.517  0.0000E+00  0.0000E+00  0.2424E+00  0.2424E+00
    -16.299  0.0000E+00  0.0000E+00  0.2424E+00  0.2424E+00
    -16.081  0.0000E+00  0.0000E+00  0.2424E+00  0.2424E+00
    -15.864  0.0000E+00  0.0000E+00  0.2424E+00  0.2424E+00
    -15.646  0.0000E+00  0.0000E+00  0.2424E+00  0.2424E+00
    -15.428  0.0000E+00  0.0000E+00  0.2424E+00  0.2424E+00
    -15.210  0.0000E+00  0.0000E+00  0.2424E+00  0.2424E+00
    -14.993  0.0000E+00  0.0000E+00  0.2424E+00  0.2424E+00
    -14.775  0.0000E+00  0.0000E+00  0.2424E+00  0.2424E+00
    -14.557  0.0000E+00  0.0000E+00  0.2424E+00  0.2424E+00
    -14.339  0.0000E+00  0.0000E+00  0.2424E+00  0.2424E+00
    -14.122  0.0000E+00  0.0000E+00  0.2424E+00  0.2424E+00
    -13.904  0.0000E+00  0.0000E+00  0.2424E+00  0.2424E+00
    -13.686  0.0000E+00  0.0000E+00  0.2424E+00  0.2424E+00
    -13.468  0.0000E+00  0.0000E+00  0.2424E+00  0.2424E+00
    -13.251  0.0000E+00  0.0000E+00  0.2424E+00  0.2424E+00
    -13.033  0.0000E+00  0.0000E+00  0.2424E+00  0.2424E+00
    -12.815  0.0000E+00  0.0000E+00  0.2424E+00  0.2424E+00
    -12.597  0.0000E+00  0.0000E+00  0.2424E+00  0.2424E+00
    -12.380  0.0000E+00  0.0000E+00  0.2424E+00  0.2424E+00
    -12.162  0.0000E+00  0.0000E+00  0.2424E+00  0.2424E+00
    -11.944  0.0000E+00  0.0000E+00  0.2424E+00  0.2424E+00
    -11.726  0.0000E+00  0.0000E+00  0.2424E+00  0.2424E+00
    -11.508  0.0000E+00  0.0000E+00  0.2424E+00  0.2424E+00
    -11.291  0.0000E+00  0.0000E+00  0.2424E+00  0.2424E+00
    -11.073  0.0000E+00  0.0000E+00  0.2424E+00  0.2424E+00
    -10.855  0.0000E+00  0.0000E+00  0.2424E+00  0.2424E+00
    -10.637  0.6115E-08  0.6115E-08  0.2424E+00  0.2424E+00
    -10.420  0.1891E-02  0.1891E-02  0.2428E+00  0.2428E+00
    -10.202  0.1133E-01  0.1133E-01  0.2453E+00  0.2453E+00
     -9.984  0.2035E-01  0.2035E-01  0.2497E+00  0.2497E+00
     -9.766  0.2878E-01  0.2878E-01  0.2560E+00  0.2560E+00
     -9.549  0.3457E-01  0.3457E-01  0.2635E+00  0.2635E+00
     -9.331  0.6444E-01  0.6444E-01  0.2776E+00  0.2776E+00
     -9.113  0.8526E-01  0.8526E-01  0.2961E+00  0.2961E+00
     -8.895  0.8006E-01  0.8006E-01  0.3136E+00  0.3136E+00
     -8.678  0.4261E-01  0.4261E-01  0.3228E+00  0.3228E+00
     -8.460  0.1802E-02  0.1802E-02  0.3232E+00  0.3232E+00
     -8.242  0.4928E-09  0.4928E-09  0.3232E+00  0.3232E+00
     -8.024  0.0000E+00  0.0000E+00  0.3232E+00  0.3232E+00
     -7.807  0.0000E+00  0.0000E+00  0.3232E+00  0.3232E+00
     -7.589  0.0000E+00  0.0000E+00  0.3232E+00  0.3232E+00
     -7.371  0.0000E+00  0.0000E+00  0.3232E+00  0.3232E+00
     -7.153  0.0000E+00  0.0000E+00  0.3232E+00  0.3232E+00
     -6.936  0.0000E+00  0.0000E+00  0.3232E+00  0.3232E+00
     -6.718  0.0000E+00  0.0000E+00  0.3232E+00  0.3232E+00
     -6.500  0.0000E+00  0.0000E+00  0.3232E+00  0.3232E+00
     -6.282  0.0000E+00  0.0000E+00  0.3232E+00  0.3232E+00
     -6.065  0.0000E+00  0.0000E+00  0.3232E+00  0.3232E+00
     -5.847  0.0000E+00  0.0000E+00  0.3232E+00  0.3232E+00
     -5.629  0.0000E+00  0.0000E+00  0.3232E+00  0.3232E+00
     -5.411  0.0000E+00  0.0000E+00  0.3232E+00  0.3232E+00
     -5.194  0.0000E+00  0.0000E+00  0.3232E+00  0.3232E+00
     -4.976  0.0000E+00  0.0000E+00  0.3232E+00  0.3232E+00
     -4.758  0.0000E+00  0.0000E+00  0.3232E+00  0.3232E+00
     -4.540  0.0000E+00  0.0000E+00  0.3232E+00  0.3232E+00
     -4.323  0.0000E+00  0.0000E+00  0.3232E+00  0.3232E+00
     -4.105  0.0000E+00  0.0000E+00  0.3232E+00  0.3232E+00
     -3.887  0.0000E+00  0.0000E+00  0.3232E+00  0.3232E+00
     -3.669  0.0000E+00  0.0000E+00  0.3232E+00  0.3232E+00
     -3.452  0.0000E+00  0.0000E+00  0.3232E+00  0.3232E+00
     -3.234  0.0000E+00  0.0000E+00  0.3232E+00  0.3232E+00
     -3.016  0.0000E+00  0.0000E+00  0.3232E+00  0.3232E+00
     -2.798  0.0000E+00  0.0000E+00  0.3232E+00  0.3232E+00
     -2.581  0.1503E-14  0.1503E-14  0.3232E+00  0.3232E+00
     -2.363  0.4637E-04  0.4637E-04  0.3232E+00  0.3232E+00
     -2.145  0.2751E-02  0.2751E-02  0.3238E+00  0.3238E+00
     -1.927  0.1043E-01  0.1043E-01  0.3261E+00  0.3261E+00
     -1.710  0.4625E-01  0.4625E-01  0.3362E+00  0.3362E+00
     -1.492  0.7355E-01  0.7355E-01  0.3522E+00  0.3522E+00
     -1.274  0.6395E-01  0.6395E-01  0.3661E+00  0.3661E+00
     -1.056  0.5344E-01  0.5344E-01  0.3778E+00  0.3778E+00
     -0.839  0.6080E-01  0.6080E-01  0.3910E+00  0.3910E+00
     -0.621  0.5757E-01  0.5757E-01  0.4035E+00  0.4035E+00
     -0.403  0.7472E-01  0.7472E-01  0.4198E+00  0.4198E+00
     -0.185  0.7285E-01  0.7285E-01  0.4357E+00  0.4357E+00
      0.032  0.1001E+00  0.1001E+00  0.4575E+00  0.4575E+00
      0.250  0.1113E+00  0.1113E+00  0.4817E+00  0.4817E+00
      0.468  0.1065E+00  0.1065E+00  0.5049E+00  0.5049E+00
      0.686  0.1133E+00  0.1133E+00  0.5296E+00  0.5296E+00
      0.903  0.7542E-01  0.7542E-01  0.5460E+00  0.5460E+00
      1.121  0.7230E-01  0.7230E-01  0.5618E+00  0.5618E+00
      1.339  0.1041E+00  0.1041E+00  0.5844E+00  0.5844E+00
      1.557  0.1014E+00  0.1014E+00  0.6065E+00  0.6065E+00
      1.774  0.1458E+00  0.1458E+00  0.6383E+00  0.6383E+00
      1.992  0.1853E+00  0.1853E+00  0.6786E+00  0.6786E+00
      2.210  0.1328E+00  0.1328E+00  0.7075E+00  0.7075E+00
      2.428  0.8010E-01  0.8010E-01  0.7250E+00  0.7250E+00
      2.645  0.7223E-01  0.7223E-01  0.7407E+00  0.7407E+00
      2.863  0.6145E-01  0.6145E-01  0.7541E+00  0.7541E+00
      3.081  0.4899E-01  0.4899E-01  0.7648E+00  0.7648E+00
      3.299  0.4473E-01  0.4473E-01  0.7745E+00  0.7745E+00
      3.516  0.5119E-01  0.5119E-01  0.7856E+00  0.7856E+00
      3.734  0.8062E-01  0.8062E-01  0.8032E+00  0.8032E+00
      3.952  0.6938E-01  0.6938E-01  0.8183E+00  0.8183E+00
      4.170  0.1137E+00  0.1137E+00  0.8431E+00  0.8431E+00
      4.387  0.1316E+00  0.1316E+00  0.8717E+00  0.8717E+00
      4.605  0.9691E-01  0.9691E-01  0.8928E+00  0.8928E+00
      4.823  0.9534E-01  0.9534E-01  0.9136E+00  0.9136E+00
      5.041  0.8026E-01  0.8026E-01  0.9311E+00  0.9311E+00
      5.259  0.1062E+00  0.1062E+00  0.9542E+00  0.9542E+00
      5.476  0.2620E-01  0.2620E-01  0.9599E+00  0.9599E+00
      5.694  0.1168E-01  0.1168E-01  0.9624E+00  0.9624E+00
      5.912  0.1414E-01  0.1414E-01  0.9655E+00  0.9655E+00
      6.130  0.1322E-01  0.1322E-01  0.9684E+00  0.9684E+00
      6.347  0.8317E-02  0.8317E-02  0.9702E+00  0.9702E+00
      6.565  0.6443E-02  0.6443E-02  0.9716E+00  0.9716E+00
      6.783  0.6077E-02  0.6077E-02  0.9729E+00  0.9729E+00
      7.001  0.1228E-01  0.1228E-01  0.9756E+00  0.9756E+00
      7.218  0.1709E-01  0.1709E-01  0.9793E+00  0.9793E+00
      7.436  0.2468E-01  0.2477E-01  0.9847E+00  0.9847E+00
      7.654  0.4141E-01  0.4108E-01  0.9937E+00  0.9937E+00
      7.872  0.4036E-01  0.4071E-01  0.1002E+01  0.1003E+01
      8.089  0.2470E-01  0.2459E-01  0.1008E+01  0.1008E+01
      8.307  0.9128E-02  0.9208E-02  0.1010E+01  0.1010E+01
      8.525  0.1114E-02  0.1029E-02  0.1010E+01  0.1010E+01
      8.743  0.3736E-07  0.1404E-08  0.1010E+01  0.1010E+01
      8.960  0.0000E+00  0.0000E+00  0.1010E+01  0.1010E+01
      9.178  0.0000E+00  0.0000E+00  0.1010E+01  0.1010E+01
      9.396  0.0000E+00  0.0000E+00  0.1010E+01  0.1010E+01
      9.614  0.0000E+00  0.0000E+00  0.1010E+01  0.1010E+01
      9.831  0.0000E+00  0.0000E+00  0.1010E+01  0.1010E+01
     10.049  0.0000E+00  0.0000E+00  0.1010E+01  0.1010E+01
     10.267  0.0000E+00  0.0000E+00  0.1010E+01  0.1010E+01
     10.485  0.0000E+00  0.0000E+00  0.1010E+01  0.1010E+01
     10.702  0.0000E+00  0.0000E+00  0.1010E+01  0.1010E+01
     10.920  0.0000E+00  0.0000E+00  0.1010E+01  0.1010E+01
     11.138  0.0000E+00  0.0000E+00  0.1010E+01  0.1010E+01
     11.356  0.0000E+00  0.0000E+00  0.1010E+01  0.1010E+01
     11.35559571    -53.97038259  301      3.78808493      1.00000000
    -53.970  0.0000E+00  0.0000E+00  0.0000E+00  0.0000E+00  0.0000E+00  0.0000E+00  0.0000E+00  0.0000E+00  0.0000E+00  0.0000E+00  0.0000E+00  0.0000E+00  0.0000E+00  0.0000E+00  0.0000E+00  0.0000E+00  0.0000E+00  0.0000E+00
    -53.753  0.0000E+00  0.0000E+00  0.0000E+00  0.0000E+00  0.0000E+00  0.0000E+00  0.0000E+00  0.0000E+00  0.0000E+00  0.0000E+00  0.0000E+00  0.0000E+00  0.0000E+00  0.0000E+00  0.0000E+00  0.0000E+00  0.0000E+00  0.0000E+00
    -53.535  0.0000E+00  0.0000E+00  0.0000E+00  0.0000E+00  0.0000E+00  0.0000E+00  0.0000E+00  0.0000E+00  0.0000E+00  0.0000E+00  0.0000E+00  0.0000E+00  0.0000E+00  0.0000E+00  0.0000E+00  0.0000E+00  0.0000E+00  0.0000E+00
    -53.317  0.0000E+00  0.0000E+00  0.0000E+00  0.0000E+00  0.0000E+00  0.0000E+00  0.0000E+00  0.0000E+00  0.0000E+00  0.0000E+00  0.0000E+00  0.0000E+00  0.0000E+00  0.0000E+00  0.0000E+00  0.0000E+00  0.0000E+00  0.0000E+00
    -53.099  0.0000E+00  0.0000E+00  0.0000E+00  0.0000E+00  0.0000E+00  0.0000E+00  0.0000E+00  0.0000E+00  0.0000E+00  0.0000E+00  0.0000E+00  0.0000E+00  0.0000E+00  0.0000E+00  0.0000E+00  0.0000E+00  0.0000E+00  0.0000E+00
    -52.882  0.0000E+00  0.0000E+00  0.0000E+00  0.0000E+00  0.0000E+00  0.0000E+00  0.0000E+00  0.0000E+00  0.0000E+00  0.0000E+00  0.0000E+00  0.0000E+00  0.0000E+00  0.0000E+00  0.0000E+00  0.0000E+00  0.0000E+00  0.0000E+00
    -52.664  0.0000E+00  0.0000E+00  0.0000E+00  0.0000E+00  0.0000E+00  0.0000E+00  0.0000E+00  0.0000E+00  0.0000E+00  0.0000E+00  0.0000E+00  0.0000E+00  0.0000E+00  0.0000E+00  0.0000E+00  0.0000E+00  0.0000E+00  0.0000E+00
    -52.446  0.0000E+00  0.0000E+00  0.0000E+00  0.0000E+00  0.0000E+00  0.0000E+00  0.0000E+00  0.0000E+00  0.0000E+00  0.0000E+00  0.0000E+00  0.0000E+00  0.0000E+00  0.0000E+00  0.0000E+00  0.0000E+00  0.0000E+00  0.0000E+00
    -52.228  0.0000E+00  0.0000E+00  0.0000E+00  0.0000E+00  0.0000E+00  0.0000E+00  0.0000E+00  0.0000E+00  0.0000E+00  0.0000E+00  0.0000E+00  0.0000E+00  0.0000E+00  0.0000E+00  0.0000E+00  0.0000E+00  0.0000E+00  0.0000E+00
    -52.011  0.0000E+00  0.0000E+00  0.0000E+00  0.0000E+00  0.0000E+00  0.0000E+00  0.0000E+00  0.0000E+00  0.0000E+00  0.0000E+00  0.0000E+00  0.0000E+00  0.0000E+00  0.0000E+00  0.0000E+00  0.0000E+00  0.0000E+00  0.0000E+00
    -51.793  0.0000E+00  0.0000E+00  0.0000E+00  0.0000E+00  0.0000E+00  0.0000E+00  0.0000E+00  0.0000E+00  0.0000E+00  0.0000E+00  0.0000E+00  0.0000E+00  0.0000E+00  0.0000E+00  0.0000E+00  0.0000E+00  0.0000E+00  0.0000E+00
    -51.575  0.0000E+00  0.0000E+00  0.0000E+00  0.0000E+00  0.0000E+00  0.0000E+00  0.0000E+00  0.0000E+00  0.0000E+00  0.0000E+00  0.0000E+00  0.0000E+00  0.0000E+00  0.0000E+00  0.0000E+00  0.0000E+00  0.0000E+00  0.0000E+00
    -51.357  0.0000E+00  0.0000E+00  0.0000E+00  0.0000E+00  0.0000E+00  0.0000E+00  0.0000E+00  0.0000E+00  0.0000E+00  0.0000E+00  0.0000E+00  0.0000E+00  0.0000E+00  0.0000E+00  0.0000E+00  0.0000E+00  0.0000E+00  0.0000E+00
    -51.140  0.4913E-15  0.2303E-10  0.2227E-04  0.1199E-08  0.6738E-04  0.9731E-10  0.4320E-13  0.5838E-12  0.4113E-10  0.4853E-13  0.1722E-14  0.4899E-11  0.1931E-14  0.6532E-11  0.1142E-09  0.2257E-14  0.1077E-14  0.2632E-10
    -50.922  0.4751E-06  0.1380E-05  0.1297E+01  0.7128E-04  0.3186E+01  0.4803E-05  0.7546E-01  0.8520E-07  0.2606E-05  0.6640E-08  0.1084E-09  0.2378E-06  0.2187E-06  0.4034E-06  0.6450E-05  0.1374E-09  0.6560E-06  0.1521E-05
    -50.704  0.8226E-04  0.2743E-05  0.3276E+01  0.1598E-03  0.1388E+01  0.3391E-06  0.2241E+01  0.1352E-05  0.6718E-05  0.1004E-06  0.4401E-09  0.1458E-07  0.3777E-04  0.1046E-05  0.2798E-05  0.1746E-09  0.1133E-03  0.3318E-05
    -50.486  0.7958E-04  0.3188E-08  0.8539E-03  0.1192E-06  0.2889E-03  0.9065E-09  0.2201E+01  0.6254E-06  0.1521E-08  0.5145E-07  0.4343E-09  0.4912E-10  0.3653E-04  0.1173E-08  0.5507E-09  0.1070E-09  0.1096E-03  0.9812E-09
    -50.269  0.3501E-06  0.1098E-10  0.5835E-12  0.3750E-09  0.2704E-13  0.4166E-11  0.5731E-01  0.1263E-07  0.1916E-12  0.1094E-08  0.2201E-11  0.8274E-12  0.1606E-06  0.4270E-11  0.1504E-12  0.5180E-11  0.4821E-06  0.9647E-12
    -50.051  0.0000E+00  0.0000E+00  0.0000E+00  0.0000E+00  0.0000E+00  0.0000E+00  0.0000E+00  0.0000E+00  0.0000E+00  0.0000E+00  0.0000E+00  0.0000E+00  0.0000E+00  0.0000E+00  0.0000E+00  0.0000E+00  0.0000E+00  0.0000E+00
    -49.833  0.0000E+00  0.0000E+00  0.0000E+00  0.0000E+00  0.0000E+00  0.0000E+00  0.0000E+00  0.0000E+00  0.0000E+00  0.0000E+00  0.0000E+00  0.0000E+00  0.0000E+00  0.0000E+00  0.0000E+00  0.0000E+00  0.0000E+00  0.0000E+00
    -49.615  0.0000E+00  0.0000E+00  0.0000E+00  0.0000E+00  0.0000E+00  0.0000E+00  0.0000E+00  0.0000E+00  0.0000E+00  0.0000E+00  0.0000E+00  0.0000E+00  0.0000E+00  0.0000E+00  0.0000E+00  0.0000E+00  0.0000E+00  0.0000E+00
    -49.398  0.0000E+00  0.0000E+00  0.0000E+00  0.0000E+00  0.0000E+00  0.0000E+00  0.0000E+00  0.0000E+00  0.0000E+00  0.0000E+00  0.0000E+00  0.0000E+00  0.0000E+00  0.0000E+00  0.0000E+00  0.0000E+00  0.0000E+00  0.0000E+00
    -49.180  0.0000E+00  0.0000E+00  0.0000E+00  0.0000E+00  0.0000E+00  0.0000E+00  0.0000E+00  0.0000E+00  0.0000E+00  0.0000E+00  0.0000E+00  0.0000E+00  0.0000E+00  0.0000E+00  0.0000E+00  0.0000E+00  0.0000E+00  0.0000E+00
    -48.962  0.0000E+00  0.0000E+00  0.0000E+00  0.0000E+00  0.0000E+00  0.0000E+00  0.0000E+00  0.0000E+00  0.0000E+00  0.0000E+00  0.0000E+00  0.0000E+00  0.0000E+00  0.0000E+00  0.0000E+00  0.0000E+00  0.0000E+00  0.0000E+00
    -48.744  0.0000E+00  0.0000E+00  0.0000E+00  0.0000E+00  0.0000E+00  0.0000E+00  0.0000E+00  0.0000E+00  0.0000E+00  0.0000E+00  0.0000E+00  0.0000E+00  0.0000E+00  0.0000E+00  0.0000E+00  0.0000E+00  0.0000E+00  0.0000E+00
    -48.527  0.0000E+00  0.0000E+00  0.0000E+00  0.0000E+00  0.0000E+00  0.0000E+00  0.0000E+00  0.0000E+00  0.0000E+00  0.0000E+00  0.0000E+00  0.0000E+00  0.0000E+00  0.0000E+00  0.0000E+00  0.0000E+00  0.0000E+00  0.0000E+00
    -48.309  0.7642E-09  0.1609E-09  0.3931E-07  0.5282E-03  0.7295E-09  0.6013E-03  0.6744E-10  0.4471E-04  0.3665E-11  0.1248E-08  0.8299E-10  0.2574E-13  0.2321E-09  0.7381E-10  0.1738E-13  0.1425E-08  0.8545E-09  0.2222E-09
    -48.091  0.3108E-05  0.3482E-04  0.1612E-03  0.2147E+01  0.2926E-05  0.2408E+01  0.1249E-05  0.1422E+01  0.9492E-07  0.5222E-05  0.3308E-06  0.9747E-09  0.9453E-06  0.1599E-04  0.1273E-09  0.5917E-05  0.3455E-05  0.4812E-04
    -47.873  0.4919E-06  0.1300E-03  0.2123E-04  0.4191E+00  0.1585E-06  0.3776E+00  0.9508E-06  0.1804E+01  0.8272E-07  0.1057E-05  0.1033E-07  0.3088E-08  0.1934E-06  0.5984E-04  0.7389E-10  0.9584E-06  0.5914E-06  0.1801E-03
    -47.656  0.2319E-05  0.3187E-04  0.1002E-03  0.2008E+01  0.7182E-06  0.1789E+01  0.4770E-06  0.1350E+01  0.4178E-07  0.4980E-05  0.4387E-07  0.7094E-09  0.9179E-06  0.1468E-04  0.8699E-10  0.4481E-05  0.2815E-05  0.4418E-04
    -47.438  0.2228E-14  0.7988E-10  0.2321E-12  0.1741E-08  0.1040E-14  0.1226E-08  0.5935E-11  0.2268E-04  0.6028E-12  0.9876E-15  0.1541E-15  0.1491E-14  0.7443E-15  0.3684E-10  0.6429E-15  0.6546E-15  0.6345E-15  0.1108E-09
    -47.220  0.0000E+00  0.0000E+00  0.0000E+00  0.0000E+00  0.0000E+00  0.0000E+00  0.0000E+00  0.0000E+00  0.0000E+00  0.0000E+00  0.0000E+00  0.0000E+00  0.0000E+00  0.0000E+00  0.0000E+00  0.0000E+00  0.0000E+00  0.0000E+00
    -47.002  0.0000E+00  0.0000E+00  0.0000E+00  0.0000E+00  0.0000E+00  0.0000E+00  0.0000E+00  0.0000E+00  0.0000E+00  0.0000E+00  0.0000E+00  0.0000E+00  0.0000E+00  0.0000E+00  0.0000E+00  0.0000E+00  0.0000E+00  0.0000E+00
    -46.785  0.0000E+00  0.0000E+00  0.0000E+00  0.0000E+00  0.0000E+00  0.0000E+00  0.0000E+00  0.0000E+00  0.0000E+00  0.0000E+00  0.0000E+00  0.0000E+00  0.0000E+00  0.0000E+00  0.0000E+00  0.0000E+00  0.0000E+00  0.0000E+00
    -46.567  0.0000E+00  0.0000E+00  0.0000E+00  0.0000E+00  0.0000E+00  0.0000E+00  0.0000E+00  0.0000E+00  0.0000E+00  0.0000E+00  0.0000E+00  0.0000E+00  0.0000E+00  0.0000E+00  0.0000E+00  0.0000E+00  0.0000E+00  0.0000E+00
    -46.349  0.0000E+00  0.0000E+00  0.0000E+00  0.0000E+00  0.0000E+00  0.0000E+00  0.0000E+00  0.0000E+00  0.0000E+00  0.0000E+00  0.0000E+00  0.0000E+00  0.0000E+00  0.0000E+00  0.0000E+00  0.0000E+00  0.0000E+00  0.0000E+00
    -46.131  0.0000E+00  0.0000E+00  0.0000E+00  0.0000E+00  0.0000E+00  0.0000E+00  0.0000E+00  0.0000E+00  0.0000E+00  0.0000E+00  0.0000E+00  0.0000E+00  0.0000E+00  0.0000E+00  0.0000E+00  0.0000E+00  0.0000E+00  0.0000E+00
    -45.914  0.0000E+00  0.0000E+00  0.0000E+00  0.0000E+00  0.0000E+00  0.0000E+00  0.0000E+00  0.0000E+00  0.0000E+00  0.0000E+00  0.0000E+00  0.0000E+00  0.0000E+00  0.0000E+00  0.0000E+00  0.0000E+00  0.0000E+00  0.0000E+00
    -45.696  0.0000E+00  0.0000E+00  0.0000E+00  0.0000E+00  0.0000E+00  0.0000E+00  0.0000E+00  0.0000E+00  0.0000E+00  0.0000E+00  0.0000E+00  0.0000E+00  0.0000E+00  0.0000E+00  0.0000E+00  0.0000E+00  0.0000E+00  0.0000E+00
    -45.478  0.0000E+00  0.0000E+00  0.0000E+00  0.0000E+00  0.0000E+00  0.0000E+00  0.0000E+00  0.0000E+00  0.0000E+00  0.0000E+00  0.0000E+00  0.0000E+00  0.0000E+00  0.0000E+00  0.0000E+00  0.0000E+00  0.0000E+00  0.0000E+00
    -45.260  0.0000E+00  0.0000E+00  0.0000E+00  0.0000E+00  0.0000E+00  0.0000E+00  0.0000E+00  0.0000E+00  0.0000E+00  0.0000E+00  0.0000E+00  0.0000E+00  0.0000E+00  0.0000E+00  0.0000E+00  0.0000E+00  0.0000E+00  0.0000E+00
    -45.042  0.0000E+00  0.0000E+00  0.0000E+00  0.0000E+00  0.0000E+00  0.0000E+00  0.0000E+00  0.0000E+00  0.0000E+00  0.0000E+00  0.0000E+00  0.0000E+00  0.0000E+00  0.0000E+00  0.0000E+00  0.0000E+00  0.0000E+00  0.0000E+00
    -44.825  0.0000E+00  0.0000E+00  0.0000E+00  0.0000E+00  0.0000E+00  0.0000E+00  0.0000E+00  0.0000E+00  0.0000E+00  0.0000E+00  0.0000E+00  0.0000E+00  0.0000E+00  0.0000E+00  0.0000E+00  0.0000E+00  0.0000E+00  0.0000E+00
    -44.607  0.0000E+00  0.0000E+00  0.0000E+00  0.0000E+00  0.0000E+00  0.0000E+00  0.0000E+00  0.0000E+00  0.0000E+00  0.0000E+00  0.0000E+00  0.0000E+00  0.0000E+00  0.0000E+00  0.0000E+00  0.0000E+00  0.0000E+00  0.0000E+00
    -44.389  0.0000E+00  0.0000E+00  0.0000E+00  0.0000E+00  0.0000E+00  0.0000E+00  0.0000E+00  0.0000E+00  0.0000E+00  0.0000E+00  0.0000E+00  0.0000E+00  0.0000E+00  0.0000E+00  0.0000E+00  0.0000E+00  0.0000E+00  0.0000E+00
    -44.171  0.0000E+00  0.0000E+00  0.0000E+00  0.0000E+00  0.0000E+00  0.0000E+00  0.0000E+00  0.0000E+00  0.0000E+00  0.0000E+00  0.0000E+00  0.0000E+00  0.0000E+00  0.0000E+00  0.0000E+00  0.0000E+00  0.0000E+00  0.0000E+00
    -43.954  0.0000E+00  0.0000E+00  0.0000E+00  0.0000E+00  0.0000E+00  0.0000E+00  0.0000E+00  0.0000E+00  0.0000E+00  0.0000E+00  0.0000E+00  0.0000E+00  0.0000E+00  0.0000E+00  0.0000E+00  0.0000E+00  0.0000E+00  0.0000E+00
    -43.736  0.0000E+00  0.0000E+00  0.0000E+00  0.0000E+00  0.0000E+00  0.0000E+00  0.0000E+00  0.0000E+00  0.0000E+00  0.0000E+00  0.0000E+00  0.0000E+00  0.0000E+00  0.0000E+00  0.0000E+00  0.0000E+00  0.0000E+00  0.0000E+00
    -43.518  0.0000E+00  0.0000E+00  0.0000E+00  0.0000E+00  0.0000E+00  0.0000E+00  0.0000E+00  0.0000E+00  0.0000E+00  0.0000E+00  0.0000E+00  0.0000E+00  0.0000E+00  0.0000E+00  0.0000E+00  0.0000E+00  0.0000E+00  0.0000E+00
    -43.300  0.0000E+00  0.0000E+00  0.0000E+00  0.0000E+00  0.0000E+00  0.0000E+00  0.0000E+00  0.0000E+00  0.0000E+00  0.0000E+00  0.0000E+00  0.0000E+00  0.0000E+00  0.0000E+00  0.0000E+00  0.0000E+00  0.0000E+00  0.0000E+00
    -43.083  0.0000E+00  0.0000E+00  0.0000E+00  0.0000E+00  0.0000E+00  0.0000E+00  0.0000E+00  0.0000E+00  0.0000E+00  0.0000E+00  0.0000E+00  0.0000E+00  0.0000E+00  0.0000E+00  0.0000E+00  0.0000E+00  0.0000E+00  0.0000E+00