  16  16   1   0
  0.1950000E+02  0.7482636E-09  0.7482636E-09  0.5662733E-09  0.5000000E-15
  1.000000000000000E-004
  CAR 
 unknown system                          
     11.26865007    -53.96199252  301      3.79322475      1.00000000
    -53.962  0.0000E+00  0.0000E+00  0.0000E+00  0.0000E+00
    -53.745  0.0000E+00  0.0000E+00  0.0000E+00  0.0000E+00
    -53.527  0.0000E+00  0.0000E+00  0.0000E+00  0.0000E+00
    -53.310  0.0000E+00  0.0000E+00  0.0000E+00  0.0000E+00
    -53.092  0.0000E+00  0.0000E+00  0.0000E+00  0.0000E+00
    -52.875  0.0000E+00  0.0000E+00  0.0000E+00  0.0000E+00
    -52.657  0.0000E+00  0.0000E+00  0.0000E+00  0.0000E+00
    -52.440  0.0000E+00  0.0000E+00  0.0000E+00  0.0000E+00
    -52.223  0.0000E+00  0.0000E+00  0.0000E+00  0.0000E+00
    -52.005  0.0000E+00  0.0000E+00  0.0000E+00  0.0000E+00
    -51.788  0.0000E+00  0.0000E+00  0.0000E+00  0.0000E+00
    -51.570  0.0000E+00  0.0000E+00  0.0000E+00  0.0000E+00
    -51.353  0.0000E+00  0.0000E+00  0.0000E+00  0.0000E+00
    -51.135  0.3805E-05  0.3805E-05  0.8274E-06  0.8274E-06
    -50.918  0.1837E+00  0.1837E+00  0.3995E-01  0.3995E-01
    -50.700  0.2823E+00  0.2823E+00  0.1013E+00  0.1013E+00
    -50.483  0.9023E-01  0.9023E-01  0.1209E+00  0.1209E+00
    -50.266  0.1248E-02  0.1248E-02  0.1212E+00  0.1212E+00
    -50.048  0.0000E+00  0.0000E+00  0.1212E+00  0.1212E+00
    -49.831  0.0000E+00  0.0000E+00  0.1212E+00  0.1212E+00
    -49.613  0.0000E+00  0.0000E+00  0.1212E+00  0.1212E+00
    -49.396  0.0000E+00  0.0000E+00  0.1212E+00  0.1212E+00
    -49.178  0.0000E+00  0.0000E+00  0.1212E+00  0.1212E+00
    -48.961  0.0000E+00  0.0000E+00  0.1212E+00  0.1212E+00
    -48.744  0.0000E+00  0.0000E+00  0.1212E+00  0.1212E+00
    -48.526  0.0000E+00  0.0000E+00  0.1212E+00  0.1212E+00
    -48.309  0.1062E-04  0.1062E-04  0.1212E+00  0.1212E+00
    -48.091  0.2302E+00  0.2302E+00  0.1713E+00  0.1713E+00
    -47.874  0.1027E+00  0.1027E+00  0.1936E+00  0.1936E+00
    -47.656  0.2245E+00  0.2245E+00  0.2424E+00  0.2424E+00
    -47.439  0.2037E-05  0.2037E-05  0.2424E+00  0.2424E+00
    -47.221  0.0000E+00  0.0000E+00  0.2424E+00  0.2424E+00
    -47.004  0.0000E+00  0.0000E+00  0.2424E+00  0.2424E+00
    -46.787  0.0000E+00  0.0000E+00  0.2424E+00  0.2424E+00
    -46.569  0.0000E+00  0.0000E+00  0.2424E+00  0.2424E+00
    -46.352  0.0000E+00  0.0000E+00  0.2424E+00  0.2424E+00
    -46.134  0.0000E+00  0.0000E+00  0.2424E+00  0.2424E+00
    -45.917  0.0000E+00  0.0000E+00  0.2424E+00  0.2424E+00
    -45.699  0.0000E+00  0.0000E+00  0.2424E+00  0.2424E+00
    -45.482  0.0000E+00  0.0000E+00  0.2424E+00  0.2424E+00
    -45.265  0.0000E+00  0.0000E+00  0.2424E+00  0.2424E+00
    -45.047  0.0000E+00  0.0000E+00  0.2424E+00  0.2424E+00
    -44.830  0.0000E+00  0.0000E+00  0.2424E+00  0.2424E+00
    -44.612  0.0000E+00  0.0000E+00  0.2424E+00  0.2424E+00
    -44.395  0.0000E+00  0.0000E+00  0.2424E+00  0.2424E+00
    -44.177  0.0000E+00  0.0000E+00  0.2424E+00  0.2424E+00
    -43.960  0.0000E+00  0.0000E+00  0.2424E+00  0.2424E+00
    -43.743  0.0000E+00  0.0000E+00  0.2424E+00  0.2424E+00
    -43.525  0.0000E+00  0.0000E+00  0.2424E+00  0.2424E+00
    -43.308  0.0000E+00  0.0000E+00  0.2424E+00  0.2424E+00
    -43.090  0.0000E+00  0.0000E+00  0.2424E+00  0.2424E+00
    -42.873  0.0000E+00  0.0000E+00  0.2424E+00  0.2424E+00
    -42.655  0.0000E+00  0.0000E+00  0.2424E+00  0.2424E+00
    -42.438  0.0000E+00  0.0000E+00  0.2424E+00  0.2424E+00
    -42.220  0.0000E+00  0.0000E+00  0.2424E+00  0.2424E+00
    -42.003  0.0000E+00  0.0000E+00  0.2424E+00  0.2424E+00
    -41.786  0.0000E+00  0.0000E+00  0.2424E+00  0.2424E+00
    -41.568  0.0000E+00  0.0000E+00  0.2424E+00  0.2424E+00
    -41.351  0.0000E+00  0.0000E+00  0.2424E+00  0.2424E+00
    -41.133  0.0000E+00  0.0000E+00  0.2424E+00  0.2424E+00
    -40.916  0.0000E+00  0.0000E+00  0.2424E+00  0.2424E+00
    -40.698  0.0000E+00  0.0000E+00  0.2424E+00  0.2424E+00
    -40.481  0.0000E+00  0.0000E+00  0.2424E+00  0.2424E+00
    -40.264  0.0000E+00  0.0000E+00  0.2424E+00  0.2424E+00
    -40.046  0.0000E+00  0.0000E+00  0.2424E+00  0.2424E+00
    -39.829  0.0000E+00  0.0000E+00  0.2424E+00  0.2424E+00
    -39.611  0.0000E+00  0.0000E+00  0.2424E+00  0.2424E+00
    -39.394  0.0000E+00  0.0000E+00  0.2424E+00  0.2424E+00
    -39.176  0.0000E+00  0.0000E+00  0.2424E+00  0.2424E+00
    -38.959  0.0000E+00  0.0000E+00  0.2424E+00  0.2424E+00
    -38.742  0.0000E+00  0.0000E+00  0.2424E+00  0.2424E+00
    -38.524  0.0000E+00  0.0000E+00  0.2424E+00  0.2424E+00
    -38.307  0.0000E+00  0.0000E+00  0.2424E+00  0.2424E+00
    -38.089  0.0000E+00  0.0000E+00  0.2424E+00  0.2424E+00
    -37.872  0.0000E+00  0.0000E+00  0.2424E+00  0.2424E+00
    -37.654  0.0000E+00  0.0000E+00  0.2424E+00  0.2424E+00
    -37.437  0.0000E+00  0.0000E+00  0.2424E+00  0.2424E+00
    -37.219  0.0000E+00  0.0000E+00  0.2424E+00  0.2424E+00
    -37.002  0.0000E+00  0.0000E+00  0.2424E+00  0.2424E+00
    -36.785  0.0000E+00  0.0000E+00  0.2424E+00  0.2424E+00
    -36.567  0.0000E+00  0.0000E+00  0.2424E+00  0.2424E+00
    -36.350  0.0000E+00  0.0000E+00  0.2424E+00  0.2424E+00
    -36.132  0.0000E+00  0.0000E+00  0.2424E+00  0.2424E+00
    -35.915  0.0000E+00  0.0000E+00  0.2424E+00  0.2424E+00
    -35.697  0.0000E+00  0.0000E+00  0.2424E+00  0.2424E+00
    -35.480  0.0000E+00  0.0000E+00  0.2424E+00  0.2424E+00
    -35.263  0.0000E+00  0.0000E+00  0.2424E+00  0.2424E+00
    -35.045  0.0000E+00  0.0000E+00  0.2424E+00  0.2424E+00
    -34.828  0.0000E+00  0.0000E+00  0.2424E+00  0.2424E+00
    -34.610  0.0000E+00  0.0000E+00  0.2424E+00  0.2424E+00
    -34.393  0.0000E+00  0.0000E+00  0.2424E+00  0.2424E+00
    -34.175  0.0000E+00  0.0000E+00  0.2424E+00  0.2424E+00
    -33.958  0.0000E+00  0.0000E+00  0.2424E+00  0.2424E+00
    -33.740  0.0000E+00  0.0000E+00  0.2424E+00  0.2424E+00
    -33.523  0.0000E+00  0.0000E+00  0.2424E+00  0.2424E+00
    -33.306  0.0000E+00  0.0000E+00  0.2424E+00  0.2424E+00
    -33.088  0.0000E+00  0.0000E+00  0.2424E+00  0.2424E+00
    -32.871  0.0000E+00  0.0000E+00  0.2424E+00  0.2424E+00
    -32.653  0.0000E+00  0.0000E+00  0.2424E+00  0.2424E+00
    -32.436  0.0000E+00  0.0000E+00  0.2424E+00  0.2424E+00
    -32.218  0.0000E+00  0.0000E+00  0.2424E+00  0.2424E+00
    -32.001  0.0000E+00  0.0000E+00  0.2424E+00  0.2424E+00
    -31.784  0.0000E+00  0.0000E+00  0.2424E+00  0.2424E+00
    -31.566  0.0000E+00  0.0000E+00  0.2424E+00  0.2424E+00
    -31.349  0.0000E+00  0.0000E+00  0.2424E+00  0.2424E+00
    -31.131  0.0000E+00  0.0000E+00  0.2424E+00  0.2424E+00
    -30.914  0.0000E+00  0.0000E+00  0.2424E+00  0.2424E+00
    -30.696  0.0000E+00  0.0000E+00  0.2424E+00  0.2424E+00
    -30.479  0.0000E+00  0.0000E+00  0.2424E+00  0.2424E+00
    -30.262  0.0000E+00  0.0000E+00  0.2424E+00  0.2424E+00
    -30.044  0.0000E+00  0.0000E+00  0.2424E+00  0.2424E+00
    -29.827  0.0000E+00  0.0000E+00  0.2424E+00  0.2424E+00
    -29.609  0.0000E+00  0.0000E+00  0.2424E+00  0.2424E+00
    -29.392  0.0000E+00  0.0000E+00  0.2424E+00  0.2424E+00
    -29.174  0.0000E+00  0.0000E+00  0.2424E+00  0.2424E+00
    -28.957  0.0000E+00  0.0000E+00  0.2424E+00  0.2424E+00
    -28.739  0.0000E+00  0.0000E+00  0.2424E+00  0.2424E+00
    -28.522  0.0000E+00  0.0000E+00  0.2424E+00  0.2424E+00
    -28.305  0.0000E+00  0.0000E+00  0.2424E+00  0.2424E+00
    -28.087  0.0000E+00  0.0000E+00  0.2424E+00  0.2424E+00
    -27.870  0.0000E+00  0.0000E+00  0.2424E+00  0.2424E+00
    -27.652  0.0000E+00  0.0000E+00  0.2424E+00  0.2424E+00
    -27.435  0.0000E+00  0.0000E+00  0.2424E+00  0.2424E+00
    -27.217  0.0000E+00  0.0000E+00  0.2424E+00  0.2424E+00
    -27.000  0.0000E+00  0.0000E+00  0.2424E+00  0.2424E+00
    -26.783  0.0000E+00  0.0000E+00  0.2424E+00  0.2424E+00
    -26.565  0.0000E+00  0.0000E+00  0.2424E+00  0.2424E+00
    -26.348  0.0000E+00  0.0000E+00  0.2424E+00  0.2424E+00
    -26.130  0.0000E+00  0.0000E+00  0.2424E+00  0.2424E+00
    -25.913  0.0000E+00  0.0000E+00  0.2424E+00  0.2424E+00
    -25.695  0.0000E+00  0.0000E+00  0.2424E+00  0.2424E+00
    -25.478  0.0000E+00  0.0000E+00  0.2424E+00  0.2424E+00
    -25.261  0.0000E+00  0.0000E+00  0.2424E+00  0.2424E+00
    -25.043  0.0000E+00  0.0000E+00  0.2424E+00  0.2424E+00
    -24.826  0.0000E+00  0.0000E+00  0.2424E+00  0.2424E+00
    -24.608  0.0000E+00  0.0000E+00  0.2424E+00  0.2424E+00
    -24.391  0.0000E+00  0.0000E+00  0.2424E+00  0.2424E+00
    -24.173  0.0000E+00  0.0000E+00  0.2424E+00  0.2424E+00
    -23.956  0.0000E+00  0.0000E+00  0.2424E+00  0.2424E+00
    -23.738  0.0000E+00  0.0000E+00  0.2424E+00  0.2424E+00
    -23.521  0.0000E+00  0.0000E+00  0.2424E+00  0.2424E+00
    -23.304  0.0000E+00  0.0000E+00  0.2424E+00  0.2424E+00
    -23.086  0.0000E+00  0.0000E+00  0.2424E+00  0.2424E+00
    -22.869  0.0000E+00  0.0000E+00  0.2424E+00  0.2424E+00
    -22.651  0.0000E+00  0.0000E+00  0.2424E+00  0.2424E+00
    -22.434  0.0000E+00  0.0000E+00  0.2424E+00  0.2424E+00
    -22.216  0.0000E+00  0.0000E+00  0.2424E+00  0.2424E+00
    -21.999  0.0000E+00  0.0000E+00  0.2424E+00  0.2424E+00
    -21.782  0.0000E+00  0.0000E+00  0.2424E+00  0.2424E+00
    -21.564  0.0000E+00  0.0000E+00  0.2424E+00  0.2424E+00
    -21.347  0.0000E+00  0.0000E+00  0.2424E+00  0.2424E+00
    -21.129  0.0000E+00  0.0000E+00  0.2424E+00  0.2424E+00
    -20.912  0.0000E+00  0.0000E+00  0.2424E+00  0.2424E+00
    -20.694  0.0000E+00  0.0000E+00  0.2424E+00  0.2424E+00
    -20.477  0.0000E+00  0.0000E+00  0.2424E+00  0.2424E+00
    -20.259  0.0000E+00  0.0000E+00  0.2424E+00  0.2424E+00
    -20.042  0.0000E+00  0.0000E+00  0.2424E+00  0.2424E+00
    -19.825  0.0000E+00  0.0000E+00  0.2424E+00  0.2424E+00
    -19.607  0.0000E+00  0.0000E+00  0.2424E+00  0.2424E+00
    -19.390  0.0000E+00  0.0000E+00  0.2424E+00  0.2424E+00
    -19.172  0.0000E+00  0.0000E+00  0.2424E+00  0.2424E+00
    -18.955  0.0000E+00  0.0000E+00  0.2424E+00  0.2424E+00
    -18.737  0.0000E+00  0.0000E+00  0.2424E+00  0.2424E+00
    -18.520  0.0000E+00  0.0000E+00  0.2424E+00  0.2424E+00
    -18.303  0.0000E+00  0.0000E+00  0.2424E+00  0.2424E+00
    -18.085  0.0000E+00  0.0000E+00  0.2424E+00  0.2424E+00
    -17.868  0.0000E+00  0.0000E+00  0.2424E+00  0.2424E+00
    -17.650  0.0000E+00  0.0000E+00  0.2424E+00  0.2424E+00
    -17.433  0.0000E+00  0.0000E+00  0.2424E+00  0.2424E+00
    -17.215  0.0000E+00  0.0000E+00  0.2424E+00  0.2424E+00
    -16.998  0.0000E+00  0.0000E+00  0.2424E+00  0.2424E+00
    -16.781  0.0000E+00  0.0000E+00  0.2424E+00  0.2424E+00
    -16.563  0.0000E+00  0.0000E+00  0.2424E+00  0.2424E+00
    -16.346  0.0000E+00  0.0000E+00  0.2424E+00  0.2424E+00
    -16.128  0.0000E+00  0.0000E+00  0.2424E+00  0.2424E+00
    -15.911  0.0000E+00  0.0000E+00  0.2424E+00  0.2424E+00
    -15.693  0.0000E+00  0.0000E+00  0.2424E+00  0.2424E+00
    -15.476  0.0000E+00  0.0000E+00  0.2424E+00  0.2424E+00
    -15.258  0.0000E+00  0.0000E+00  0.2424E+00  0.2424E+00
    -15.041  0.0000E+00  0.0000E+00  0.2424E+00  0.2424E+00
    -14.824  0.0000E+00  0.0000E+00  0.2424E+00  0.2424E+00
    -14.606  0.0000E+00  0.0000E+00  0.2424E+00  0.2424E+00
    -14.389  0.0000E+00  0.0000E+00  0.2424E+00  0.2424E+00
    -14.171  0.0000E+00  0.0000E+00  0.2424E+00  0.2424E+00
    -13.954  0.0000E+00  0.0000E+00  0.2424E+00  0.2424E+00
    -13.736  0.0000E+00  0.0000E+00  0.2424E+00  0.2424E+00
    -13.519  0.0000E+00  0.0000E+00  0.2424E+00  0.2424E+00
    -13.302  0.0000E+00  0.0000E+00  0.2424E+00  0.2424E+00
    -13.084  0.0000E+00  0.0000E+00  0.2424E+00  0.2424E+00
    -12.867  0.0000E+00  0.0000E+00  0.2424E+00  0.2424E+00
    -12.649  0.0000E+00  0.0000E+00  0.2424E+00  0.2424E+00
    -12.432  0.0000E+00  0.0000E+00  0.2424E+00  0.2424E+00
    -12.214  0.0000E+00  0.0000E+00  0.2424E+00  0.2424E+00
    -11.997  0.0000E+00  0.0000E+00  0.2424E+00  0.2424E+00
    -11.780  0.0000E+00  0.0000E+00  0.2424E+00  0.2424E+00
    -11.562  0.0000E+00  0.0000E+00  0.2424E+00  0.2424E+00
    -11.345  0.0000E+00  0.0000E+00  0.2424E+00  0.2424E+00
    -11.127  0.0000E+00  0.0000E+00  0.2424E+00  0.2424E+00
    -10.910  0.0000E+00  0.0000E+00  0.2424E+00  0.2424E+00
    -10.692  0.5494E-11  0.5494E-11  0.2424E+00  0.2424E+00
    -10.475  0.5963E-03  0.5963E-03  0.2426E+00  0.2426E+00
    -10.257  0.9087E-02  0.9087E-02  0.2445E+00  0.2445E+00
    -10.040  0.1804E-01  0.1804E-01  0.2485E+00  0.2485E+00
     -9.823  0.2703E-01  0.2703E-01  0.2543E+00  0.2543E+00
     -9.605  0.3261E-01  0.3261E-01  0.2614E+00  0.2614E+00
     -9.388  0.4814E-01  0.4814E-01  0.2719E+00  0.2719E+00
     -9.170  0.8615E-01  0.8615E-01  0.2906E+00  0.2906E+00
     -8.953  0.8096E-01  0.8096E-01  0.3082E+00  0.3082E+00
     -8.735  0.6302E-01  0.6302E-01  0.3219E+00  0.3219E+00
     -8.518  0.6012E-02  0.6012E-02  0.3232E+00  0.3232E+00
     -8.301  0.6427E-06  0.6427E-06  0.3232E+00  0.3232E+00
     -8.083  0.0000E+00  0.0000E+00  0.3232E+00  0.3232E+00
     -7.866  0.0000E+00  0.0000E+00  0.3232E+00  0.3232E+00
     -7.648  0.0000E+00  0.0000E+00  0.3232E+00  0.3232E+00
     -7.431  0.0000E+00  0.0000E+00  0.3232E+00  0.3232E+00
     -7.213  0.0000E+00  0.0000E+00  0.3232E+00  0.3232E+00
     -6.996  0.0000E+00  0.0000E+00  0.3232E+00  0.3232E+00
     -6.778  0.0000E+00  0.0000E+00  0.3232E+00  0.3232E+00
     -6.561  0.0000E+00  0.0000E+00  0.3232E+00  0.3232E+00
     -6.344  0.0000E+00  0.0000E+00  0.3232E+00  0.3232E+00
     -6.126  0.0000E+00  0.0000E+00  0.3232E+00  0.3232E+00
     -5.909  0.0000E+00  0.0000E+00  0.3232E+00  0.3232E+00
     -5.691  0.0000E+00  0.0000E+00  0.3232E+00  0.3232E+00
     -5.474  0.0000E+00  0.0000E+00  0.3232E+00  0.3232E+00
     -5.256  0.0000E+00  0.0000E+00  0.3232E+00  0.3232E+00
     -5.039  0.0000E+00  0.0000E+00  0.3232E+00  0.3232E+00
     -4.822  0.0000E+00  0.0000E+00  0.3232E+00  0.3232E+00
     -4.604  0.0000E+00  0.0000E+00  0.3232E+00  0.3232E+00
     -4.387  0.0000E+00  0.0000E+00  0.3232E+00  0.3232E+00
     -4.169  0.0000E+00  0.0000E+00  0.3232E+00  0.3232E+00
     -3.952  0.0000E+00  0.0000E+00  0.3232E+00  0.3232E+00
     -3.734  0.0000E+00  0.0000E+00  0.3232E+00  0.3232E+00
     -3.517  0.0000E+00  0.0000E+00  0.3232E+00  0.3232E+00
     -3.300  0.0000E+00  0.0000E+00  0.3232E+00  0.3232E+00
     -3.082  0.0000E+00  0.0000E+00  0.3232E+00  0.3232E+00
     -2.865  0.0000E+00  0.0000E+00  0.3232E+00  0.3232E+00
     -2.647  0.0000E+00  0.0000E+00  0.3232E+00  0.3232E+00
     -2.430  0.1125E-06  0.1125E-06  0.3232E+00  0.3232E+00
     -2.212  0.9676E-03  0.9676E-03  0.3234E+00  0.3234E+00
     -1.995  0.6228E-02  0.6228E-02  0.3248E+00  0.3248E+00
     -1.777  0.3352E-01  0.3352E-01  0.3321E+00  0.3321E+00
     -1.560  0.6474E-01  0.6474E-01  0.3462E+00  0.3462E+00
     -1.343  0.7381E-01  0.7381E-01  0.3622E+00  0.3622E+00
     -1.125  0.5302E-01  0.5302E-01  0.3737E+00  0.3737E+00
     -0.908  0.6144E-01  0.6144E-01  0.3871E+00  0.3871E+00
     -0.690  0.5175E-01  0.5175E-01  0.3984E+00  0.3984E+00
     -0.473  0.7091E-01  0.7091E-01  0.4138E+00  0.4138E+00
     -0.255  0.6255E-01  0.6255E-01  0.4274E+00  0.4274E+00
     -0.038  0.9364E-01  0.9364E-01  0.4477E+00  0.4477E+00
      0.179  0.1149E+00  0.1149E+00  0.4727E+00  0.4727E+00
      0.397  0.1030E+00  0.1030E+00  0.4951E+00  0.4951E+00
      0.614  0.1182E+00  0.1182E+00  0.5208E+00  0.5208E+00
      0.832  0.8551E-01  0.8551E-01  0.5394E+00  0.5394E+00
      1.049  0.7052E-01  0.7052E-01  0.5547E+00  0.5547E+00
      1.267  0.8745E-01  0.8745E-01  0.5737E+00  0.5737E+00
      1.484  0.1141E+00  0.1141E+00  0.5986E+00  0.5986E+00
      1.701  0.1232E+00  0.1232E+00  0.6253E+00  0.6253E+00
      1.919  0.1821E+00  0.1821E+00  0.6649E+00  0.6649E+00
      2.136  0.1637E+00  0.1637E+00  0.7005E+00  0.7005E+00
      2.354  0.8291E-01  0.8291E-01  0.7186E+00  0.7186E+00
      2.571  0.7529E-01  0.7529E-01  0.7349E+00  0.7349E+00
      2.789  0.6119E-01  0.6119E-01  0.7482E+00  0.7482E+00
      3.006  0.6155E-01  0.6155E-01  0.7616E+00  0.7616E+00
      3.224  0.4084E-01  0.4084E-01  0.7705E+00  0.7705E+00
      3.441  0.4630E-01  0.4630E-01  0.7806E+00  0.7806E+00
      3.658  0.7059E-01  0.7059E-01  0.7959E+00  0.7959E+00
      3.876  0.8096E-01  0.8096E-01  0.8135E+00  0.8135E+00
      4.093  0.7820E-01  0.7820E-01  0.8305E+00  0.8305E+00
      4.311  0.1488E+00  0.1488E+00  0.8629E+00  0.8629E+00
      4.528  0.9701E-01  0.9701E-01  0.8840E+00  0.8840E+00
      4.746  0.1007E+00  0.1007E+00  0.9059E+00  0.9059E+00
      4.963  0.8623E-01  0.8623E-01  0.9246E+00  0.9246E+00
      5.180  0.1013E+00  0.1013E+00  0.9466E+00  0.9466E+00
      5.398  0.5726E-01  0.5726E-01  0.9591E+00  0.9591E+00
      5.615  0.1157E-01  0.1157E-01  0.9616E+00  0.9616E+00
      5.833  0.1250E-01  0.1250E-01  0.9643E+00  0.9643E+00
      6.050  0.1548E-01  0.1548E-01  0.9677E+00  0.9677E+00
      6.268  0.9163E-02  0.9163E-02  0.9697E+00  0.9697E+00
      6.485  0.7085E-02  0.7085E-02  0.9712E+00  0.9712E+00
      6.703  0.6859E-02  0.6859E-02  0.9727E+00  0.9727E+00
      6.920  0.1018E-01  0.1018E-01  0.9749E+00  0.9749E+00
      7.137  0.1453E-01  0.1453E-01  0.9781E+00  0.9781E+00
      7.355  0.2229E-01  0.2229E-01  0.9829E+00  0.9829E+00
      7.572  0.3472E-01  0.3473E-01  0.9905E+00  0.9905E+00
      7.790  0.4642E-01  0.4642E-01  0.1001E+01  0.1001E+01
      8.007  0.2931E-01  0.2920E-01  0.1007E+01  0.1007E+01
      8.225  0.1227E-01  0.1241E-01  0.1010E+01  0.1010E+01
      8.442  0.2267E-02  0.2237E-02  0.1010E+01  0.1010E+01
      8.659  0.3831E-07  0.2459E-07  0.1010E+01  0.1010E+01
      8.877  0.0000E+00  0.0000E+00  0.1010E+01  0.1010E+01
      9.094  0.0000E+00  0.0000E+00  0.1010E+01  0.1010E+01
      9.312  0.0000E+00  0.0000E+00  0.1010E+01  0.1010E+01
      9.529  0.0000E+00  0.0000E+00  0.1010E+01  0.1010E+01
      9.747  0.0000E+00  0.0000E+00  0.1010E+01  0.1010E+01
      9.964  0.0000E+00  0.0000E+00  0.1010E+01  0.1010E+01
     10.181  0.0000E+00  0.0000E+00  0.1010E+01  0.1010E+01
     10.399  0.0000E+00  0.0000E+00  0.1010E+01  0.1010E+01
     10.616  0.0000E+00  0.0000E+00  0.1010E+01  0.1010E+01
     10.834  0.0000E+00  0.0000E+00  0.1010E+01  0.1010E+01
     11.051  0.0000E+00  0.0000E+00  0.1010E+01  0.1010E+01
     11.269  0.0000E+00  0.0000E+00  0.1010E+01  0.1010E+01
     11.26865007    -53.96199252  301      3.79322475      1.00000000
    -53.962  0.0000E+00  0.0000E+00  0.0000E+00  0.0000E+00  0.0000E+00  0.0000E+00  0.0000E+00  0.0000E+00  0.0000E+00  0.0000E+00  0.0000E+00  0.0000E+00  0.0000E+00  0.0000E+00  0.0000E+00  0.0000E+00  0.0000E+00  0.0000E+00
    -53.745  0.0000E+00  0.0000E+00  0.0000E+00  0.0000E+00  0.0000E+00  0.0000E+00  0.0000E+00  0.0000E+00  0.0000E+00  0.0000E+00  0.0000E+00  0.0000E+00  0.0000E+00  0.0000E+00  0.0000E+00  0.0000E+00  0.0000E+00  0.0000E+00
    -53.527  0.0000E+00  0.0000E+00  0.0000E+00  0.0000E+00  0.0000E+00  0.0000E+00  0.0000E+00  0.0000E+00  0.0000E+00  0.0000E+00  0.0000E+00  0.0000E+00  0.0000E+00  0.0000E+00  0.0000E+00  0.0000E+00  0.0000E+00  0.0000E+00
    -53.310  0.0000E+00  0.0000E+00  0.0000E+00  0.0000E+00  0.0000E+00  0.0000E+00  0.0000E+00  0.0000E+00  0.0000E+00  0.0000E+00  0.0000E+00  0.0000E+00  0.0000E+00  0.0000E+00  0.0000E+00  0.0000E+00  0.0000E+00  0.0000E+00
    -53.092  0.0000E+00  0.0000E+00  0.0000E+00  0.0000E+00  0.0000E+00  0.0000E+00  0.0000E+00  0.0000E+00  0.0000E+00  0.0000E+00  0.0000E+00  0.0000E+00  0.0000E+00  0.0000E+00  0.0000E+00  0.0000E+00  0.0000E+00  0.0000E+00
    -52.875  0.0000E+00  0.0000E+00  0.0000E+00  0.0000E+00  0.0000E+00  0.0000E+00  0.0000E+00  0.0000E+00  0.0000E+00  0.0000E+00  0.0000E+00  0.0000E+00  0.0000E+00  0.0000E+00  0.0000E+00  0.0000E+00  0.0000E+00  0.0000E+00
    -52.657  0.0000E+00  0.0000E+00  0.0000E+00  0.0000E+00  0.0000E+00  0.0000E+00  0.0000E+00  0.0000E+00  0.0000E+00  0.0000E+00  0.0000E+00  0.0000E+00  0.0000E+00  0.0000E+00  0.0000E+00  0.0000E+00  0.0000E+00  0.0000E+00
    -52.440  0.0000E+00  0.0000E+00  0.0000E+00  0.0000E+00  0.0000E+00  0.0000E+00  0.0000E+00  0.0000E+00  0.0000E+00  0.0000E+00  0.0000E+00  0.0000E+00  0.0000E+00  0.0000E+00  0.0000E+00  0.0000E+00  0.0000E+00  0.0000E+00
    -52.223  0.0000E+00  0.0000E+00  0.0000E+00  0.0000E+00  0.0000E+00  0.0000E+00  0.0000E+00  0.0000E+00  0.0000E+00  0.0000E+00  0.0000E+00  0.0000E+00  0.0000E+00  0.0000E+00  0.0000E+00  0.0000E+00  0.0000E+00  0.0000E+00
    -52.005  0.0000E+00  0.0000E+00  0.0000E+00  0.0000E+00  0.0000E+00  0.0000E+00  0.0000E+00  0.0000E+00  0.0000E+00  0.0000E+00  0.0000E+00  0.0000E+00  0.0000E+00  0.0000E+00  0.0000E+00  0.0000E+00  0.0000E+00  0.0000E+00
    -51.788  0.0000E+00  0.0000E+00  0.0000E+00  0.0000E+00  0.0000E+00  0.0000E+00  0.0000E+00  0.0000E+00  0.0000E+00  0.0000E+00  0.0000E+00  0.0000E+00  0.0000E+00  0.0000E+00  0.0000E+00  0.0000E+00  0.0000E+00  0.0000E+00
    -51.570  0.0000E+00  0.0000E+00  0.0000E+00  0.0000E+00  0.0000E+00  0.0000E+00  0.0000E+00  0.0000E+00  0.0000E+00  0.0000E+00  0.0000E+00  0.0000E+00  0.0000E+00  0.0000E+00  0.0000E+00  0.0000E+00  0.0000E+00  0.0000E+00
    -51.353  0.0000E+00  0.0000E+00  0.0000E+00  0.0000E+00  0.0000E+00  0.0000E+00  0.0000E+00  0.0000E+00  0.0000E+00  0.0000E+00  0.0000E+00  0.0000E+00  0.0000E+00  0.0000E+00  0.0000E+00  0.0000E+00  0.0000E+00  0.0000E+00
    -51.135  0.6251E-15  0.2428E-10  0.2242E-04  0.1248E-08  0.7136E-04  0.1032E-09  0.6768E-14  0.5560E-12  0.3607E-10  0.4008E-13  0.2850E-15  0.5268E-11  0.3942E-15  0.7140E-11  0.1064E-09  0.2140E-14  0.7632E-15  0.2828E-10
    -50.918  0.2367E-06  0.1368E-05  0.1229E+01  0.6977E-04  0.3254E+01  0.4876E-05  0.4393E-01  0.6124E-07  0.2139E-05  0.4583E-08  0.1544E-10  0.2445E-06  0.1080E-06  0.4104E-06  0.5708E-05  0.1166E-09  0.3241E-06  0.1539E-05
    -50.700  0.7296E-04  0.2941E-05  0.3350E+01  0.1696E-03  0.1326E+01  0.3629E-06  0.2281E+01  0.1394E-05  0.5923E-05  0.1063E-06  0.3974E-09  0.1595E-07  0.3339E-04  0.1155E-05  0.2307E-05  0.9650E-10  0.1002E-03  0.3637E-05
    -50.483  0.6996E-04  0.3546E-08  0.1441E-02  0.1446E-06  0.4645E-03  0.8625E-09  0.2226E+01  0.6580E-06  0.2255E-08  0.5647E-07  0.2959E-09  0.2030E-10  0.3203E-04  0.1339E-08  0.7698E-09  0.4785E-10  0.9609E-04  0.1637E-08
    -50.266  0.1604E-06  0.5279E-11  0.3388E-12  0.1821E-09  0.1320E-13  0.1833E-11  0.3084E-01  0.7170E-08  0.7991E-13  0.6429E-09  0.6434E-12  0.2123E-12  0.7329E-07  0.2203E-11  0.4215E-13  0.1041E-11  0.2200E-06  0.3208E-12
    -50.048  0.0000E+00  0.0000E+00  0.0000E+00  0.0000E+00  0.0000E+00  0.0000E+00  0.0000E+00  0.0000E+00  0.0000E+00  0.0000E+00  0.0000E+00  0.0000E+00  0.0000E+00  0.0000E+00  0.0000E+00  0.0000E+00  0.0000E+00  0.0000E+00
    -49.831  0.0000E+00  0.0000E+00  0.0000E+00  0.0000E+00  0.0000E+00  0.0000E+00  0.0000E+00  0.0000E+00  0.0000E+00  0.0000E+00  0.0000E+00  0.0000E+00  0.0000E+00  0.0000E+00  0.0000E+00  0.0000E+00  0.0000E+00  0.0000E+00
    -49.613  0.0000E+00  0.0000E+00  0.0000E+00  0.0000E+00  0.0000E+00  0.0000E+00  0.0000E+00  0.0000E+00  0.0000E+00  0.0000E+00  0.0000E+00  0.0000E+00  0.0000E+00  0.0000E+00  0.0000E+00  0.0000E+00  0.0000E+00  0.0000E+00
    -49.396  0.0000E+00  0.0000E+00  0.0000E+00  0.0000E+00  0.0000E+00  0.0000E+00  0.0000E+00  0.0000E+00  0.0000E+00  0.0000E+00  0.0000E+00  0.0000E+00  0.0000E+00  0.0000E+00  0.0000E+00  0.0000E+00  0.0000E+00  0.0000E+00
    -49.178  0.0000E+00  0.0000E+00  0.0000E+00  0.0000E+00  0.0000E+00  0.0000E+00  0.0000E+00  0.0000E+00  0.0000E+00  0.0000E+00  0.0000E+00  0.0000E+00  0.0000E+00  0.0000E+00  0.0000E+00  0.0000E+00  0.0000E+00  0.0000E+00
    -48.961  0.0000E+00  0.0000E+00  0.0000E+00  0.0000E+00  0.0000E+00  0.0000E+00  0.0000E+00  0.0000E+00  0.0000E+00  0.0000E+00  0.0000E+00  0.0000E+00  0.0000E+00  0.0000E+00  0.0000E+00  0.0000E+00  0.0000E+00  0.0000E+00
    -48.744  0.0000E+00  0.0000E+00  0.0000E+00  0.0000E+00  0.0000E+00  0.0000E+00  0.0000E+00  0.0000E+00  0.0000E+00  0.0000E+00  0.0000E+00  0.0000E+00  0.0000E+00  0.0000E+00  0.0000E+00  0.0000E+00  0.0000E+00  0.0000E+00
    -48.526  0.0000E+00  0.0000E+00  0.0000E+00  0.0000E+00  0.0000E+00  0.0000E+00  0.0000E+00  0.0000E+00  0.0000E+00  0.0000E+00  0.0000E+00  0.0000E+00  0.0000E+00  0.0000E+00  0.0000E+00  0.0000E+00  0.0000E+00  0.0000E+00
    -48.309  0.1802E-09  0.3443E-11  0.9173E-08  0.1193E-03  0.1724E-09  0.1413E-03  0.7333E-11  0.1192E-05  0.1956E-12  0.2457E-09  0.1957E-10  0.2751E-14  0.5567E-10  0.1568E-11  0.4062E-14  0.2899E-09  0.2041E-09  0.4717E-11
    -48.091  0.3169E-05  0.2008E-04  0.1627E-03  0.2095E+01  0.2974E-05  0.2434E+01  0.1047E-05  0.1143E+01  0.8053E-07  0.4433E-05  0.3357E-06  0.6460E-09  0.9796E-06  0.9180E-05  0.1247E-09  0.5184E-05  0.3561E-05  0.2762E-04
    -47.874  0.3689E-06  0.1200E-03  0.1598E-04  0.2936E+00  0.1308E-06  0.2612E+00  0.1141E-05  0.1978E+01  0.1012E-06  0.6417E-06  0.9937E-08  0.2459E-08  0.1440E-06  0.5511E-04  0.6863E-10  0.5716E-06  0.4431E-06  0.1657E-03
    -47.656  0.2665E-05  0.3371E-04  0.1139E-03  0.2193E+01  0.7899E-06  0.1886E+01  0.5433E-06  0.1461E+01  0.4905E-07  0.4726E-05  0.4973E-07  0.5694E-09  0.1066E-05  0.1549E-04  0.6418E-10  0.4082E-05  0.3259E-05  0.4658E-04
    -47.439  0.1289E-11  0.1658E-09  0.5592E-10  0.1073E-05  0.3823E-12  0.9034E-06  0.1345E-10  0.4838E-04  0.1402E-11  0.2208E-11  0.2405E-13  0.2120E-14  0.5147E-12  0.7629E-10  0.1196E-14  0.1886E-11  0.1585E-11  0.2294E-09
    -47.221  0.0000E+00  0.0000E+00  0.0000E+00  0.0000E+00  0.0000E+00  0.0000E+00  0.0000E+00  0.0000E+00  0.0000E+00  0.0000E+00  0.0000E+00  0.0000E+00  0.0000E+00  0.0000E+00  0.0000E+00  0.0000E+00  0.0000E+00  0.0000E+00
    -47.004  0.0000E+00  0.0000E+00  0.0000E+00  0.0000E+00  0.0000E+00  0.0000E+00  0.0000E+00  0.0000E+00  0.0000E+00  0.0000E+00  0.0000E+00  0.0000E+00  0.0000E+00  0.0000E+00  0.0000E+00  0.0000E+00  0.0000E+00  0.0000E+00
    -46.787  0.0000E+00  0.0000E+00  0.0000E+00  0.0000E+00  0.0000E+00  0.0000E+00  0.0000E+00  0.0000E+00  0.0000E+00  0.0000E+00  0.0000E+00  0.0000E+00  0.0000E+00  0.0000E+00  0.0000E+00  0.0000E+00  0.0000E+00  0.0000E+00
    -46.569  0.0000E+00  0.0000E+00  0.0000E+00  0.0000E+00  0.0000E+00  0.0000E+00  0.0000E+00  0.0000E+00  0.0000E+00  0.0000E+00  0.0000E+00  0.0000E+00  0.0000E+00  0.0000E+00  0.0000E+00  0.0000E+00  0.0000E+00  0.0000E+00
    -46.352  0.0000E+00  0.0000E+00  0.0000E+00  0.0000E+00  0.0000E+00  0.0000E+00  0.0000E+00  0.0000E+00  0.0000E+00  0.0000E+00  0.0000E+00  0.0000E+00  0.0000E+00  0.0000E+00  0.0000E+00  0.0000E+00  0.0000E+00  0.0000E+00
    -46.134  0.0000E+00  0.0000E+00  0.0000E+00  0.0000E+00  0.0000E+00  0.0000E+00  0.0000E+00  0.0000E+00  0.0000E+00  0.0000E+00  0.0000E+00  0.0000E+00  0.0000E+00  0.0000E+00  0.0000E+00  0.0000E+00  0.0000E+00  0.0000E+00
    -45.917  0.0000E+00  0.0000E+00  0.0000E+00  0.0000E+00  0.0000E+00  0.0000E+00  0.0000E+00  0.0000E+00  0.0000E+00  0.0000E+00  0.0000E+00  0.0000E+00  0.0000E+00  0.0000E+00  0.0000E+00  0.0000E+00  0.0000E+00  0.0000E+00
    -45.699  0.0000E+00  0.0000E+00  0.0000E+00  0.0000E+00  0.0000E+00  0.0000E+00  0.0000E+00  0.0000E+00  0.0000E+00  0.0000E+00  0.0000E+00  0.0000E+00  0.0000E+00  0.0000E+00  0.0000E+00  0.0000E+00  0.0000E+00  0.0000E+00
    -45.482  0.0000E+00  0.0000E+00  0.0000E+00  0.0000E+00  0.0000E+00  0.0000E+00  0.0000E+00  0.0000E+00  0.0000E+00  0.0000E+00  0.0000E+00  0.0000E+00  0.0000E+00  0.0000E+00  0.0000E+00  0.0000E+00  0.0000E+00  0.0000E+00
    -45.265  0.0000E+00  0.0000E+00  0.0000E+00  0.0000E+00  0.0000E+00  0.0000E+00  0.0000E+00  0.0000E+00  0.0000E+00  0.0000E+00  0.0000E+00  0.0000E+00  0.0000E+00  0.0000E+00  0.0000E+00  0.0000E+00  0.0000E+00  0.0000E+00
    -45.047  0.0000E+00  0.0000E+00  0.0000E+00  0.0000E+00  0.0000E+00  0.0000E+00  0.0000E+00  0.0000E+00  0.0000E+00  0.0000E+00  0.0000E+00  0.0000E+00  0.0000E+00  0.0000E+00  0.0000E+00  0.0000E+00  0.0000E+00  0.0000E+00
    -44.830  0.0000E+00  0.0000E+00  0.0000E+00  0.0000E+00  0.0000E+00  0.0000E+00  0.0000E+00  0.0000E+00  0.0000E+00  0.0000E+00  0.0000E+00  0.0000E+00  0.0000E+00  0.0000E+00  0.0000E+00  0.0000E+00  0.0000E+00  0.0000E+00
    -44.612  0.0000E+00  0.0000E+00  0.0000E+00  0.0000E+00  0.0000E+00  0.0000E+00  0.0000E+00  0.0000E+00  0.0000E+00  0.0000E+00  0.0000E+00  0.0000E+00  0.0000E+00  0.0000E+00  0.0000E+00  0.0000E+00  0.0000E+00  0.0000E+00
    -44.395  0.0000E+00  0.0000E+00  0.0000E+00  0.0000E+00  0.0000E+00  0.0000E+00  0.0000E+00  0.0000E+00  0.0000E+00  0.0000E+00  0.0000E+00  0.0000E+00  0.0000E+00  0.0000E+00  0.0000E+00  0.0000E+00  0.0000E+00  0.0000E+00
    -44.177  0.0000E+00  0.0000E+00  0.0000E+00  0.0000E+00  0.0000E+00  0.0000E+00  0.0000E+00  0.0000E+00  0.0000E+00  0.0000E+00  0.0000E+00  0.0000E+00  0.0000E+00  0.0000E+00  0.0000E+00  0.0000E+00  0.0000E+00  0.0000E+00
    -43.960  0.0000E+00  0.0000E+00  0.0000E+00  0.0000E+00  0.0000E+00  0.0000E+00  0.0000E+00  0.0000E+00  0.0000E+00  0.0000E+00  0.0000E+00  0.0000E+00  0.0000E+00  0.0000E+00  0.0000E+00  0.0000E+00  0.0000E+00  0.0000E+00
    -43.743  0.0000E+00  0.0000E+00  0.0000E+00  0.0000E+00  0.0000E+00  0.0000E+00  0.0000E+00  0.0000E+00  0.0000E+00  0.0000E+00  0.0000E+00  0.0000E+00  0.0000E+00  0.0000E+00  0.0000E+00  0.0000E+00  0.0000E+00  0.0000E+00
    -43.525  0.0000E+00  0.0000E+00  0.0000E+00  0.0000E+00  0.0000E+00  0.0000E+00  0.0000E+00  0.0000E+00  0.0000E+00  0.0000E+00  0.0000E+00  0.0000E+00  0.0000E+00  0.0000E+00  0.0000E+00  0.0000E+00  0.0000E+00  0.0000E+00
    -43.308  0.0000E+00  0.0000E+00  0.0000E+00  0.0000E+00  0.0000E+00  0.0000E+00  0.0000E+00  0.0000E+00  0.0000E+00  0.0000E+00  0.0000E+00  0.0000E+00  0.0000E+00  0.0000E+00  0.0000E+00  0.0000E+00  0.0000E+00  0.0000E+00
    -43.090  0.0000E+00  0.0000E+00  0.0000E+00  0.0000E+00  0.0000E+00  0.0000E+00  0.0000E+00  0.0000E+00  0.0000E+00  0.0000E+00  0.0000E+00  0.0000E+00  0.0000E+00  0.0000E+00  0.0000E+00  0.0000E+00  0.0000E+00  0.0000E+00