       N       E                     dE             d eps       ncg     rms          rms(c)
DAV:   1     0.201204985617E+04    0.20120E+04   -0.88906E+04 35140   0.196E+03
DAV:   2     0.121253198573E+03   -0.18908E+04   -0.18362E+04 32000   0.572E+02
DAV:   3    -0.850305383792E+02   -0.20628E+03   -0.18283E+03 45760   0.187E+02
DAV:   4    -0.994782665746E+02   -0.14448E+02   -0.14122E+02 47080   0.512E+01
DAV:   5    -0.998218501438E+02   -0.34358E+00   -0.34293E+00 45020   0.824E+00    0.277E+01
RMM:   6    -0.113478789865E+03   -0.13657E+02   -0.17339E+02 34818   0.852E+01    0.529E+01
RMM:   7    -0.908143417931E+02    0.22664E+02   -0.44798E+01 32076   0.511E+01    0.110E+01
RMM:   8    -0.914679950974E+02   -0.65365E+00   -0.35606E+00 46000   0.523E+00    0.526E+00
RMM:   9    -0.915462062104E+02   -0.78211E-01   -0.93559E-01 51034   0.289E+00    0.276E+00
RMM:  10    -0.915626859440E+02   -0.16480E-01   -0.28530E-01 51991   0.162E+00    0.139E+00
RMM:  11    -0.915650294706E+02   -0.23435E-02   -0.60342E-02 49609   0.956E-01    0.478E-01
RMM:  12    -0.915724781475E+02   -0.74487E-02   -0.14991E-02 49147   0.408E-01    0.266E-01
RMM:  13    -0.915722656648E+02    0.21248E-03   -0.37016E-03 42403   0.207E-01    0.125E-01
RMM:  14    -0.915721155695E+02    0.15010E-03   -0.11047E-03 30277   0.125E-01
   1 F= -.98342668E+02 E0= -.98342668E+02  d E =0.000000E+00  mag=     0.0000
