 vasp.6.4.1 05Apr23 (build Jun 01 2023 13:46:15) complex                        
  
 executed on             LinuxIFC date 2023.12.16  22:42:31
 running   20 mpi-ranks, on    5 nodes
 distrk:  each k-point on   20 cores,    1 groups
 distr:  one band on NCORE=   1 cores,   20 groups


--------------------------------------------------------------------------------------------------------


 INCAR:
   ALGO = Fast
   EDIFF = 0.0002
   ENCUT = 550
   IBRION = -1
   ISIF = 4
   ISMEAR = -5
   ISPIN = 2
   IVDW = 13
   LASPH = True
   LMAXMIX = 4
   LORBIT = 11
   LREAL = Auto
   LWAVE = False
   MAGMOM = 1*2.572 2*-2.572 2*2.572 2*-2.572 1*2.572 8*0.0
   NELM = 100
   NSW = 0
   PREC = Accurate
   SIGMA = 0.05

 POTCAR:   PAW_PBE Fe_pv 06Sep2000                
 POTCAR:   PAW_PBE Se 06Sep2000                   
 -----------------------------------------------------------------------------
|                                                                             |
|           W    W    AA    RRRRR   N    N  II  N    N   GGGG   !!!           |
|           W    W   A  A   R    R  NN   N  II  NN   N  G    G  !!!           |
|           W    W  A    A  R    R  N N  N  II  N N  N  G       !!!           |
|           W WW W  AAAAAA  RRRRR   N  N N  II  N  N N  G  GGG   !            |
|           WW  WW  A    A  R   R   N   NN  II  N   NN  G    G                |
|           W    W  A    A  R    R  N    N  II  N    N   GGGG   !!!           |
|                                                                             |
|     For optimal performance we recommend to set                             |
|       NCORE = 2 up to number-of-cores-per-socket                            |
|     NCORE specifies how many cores store one orbital (NPAR=cpu/NCORE).      |
|     This setting can greatly improve the performance of VASP for DFT.       |
|     The default, NCORE=1 might be grossly inefficient on modern             |
|     multi-core architectures or massively parallel machines. Do your        |
|     own testing! More info at https://www.vasp.at/wiki/index.php/NCORE      |
|     Unfortunately you need to use the default for GW and RPA                |
|     calculations (for HF NCORE is supported but not extensively tested      |
|     yet).                                                                   |
|                                                                             |
 -----------------------------------------------------------------------------

 POTCAR:   PAW_PBE Fe_pv 06Sep2000                
   VRHFIN =Fe:  3pd7s1                                                                              
   LEXCH  = PE                                                                                      
   EATOM  =  2456.8974 eV,  180.5769 Ry                                                             
                                                                                                    
   TITEL  = PAW_PBE Fe_pv 06Sep2000                                                                 
   LULTRA =        F    use ultrasoft PP ?                                                          
   IUNSCR =        1    unscreen: 0-lin 1-nonlin 2-no                                               
   RPACOR =    1.750    partial core radius                                                         
   POMASS =   55.847; ZVAL   =   14.000    mass and valenz                                          
   RCORE  =    2.200    outmost cutoff radius                                                       
   RWIGS  =    2.200; RWIGS  =    1.164    wigner-seitz radius (au A)                               
   ENMAX  =  293.238; ENMIN  =  219.929 eV                                                          
   RCLOC  =    1.701    cutoff for local pot                                                        
   LCOR   =        T    correct aug charges                                                         
   LPAW   =        T    paw PP                                                                      
   EAUG   =  578.342                                                                                
   DEXC   =    -.002                                                                                
   RMAX   =    2.693    core radius for proj-oper                                                   
   RAUG   =    1.300    factor for augmentation sphere                                              
   RDEP   =    2.296    radius for radial grids                                                     
   QCUT   =   -4.642; QGAM   =    9.285    optimization parameters                                  
                                                                                                    
   Description                                                                                      
     l     E      TYP  RCUT    TYP  RCUT                                                            
     1   .000     23  2.000                                                                         
     1  -.400     23  2.000                                                                         
     2   .000     23  2.200                                                                         
     2   .000     23  2.200                                                                         
     0   .000     23  2.000                                                                         
     0  2.000     23  2.000                                                                         
     3   .000      7   .000                                                                         
  local pseudopotential read in
  partial core-charges read in
  atomic valenz-charges read in
  non local Contribution for L=           1  read in
    real space projection operators read in
  non local Contribution for L=           1  read in
    real space projection operators read in
  non local Contribution for L=           2  read in
    real space projection operators read in
  non local Contribution for L=           2  read in
    real space projection operators read in
  non local Contribution for L=           0  read in
    real space projection operators read in
  non local Contribution for L=           0  read in
    real space projection operators read in
    PAW grid and wavefunctions read in
 
   number of l-projection  operators is LMAX  =           6
   number of lm-projection operators is LMMAX =          18
 
 POTCAR:   PAW_PBE Se 06Sep2000                   
   VRHFIN =Se: s2p4                                                                                 
   LEXCH  = PE                                                                                      
   EATOM  =   256.9644 eV,   18.8864 Ry                                                             
                                                                                                    
   TITEL  = PAW_PBE Se 06Sep2000                                                                    
   LULTRA =        F    use ultrasoft PP ?                                                          
   IUNSCR =        1    unscreen: 0-lin 1-nonlin 2-no                                               
   RPACOR =    1.900    partial core radius                                                         
   POMASS =   78.960; ZVAL   =    6.000    mass and valenz                                          
   RCORE  =    2.100    outmost cutoff radius                                                       
   RWIGS  =    2.200; RWIGS  =    1.164    wigner-seitz radius (au A)                               
   ENMAX  =  211.534; ENMIN  =  158.651 eV                                                          
   ICORE  =        3    local potential                                                             
   LCOR   =        T    correct aug charges                                                         
   LPAW   =        T    paw PP                                                                      
   EAUG   =  446.842                                                                                
   DEXC   =    -.031                                                                                
   RMAX   =    3.170    core radius for proj-oper                                                   
   RAUG   =    1.300    factor for augmentation sphere                                              
   RDEP   =    2.177    radius for radial grids                                                     
   QCUT   =   -3.943; QGAM   =    7.886    optimization parameters                                  
                                                                                                    
   Description                                                                                      
     l     E      TYP  RCUT    TYP  RCUT                                                            
     0   .000     23  2.100                                                                         
     0   .000     23  2.100                                                                         
     1   .000     23  2.100                                                                         
     1   .000     23  2.100                                                                         
     2   .000     23  2.100                                                                         
     3  -.100      7  2.100                                                                         
  local pseudopotential read in
  partial core-charges read in
  atomic valenz-charges read in
  non local Contribution for L=           0  read in
    real space projection operators read in
  non local Contribution for L=           0  read in
    real space projection operators read in
  non local Contribution for L=           1  read in
    real space projection operators read in
  non local Contribution for L=           1  read in
    real space projection operators read in
  non local Contribution for L=           2  read in
    real space projection operators read in
    PAW grid and wavefunctions read in
 
   number of l-projection  operators is LMAX  =           5
   number of lm-projection operators is LMMAX =          13
 
 Optimization of the real space projectors (new method)

 maximal supplied QI-value         = 17.01
 optimisation between [QCUT,QGAM] = [ 11.91, 23.98] = [ 39.69,161.04] Ry 
 Optimized for a Real-space Cutoff    1.45 Angstroem

   l    n(q)    QCUT    max X(q) W(low)/X(q) W(high)/X(q)  e(spline) 
   1     10    11.905     4.550    0.27E-05    0.11E-05    0.28E-07
   1     10    11.905     5.234    0.10E-04    0.61E-04    0.17E-06
   2      9    11.905     3.960    0.19E-04    0.73E-05    0.50E-07
   2      9    11.905    29.565    0.24E-03    0.51E-04    0.27E-06
   0     10    11.905    23.582    0.17E-04    0.10E-05    0.14E-07
   0     10    11.905    39.747    0.23E-04    0.68E-05    0.74E-07
 Optimization of the real space projectors (new method)

 maximal supplied QI-value         = 17.95
 optimisation between [QCUT,QGAM] = [ 11.85, 23.88] = [ 39.31,159.64] Ry 
 Optimized for a Real-space Cutoff    1.18 Angstroem

   l    n(q)    QCUT    max X(q) W(low)/X(q) W(high)/X(q)  e(spline) 
   0      8    11.849     6.499    0.17E-04    0.94E-05    0.89E-08
   0      8    11.849    52.623    0.21E-03    0.78E-04    0.81E-07
   1      8    11.849     4.229    0.79E-04    0.83E-04    0.23E-07
   1      8    11.849    29.991    0.12E-03    0.43E-03    0.14E-06
   2      7    11.849     3.719    0.22E-03    0.64E-04    0.38E-07
 PAW_PBE Fe_pv 06Sep2000                :
 energy of atom  1       EATOM=-2456.8974
 kinetic energy error for atom=    0.0060 (will be added to EATOM!!)
 PAW_PBE Se 06Sep2000                   :
 energy of atom  2       EATOM= -256.9644
 kinetic energy error for atom=    0.0007 (will be added to EATOM!!)
 
 
 POSCAR: Fe8 Se8
  positions in direct lattice
  velocities in cartesian coordinates
 exchange correlation table for  LEXCH =        8
   RHO(1)=    0.500       N(1)  =     2000
   RHO(2)=  100.500       N(2)  =     4000
 


--------------------------------------------------------------------------------------------------------


 ion  position               nearest neighbor table
   1  0.000  0.000  0.000-  11 2.29  14 2.29   5 2.41   8 2.41
   2  0.000  0.500  0.000-  12 2.29  13 2.29   6 2.41   7 2.41
   3  0.500  0.000  0.000-   9 2.29  16 2.29   6 2.41   7 2.41
   4  0.500  0.500  0.000-  10 2.29  15 2.29   5 2.41   8 2.41
   5  0.250  0.250  0.000-   9 2.29  13 2.29   1 2.41   4 2.41
   6  0.250  0.750  0.000-  10 2.29  14 2.29   2 2.41   3 2.41
   7  0.750  0.250  0.000-  11 2.29  15 2.29   2 2.41   3 2.41
   8  0.750  0.750  0.000-  12 2.29  16 2.29   1 2.41   4 2.41
   9  0.375  0.125  0.682-   3 2.29   5 2.29
  10  0.375  0.625  0.682-   4 2.29   6 2.29
  11  0.875  0.125  0.682-   1 2.29   7 2.29
  12  0.875  0.625  0.682-   2 2.29   8 2.29
  13  0.125  0.375  0.318-   2 2.29   5 2.29
  14  0.125  0.875  0.318-   1 2.29   6 2.29
  15  0.625  0.375  0.318-   4 2.29   7 2.29
  16  0.625  0.875  0.318-   3 2.29   8 2.29
 
  LATTYP: Found a base centered orthorhombic cell.
 ALAT       =     9.6591255342
 B/A-ratio  =     1.1869149923
 C/A-ratio  =     0.5833800091
  
  Lattice vectors:
  
 A1 = (   4.8295627671,  -5.7322804546,   0.0000000000)
 A2 = (   4.8295627671,   5.7322804546,   0.0000000000)
 A3 = (   0.0000000000,   0.0000000000,   5.6349407424)


Analysis of symmetry for initial positions (statically):
=====================================================================
 Subroutine PRICEL returns following result:
 
  LATTYP: Found a base centered orthorhombic cell.
 ALAT       =     4.8295627671
 B/A-ratio  =     1.1869149923
 C/A-ratio  =     1.1667600183
  
  Lattice vectors:
  
 A1 = (   2.4147813836,  -2.8661402273,   0.0000000000)
 A2 = (   2.4147813836,   2.8661402273,   0.0000000000)
 A3 = (   0.0000000000,   0.0000000000,   5.6349407424)
 
   4 primitive cells build up your supercell.
 

 Routine SETGRP: Setting up the symmetry group for a 
 base centered orthorhombic supercell.


 Subroutine GETGRP returns: Found  8 space group operations
 (whereof  4 operations were pure point group operations)
 out of a pool of  8 trial point group operations.


The static configuration has the point symmetry C_2h.
 The point group associated with its full space group is D_2h.


Analysis of symmetry for dynamics (positions and initial velocities):
=====================================================================
 Subroutine PRICEL returns following result:
 
  LATTYP: Found a base centered orthorhombic cell.
 ALAT       =     4.8295627671
 B/A-ratio  =     1.1869149923
 C/A-ratio  =     1.1667600183
  
  Lattice vectors:
  
 A1 = (   2.4147813836,  -2.8661402273,   0.0000000000)
 A2 = (   2.4147813836,   2.8661402273,   0.0000000000)
 A3 = (   0.0000000000,   0.0000000000,   5.6349407424)
 
   4 primitive cells build up your supercell.
 

 Routine SETGRP: Setting up the symmetry group for a 
 base centered orthorhombic supercell.


 Subroutine GETGRP returns: Found  8 space group operations
 (whereof  4 operations were pure point group operations)
 out of a pool of  8 trial point group operations.


The dynamic configuration has the point symmetry C_2h.
 The point group associated with its full space group is D_2h.


Analysis of structural, dynamic, and magnetic symmetry:
=====================================================================
 Subroutine PRICEL returns following result:
 
  LATTYP: Found a base centered orthorhombic cell.
 ALAT       =     4.8295627671
 B/A-ratio  =     1.1869149923
 C/A-ratio  =     1.1667600183
  
  Lattice vectors:
  
 A1 = (   2.4147813836,  -2.8661402273,   0.0000000000)
 A2 = (   2.4147813836,   2.8661402273,   0.0000000000)
 A3 = (   0.0000000000,   0.0000000000,   5.6349407424)
 
   4 primitive cells build up your supercell.
 

 Routine SETGRP: Setting up the symmetry group for a 
 base centered orthorhombic supercell.


 Subroutine GETGRP returns: Found  8 space group operations
 (whereof  4 operations were pure point group operations)
 out of a pool of  8 trial point group operations.


The overall configuration has the point symmetry C_2h.
 The point group associated with its full space group is D_2h.


 Subroutine INISYM returns: Found  8 space group operations
 (whereof  4 operations are pure point group operations),
 and found     4 'primitive' translations


----------------------------------------------------------------------------------------

                                     Primitive cell                                     

  volume of cell :      78.0000

  direct lattice vectors                    reciprocal lattice vectors
     2.414781384 -2.866140227  0.000000000     0.207058081 -0.174450641  0.000000000
     2.414781384  2.866140227  0.000000000     0.207058081  0.174450641  0.000000000
     0.000000000  0.000000000  5.634940742     0.000000000  0.000000000  0.177464155

  length of vectors
     3.747789873  3.747789873  5.634940742     0.270750947  0.270750947  0.177464155

  position of ions in fractional coordinates (direct lattice)
     0.000000000  0.000000000  0.000000000
     0.500000000  0.500000000  0.000000000
     0.750000000  0.250000000  0.681975391
     0.250000000  0.750000000  0.318024609

  ion indices of the primitive-cell ions
   primitive index   ion index
                 1           1
                 2           5
                 3          11
                 4          14

----------------------------------------------------------------------------------------

 
 
 KPOINTS: KPOINTS                                 

Automatic generation of k-mesh.
 Grid dimensions read from file:
 generate k-points for:    7    7    9

 Generating k-lattice:

  Cartesian coordinates                     Fractional coordinates (reciprocal lattice)
     0.014789863 -0.012460760  0.000000000     0.142857143  0.000000000  0.000000000
     0.014789863  0.012460760  0.000000000     0.000000000  0.142857143  0.000000000
     0.000000000  0.000000000  0.019718239     0.000000000  0.000000000  0.111111111

  Length of vectors
     0.019339353  0.019339353  0.019718239

  Shift w.r.t. Gamma in fractional coordinates (k-lattice)
     0.000000000  0.000000000  0.000000000

 TETIRR: Found    664 inequivalent tetrahedra from     2646
 
 Subroutine IBZKPT returns following result:
 ===========================================
 
 Found     80 irreducible k-points:
 
 Following reciprocal coordinates:
            Coordinates               Weight
  0.000000  0.000000  0.000000      1.000000
  0.142857  0.000000  0.000000      4.000000
  0.285714  0.000000  0.000000      4.000000
  0.428571  0.000000  0.000000      4.000000
  0.142857  0.142857  0.000000      2.000000
  0.285714  0.142857  0.000000      4.000000
  0.428571  0.142857  0.000000      4.000000
 -0.428571  0.142857  0.000000      4.000000
 -0.285714  0.142857  0.000000      4.000000
 -0.142857  0.142857  0.000000      2.000000
  0.285714  0.285714  0.000000      2.000000
  0.428571  0.285714  0.000000      4.000000
 -0.428571  0.285714  0.000000      4.000000
 -0.285714  0.285714  0.000000      2.000000
  0.428571  0.428571  0.000000      2.000000
 -0.428571  0.428571  0.000000      2.000000
  0.000000  0.000000  0.111111      2.000000
  0.142857  0.000000  0.111111      8.000000
  0.285714  0.000000  0.111111      8.000000
  0.428571  0.000000  0.111111      8.000000
  0.142857  0.142857  0.111111      4.000000
  0.285714  0.142857  0.111111      8.000000
  0.428571  0.142857  0.111111      8.000000
 -0.428571  0.142857  0.111111      8.000000
 -0.285714  0.142857  0.111111      8.000000
 -0.142857  0.142857  0.111111      4.000000
  0.285714  0.285714  0.111111      4.000000
  0.428571  0.285714  0.111111      8.000000
 -0.428571  0.285714  0.111111      8.000000
 -0.285714  0.285714  0.111111      4.000000
  0.428571  0.428571  0.111111      4.000000
 -0.428571  0.428571  0.111111      4.000000
  0.000000  0.000000  0.222222      2.000000
  0.142857  0.000000  0.222222      8.000000
  0.285714  0.000000  0.222222      8.000000
  0.428571  0.000000  0.222222      8.000000
  0.142857  0.142857  0.222222      4.000000
  0.285714  0.142857  0.222222      8.000000
  0.428571  0.142857  0.222222      8.000000
 -0.428571  0.142857  0.222222      8.000000
 -0.285714  0.142857  0.222222      8.000000
 -0.142857  0.142857  0.222222      4.000000
  0.285714  0.285714  0.222222      4.000000
  0.428571  0.285714  0.222222      8.000000
 -0.428571  0.285714  0.222222      8.000000
 -0.285714  0.285714  0.222222      4.000000
  0.428571  0.428571  0.222222      4.000000
 -0.428571  0.428571  0.222222      4.000000
  0.000000  0.000000  0.333333      2.000000
  0.142857  0.000000  0.333333      8.000000
  0.285714  0.000000  0.333333      8.000000
  0.428571  0.000000  0.333333      8.000000
  0.142857  0.142857  0.333333      4.000000
  0.285714  0.142857  0.333333      8.000000
  0.428571  0.142857  0.333333      8.000000
 -0.428571  0.142857  0.333333      8.000000
 -0.285714  0.142857  0.333333      8.000000
 -0.142857  0.142857  0.333333      4.000000
  0.285714  0.285714  0.333333      4.000000
  0.428571  0.285714  0.333333      8.000000
 -0.428571  0.285714  0.333333      8.000000
 -0.285714  0.285714  0.333333      4.000000
  0.428571  0.428571  0.333333      4.000000
 -0.428571  0.428571  0.333333      4.000000
  0.000000  0.000000  0.444444      2.000000
  0.142857  0.000000  0.444444      8.000000
  0.285714  0.000000  0.444444      8.000000
  0.428571  0.000000  0.444444      8.000000
  0.142857  0.142857  0.444444      4.000000
  0.285714  0.142857  0.444444      8.000000
  0.428571  0.142857  0.444444      8.000000
 -0.428571  0.142857  0.444444      8.000000
 -0.285714  0.142857  0.444444      8.000000
 -0.142857  0.142857  0.444444      4.000000
  0.285714  0.285714  0.444444      4.000000
  0.428571  0.285714  0.444444      8.000000
 -0.428571  0.285714  0.444444      8.000000
 -0.285714  0.285714  0.444444      4.000000
  0.428571  0.428571  0.444444      4.000000
 -0.428571  0.428571  0.444444      4.000000
 
 Following cartesian coordinates:
            Coordinates               Weight
  0.000000  0.000000  0.000000      1.000000
  0.014790 -0.012461  0.000000      4.000000
  0.029580 -0.024922  0.000000      4.000000
  0.044370 -0.037382  0.000000      4.000000
  0.029580 -0.000000  0.000000      2.000000
  0.044370 -0.012461  0.000000      4.000000
  0.059159 -0.024922  0.000000      4.000000
 -0.029580  0.049843  0.000000      4.000000
 -0.014790  0.037382  0.000000      4.000000
 -0.000000  0.024922  0.000000      2.000000
  0.059159 -0.000000  0.000000      2.000000
  0.073949 -0.012461  0.000000      4.000000
 -0.014790  0.062304  0.000000      4.000000
  0.000000  0.049843  0.000000      2.000000
  0.088739  0.000000  0.000000      2.000000
  0.000000  0.074765  0.000000      2.000000
  0.000000  0.000000  0.019718      2.000000
  0.014790 -0.012461  0.019718      8.000000
  0.029580 -0.024922  0.019718      8.000000
  0.044370 -0.037382  0.019718      8.000000
  0.029580 -0.000000  0.019718      4.000000
  0.044370 -0.012461  0.019718      8.000000
  0.059159 -0.024922  0.019718      8.000000
 -0.029580  0.049843  0.019718      8.000000
 -0.014790  0.037382  0.019718      8.000000
 -0.000000  0.024922  0.019718      4.000000
  0.059159 -0.000000  0.019718      4.000000
  0.073949 -0.012461  0.019718      8.000000
 -0.014790  0.062304  0.019718      8.000000
  0.000000  0.049843  0.019718      4.000000
  0.088739  0.000000  0.019718      4.000000
  0.000000  0.074765  0.019718      4.000000
  0.000000  0.000000  0.039436      2.000000
  0.014790 -0.012461  0.039436      8.000000
  0.029580 -0.024922  0.039436      8.000000
  0.044370 -0.037382  0.039436      8.000000
  0.029580 -0.000000  0.039436      4.000000
  0.044370 -0.012461  0.039436      8.000000
  0.059159 -0.024922  0.039436      8.000000
 -0.029580  0.049843  0.039436      8.000000
 -0.014790  0.037382  0.039436      8.000000
 -0.000000  0.024922  0.039436      4.000000
  0.059159 -0.000000  0.039436      4.000000
  0.073949 -0.012461  0.039436      8.000000
 -0.014790  0.062304  0.039436      8.000000
  0.000000  0.049843  0.039436      4.000000
  0.088739  0.000000  0.039436      4.000000
  0.000000  0.074765  0.039436      4.000000
  0.000000  0.000000  0.059155      2.000000
  0.014790 -0.012461  0.059155      8.000000
  0.029580 -0.024922  0.059155      8.000000
  0.044370 -0.037382  0.059155      8.000000
  0.029580 -0.000000  0.059155      4.000000
  0.044370 -0.012461  0.059155      8.000000
  0.059159 -0.024922  0.059155      8.000000
 -0.029580  0.049843  0.059155      8.000000
 -0.014790  0.037382  0.059155      8.000000
 -0.000000  0.024922  0.059155      4.000000
  0.059159 -0.000000  0.059155      4.000000
  0.073949 -0.012461  0.059155      8.000000
 -0.014790  0.062304  0.059155      8.000000
  0.000000  0.049843  0.059155      4.000000
  0.088739  0.000000  0.059155      4.000000
  0.000000  0.074765  0.059155      4.000000
  0.000000  0.000000  0.078873      2.000000
  0.014790 -0.012461  0.078873      8.000000
  0.029580 -0.024922  0.078873      8.000000
  0.044370 -0.037382  0.078873      8.000000
  0.029580 -0.000000  0.078873      4.000000
  0.044370 -0.012461  0.078873      8.000000
  0.059159 -0.024922  0.078873      8.000000
 -0.029580  0.049843  0.078873      8.000000
 -0.014790  0.037382  0.078873      8.000000
 -0.000000  0.024922  0.078873      4.000000
  0.059159 -0.000000  0.078873      4.000000
  0.073949 -0.012461  0.078873      8.000000
 -0.014790  0.062304  0.078873      8.000000
  0.000000  0.049843  0.078873      4.000000
  0.088739  0.000000  0.078873      4.000000
  0.000000  0.074765  0.078873      4.000000
 


--------------------------------------------------------------------------------------------------------




 Dimension of arrays:
   k-points           NKPTS =     80   k-points in BZ     NKDIM =     80   number of bands    NBANDS=    100
   number of dos      NEDOS =    301   number of ions     NIONS =     16
   non local maximal  LDIM  =      6   non local SUM 2l+1 LMDIM =     18
   total plane-waves  NPLWV = 172800
   max r-space proj   IRMAX =   7092   max aug-charges    IRDMAX=  24350
   dimension x,y,z NGX =    60 NGY =   60 NGZ =   48
   dimension x,y,z NGXF=   120 NGYF=  120 NGZF=   96
   support grid    NGXF=   120 NGYF=  120 NGZF=   96
   ions per type =               8   8
   NGX,Y,Z   is equivalent  to a cutoff of  13.31, 13.31, 14.16 a.u.
   NGXF,Y,Z  is equivalent  to a cutoff of  26.62, 26.62, 28.32 a.u.

 SYSTEM =  unknown system                          
 POSCAR =  Fe8 Se8                                 

 Startparameter for this run:
   NWRITE =      2    write-flag & timer
   PREC   = accura    normal or accurate (medium, high low for compatibility)
   ISTART =      0    job   : 0-new  1-cont  2-samecut
   ICHARG =      2    charge: 1-file 2-atom 10-const
   ISPIN  =      2    spin polarized calculation?
   LNONCOLLINEAR =      F non collinear calculations
   LSORBIT =      F    spin-orbit coupling
   INIWAV =      1    electr: 0-lowe 1-rand  2-diag
   LASPH  =      T    aspherical Exc in radial PAW
 Electronic Relaxation 1
   ENCUT  =  550.0 eV  40.42 Ry    6.36 a.u.  14.33 14.33 10.78*2*pi/ulx,y,z
   ENINI  =  550.0     initial cutoff
   ENAUG  =  578.3 eV  augmentation charge cutoff
   NELM   =    100;   NELMIN=  2; NELMDL=  0     # of ELM steps 
   EDIFF  = 0.2E-03   stopping-criterion for ELM
   LREAL  =      T    real-space projection
   NLSPLINE    = F    spline interpolate recip. space projectors
   LCOMPAT=      F    compatible to vasp.4.4
   GGA_COMPAT  = T    GGA compatible to vasp.4.4-vasp.4.6
   LMAXPAW     = -100 max onsite density
   LMAXMIX     =    4 max onsite mixed and CHGCAR
   VOSKOWN=      0    Vosko Wilk Nusair interpolation
   ROPT   =   -0.00025  -0.00025
 Ionic relaxation
   EDIFFG = 0.2E-02   stopping-criterion for IOM
   NSW    =      0    number of steps for IOM
   NBLOCK =      1;   KBLOCK =      1    inner block; outer block 
   IBRION =     -1    ionic relax: 0-MD 1-quasi-New 2-CG
   NFREE  =      0    steps in history (QN), initial steepest desc. (CG)
   ISIF   =      4    stress and relaxation
   IWAVPR =     10    prediction:  0-non 1-charg 2-wave 3-comb
   ISYM   =      2    0-nonsym 1-usesym 2-fastsym
   LCORR  =      T    Harris-Foulkes like correction to forces

   POTIM  = 0.5000    time-step for ionic-motion
   TEIN   =    0.0    initial temperature
   TEBEG  =    0.0;   TEEND  =   0.0 temperature during run
   SMASS  =  -3.00    Nose mass-parameter (am)
   estimated Nose-frequenzy (Omega)   =  0.10E-29 period in steps = 0.13E+47 mass=  -0.128E-26a.u.
   SCALEE = 1.0000    scale energy and forces
   NPACO  =    256;   APACO  = 10.0  distance and # of slots for P.C.
   PSTRESS=    0.0 pullay stress

  Mass of Ions in am
   POMASS =  55.85 78.96
  Ionic Valenz
   ZVAL   =  14.00  6.00
  Atomic Wigner-Seitz radii
   RWIGS  =  -1.00 -1.00
  virtual crystal weights 
   VCA    =   1.00  1.00
   NELECT =     160.0000    total number of electrons
   NUPDOWN=      -1.0000    fix difference up-down

 DOS related values:
   EMIN   =  10.00;   EMAX   =-10.00  energy-range for DOS
   EFERMI =   0.00;   METHOD = LEGACY      
   ISMEAR =    -5;   SIGMA  =   0.05  broadening in eV -4-tet -1-fermi 0-gaus

 Electronic relaxation 2 (details)
   IALGO  =     68    algorithm
   LDIAG  =      T    sub-space diagonalisation (order eigenvalues)
   LSUBROT=      F    optimize rotation matrix (better conditioning)
   TURBO    =      0    0=normal 1=particle mesh
   IRESTART =      0    0=no restart 2=restart with 2 vectors
   NREBOOT  =      0    no. of reboots
   NMIN     =      0    reboot dimension
   EREF     =   0.00    reference energy to select bands
   IMIX   =      4    mixing-type and parameters
     AMIX     =   0.40;   BMIX     =  1.00
     AMIX_MAG =   1.60;   BMIX_MAG =  1.00
     AMIN     =   0.10
     WC   =   100.;   INIMIX=   1;  MIXPRE=   1;  MAXMIX= -45

 Intra band minimization:
   WEIMIN = 0.0000     energy-eigenvalue tresh-hold
   EBREAK =  0.50E-06  absolut break condition
   DEPER  =   0.30     relativ break condition  

   TIME   =   0.40     timestep for ELM

  volume/ion in A,a.u.               =      19.50       131.59
  Fermi-wavevector in a.u.,A,eV,Ry     =   1.310378  2.476256 23.362438  1.717091
  Thomas-Fermi vector in A             =   2.440912
 
 Write flags
   LWAVE        =      F    write WAVECAR
   LDOWNSAMPLE  =      F    k-point downsampling of WAVECAR
   LCHARG       =      T    write CHGCAR
   LVTOT        =      F    write LOCPOT, total local potential
   LVHAR        =      F    write LOCPOT, Hartree potential only
   LELF         =      F    write electronic localiz. function (ELF)
   LORBIT       =     11    0 simple, 1 ext, 2 COOP (PROOUT), +10 PAW based schemes


 Dipole corrections
   LMONO  =      F    monopole corrections only (constant potential shift)
   LDIPOL =      F    correct potential (dipole corrections)
   IDIPOL =      0    1-x, 2-y, 3-z, 4-all directions 
   EPSILON=  1.0000000 bulk dielectric constant

 Exchange correlation treatment:
   GGA     =    --    GGA type
   LEXCH   =     8    internal setting for exchange type
   LIBXC   =     F    Libxc                    
   VOSKOWN =     0    Vosko Wilk Nusair interpolation
   LHFCALC =     F    Hartree Fock is set to
   LHFONE  =     F    Hartree Fock one center treatment
   AEXX    =    0.0000 exact exchange contribution

 Linear response parameters
   LEPSILON=     F    determine dielectric tensor
   LRPA    =     F    only Hartree local field effects (RPA)
   LNABLA  =     F    use nabla operator in PAW spheres
   LVEL    =     F    velocity operator in full k-point grid
   CSHIFT  =0.1000    complex shift for real part using Kramers Kronig
   OMEGAMAX=  -1.0    maximum frequency
   DEG_THRESHOLD= 0.2000000E-02 threshold for treating states as degnerate
   RTIME   =   -0.100 relaxation time in fs
  (WPLASMAI=    0.000 imaginary part of plasma frequency in eV, 0.658/RTIME)
   DFIELD  = 0.0000000 0.0000000 0.0000000 field for delta impulse in time
 
  Optional k-point grid parameters
   LKPOINTS_OPT  =     F    use optional k-point grid
   KPOINTS_OPT_MODE=     1    mode for optional k-point grid
 
 Orbital magnetization related:
   ORBITALMAG=     F  switch on orbital magnetization
   LCHIMAG   =     F  perturbation theory with respect to B field
   DQ        =  0.001000  dq finite difference perturbation B field
   LLRAUG    =     F  two centre corrections for induced B field
   LBONE     =     F  B-component reconstruction in AE one-centre
   LVGVCALC  =     T  calculate vGv susceptibility
   LVGVAPPL  =     F  apply vGv susceptibility instead of pGv for G=0

 Random number generation:
   RANDOM_GENERATOR = DEFAULT
   PCG_SEED         = not used


--------------------------------------------------------------------------------------------------------


 Static calculation
 charge density and potential will be updated during run
 spin polarized calculation
 RMM-DIIS sequential band-by-band and
  variant of blocked Davidson during initial phase
 perform sub-space diagonalisation
    before iterative eigenvector-optimisation
 modified Broyden-mixing scheme, WC =      100.0
 initial mixing is a Kerker type mixing with AMIX =  0.4000 and BMIX =      1.0000
 Hartree-type preconditioning will be used
 using additional bands           20
 real space projection scheme for non local part
 use partial core corrections
 calculate Harris-corrections to forces 
   (improved forces if not selfconsistent)
 use gradient corrections 
 use of overlap-Matrix (Vanderbilt PP)
 Fermi weights with tetrahedron method with Bloechl corrections


--------------------------------------------------------------------------------------------------------


  energy-cutoff  :      550.00
  volume of cell :      312.00
      direct lattice vectors                 reciprocal lattice vectors
     4.829562767 -5.732280455  0.000000000     0.103529041 -0.087225321  0.000000000
     4.829562767  5.732280455  0.000000000     0.103529041  0.087225321  0.000000000
     0.000000000  0.000000000  5.634940742     0.000000000  0.000000000  0.177464155

  length of vectors
     7.495579746  7.495579746  5.634940742     0.135375473  0.135375473  0.177464155


 
 k-points in units of 2pi/SCALE and weight: KPOINTS                                 
   0.00000000  0.00000000  0.00000000       0.002
   0.01478986 -0.01246076  0.00000000       0.009
   0.02957973 -0.02492152  0.00000000       0.009
   0.04436959 -0.03738228  0.00000000       0.009
   0.02957973  0.00000000  0.00000000       0.005
   0.04436959 -0.01246076  0.00000000       0.009
   0.05915945 -0.02492152  0.00000000       0.009
  -0.02957973  0.04984304  0.00000000       0.009
  -0.01478986  0.03738228  0.00000000       0.009
   0.00000000  0.02492152  0.00000000       0.005
   0.05915945  0.00000000  0.00000000       0.005
   0.07394931 -0.01246076  0.00000000       0.009
  -0.01478986  0.06230380  0.00000000       0.009
  -0.00000000  0.04984304  0.00000000       0.005
   0.08873918 -0.00000000  0.00000000       0.005
   0.00000000  0.07476456  0.00000000       0.005
   0.00000000  0.00000000  0.01971824       0.005
   0.01478986 -0.01246076  0.01971824       0.018
   0.02957973 -0.02492152  0.01971824       0.018
   0.04436959 -0.03738228  0.01971824       0.018
   0.02957973  0.00000000  0.01971824       0.009
   0.04436959 -0.01246076  0.01971824       0.018
   0.05915945 -0.02492152  0.01971824       0.018
  -0.02957973  0.04984304  0.01971824       0.018
  -0.01478986  0.03738228  0.01971824       0.018
   0.00000000  0.02492152  0.01971824       0.009
   0.05915945  0.00000000  0.01971824       0.009
   0.07394931 -0.01246076  0.01971824       0.018
  -0.01478986  0.06230380  0.01971824       0.018
  -0.00000000  0.04984304  0.01971824       0.009
   0.08873918 -0.00000000  0.01971824       0.009
   0.00000000  0.07476456  0.01971824       0.009
   0.00000000  0.00000000  0.03943648       0.005
   0.01478986 -0.01246076  0.03943648       0.018
   0.02957973 -0.02492152  0.03943648       0.018
   0.04436959 -0.03738228  0.03943648       0.018
   0.02957973  0.00000000  0.03943648       0.009
   0.04436959 -0.01246076  0.03943648       0.018
   0.05915945 -0.02492152  0.03943648       0.018
  -0.02957973  0.04984304  0.03943648       0.018
  -0.01478986  0.03738228  0.03943648       0.018
   0.00000000  0.02492152  0.03943648       0.009
   0.05915945  0.00000000  0.03943648       0.009
   0.07394931 -0.01246076  0.03943648       0.018
  -0.01478986  0.06230380  0.03943648       0.018
  -0.00000000  0.04984304  0.03943648       0.009
   0.08873918 -0.00000000  0.03943648       0.009
   0.00000000  0.07476456  0.03943648       0.009
   0.00000000  0.00000000  0.05915472       0.005
   0.01478986 -0.01246076  0.05915472       0.018
   0.02957973 -0.02492152  0.05915472       0.018
   0.04436959 -0.03738228  0.05915472       0.018
   0.02957973  0.00000000  0.05915472       0.009
   0.04436959 -0.01246076  0.05915472       0.018
   0.05915945 -0.02492152  0.05915472       0.018
  -0.02957973  0.04984304  0.05915472       0.018
  -0.01478986  0.03738228  0.05915472       0.018
   0.00000000  0.02492152  0.05915472       0.009
   0.05915945  0.00000000  0.05915472       0.009
   0.07394931 -0.01246076  0.05915472       0.018
  -0.01478986  0.06230380  0.05915472       0.018
  -0.00000000  0.04984304  0.05915472       0.009
   0.08873918 -0.00000000  0.05915472       0.009
   0.00000000  0.07476456  0.05915472       0.009
   0.00000000  0.00000000  0.07887296       0.005
   0.01478986 -0.01246076  0.07887296       0.018
   0.02957973 -0.02492152  0.07887296       0.018
   0.04436959 -0.03738228  0.07887296       0.018
   0.02957973  0.00000000  0.07887296       0.009
   0.04436959 -0.01246076  0.07887296       0.018
   0.05915945 -0.02492152  0.07887296       0.018
  -0.02957973  0.04984304  0.07887296       0.018
  -0.01478986  0.03738228  0.07887296       0.018
   0.00000000  0.02492152  0.07887296       0.009
   0.05915945  0.00000000  0.07887296       0.009
   0.07394931 -0.01246076  0.07887296       0.018
  -0.01478986  0.06230380  0.07887296       0.018
  -0.00000000  0.04984304  0.07887296       0.009
   0.08873918 -0.00000000  0.07887296       0.009
   0.00000000  0.07476456  0.07887296       0.009
 
 k-points in reciprocal lattice and weights: KPOINTS                                 
   0.00000000  0.00000000  0.00000000       0.002
   0.14285714  0.00000000  0.00000000       0.009
   0.28571429  0.00000000  0.00000000       0.009
   0.42857143  0.00000000  0.00000000       0.009
   0.14285714  0.14285714  0.00000000       0.005
   0.28571429  0.14285714  0.00000000       0.009
   0.42857143  0.14285714  0.00000000       0.009
  -0.42857143  0.14285714  0.00000000       0.009
  -0.28571429  0.14285714  0.00000000       0.009
  -0.14285714  0.14285714  0.00000000       0.005
   0.28571429  0.28571429  0.00000000       0.005
   0.42857143  0.28571429  0.00000000       0.009
  -0.42857143  0.28571429  0.00000000       0.009
  -0.28571429  0.28571429  0.00000000       0.005
   0.42857143  0.42857143  0.00000000       0.005
  -0.42857143  0.42857143  0.00000000       0.005
   0.00000000  0.00000000  0.11111111       0.005
   0.14285714  0.00000000  0.11111111       0.018
   0.28571429  0.00000000  0.11111111       0.018
   0.42857143  0.00000000  0.11111111       0.018
   0.14285714  0.14285714  0.11111111       0.009
   0.28571429  0.14285714  0.11111111       0.018
   0.42857143  0.14285714  0.11111111       0.018
  -0.42857143  0.14285714  0.11111111       0.018
  -0.28571429  0.14285714  0.11111111       0.018
  -0.14285714  0.14285714  0.11111111       0.009
   0.28571429  0.28571429  0.11111111       0.009
   0.42857143  0.28571429  0.11111111       0.018
  -0.42857143  0.28571429  0.11111111       0.018
  -0.28571429  0.28571429  0.11111111       0.009
   0.42857143  0.42857143  0.11111111       0.009
  -0.42857143  0.42857143  0.11111111       0.009
   0.00000000  0.00000000  0.22222222       0.005
   0.14285714  0.00000000  0.22222222       0.018
   0.28571429  0.00000000  0.22222222       0.018
   0.42857143  0.00000000  0.22222222       0.018
   0.14285714  0.14285714  0.22222222       0.009
   0.28571429  0.14285714  0.22222222       0.018
   0.42857143  0.14285714  0.22222222       0.018
  -0.42857143  0.14285714  0.22222222       0.018
  -0.28571429  0.14285714  0.22222222       0.018
  -0.14285714  0.14285714  0.22222222       0.009
   0.28571429  0.28571429  0.22222222       0.009
   0.42857143  0.28571429  0.22222222       0.018
  -0.42857143  0.28571429  0.22222222       0.018
  -0.28571429  0.28571429  0.22222222       0.009
   0.42857143  0.42857143  0.22222222       0.009
  -0.42857143  0.42857143  0.22222222       0.009
   0.00000000  0.00000000  0.33333333       0.005
   0.14285714  0.00000000  0.33333333       0.018
   0.28571429  0.00000000  0.33333333       0.018
   0.42857143  0.00000000  0.33333333       0.018
   0.14285714  0.14285714  0.33333333       0.009
   0.28571429  0.14285714  0.33333333       0.018
   0.42857143  0.14285714  0.33333333       0.018
  -0.42857143  0.14285714  0.33333333       0.018
  -0.28571429  0.14285714  0.33333333       0.018
  -0.14285714  0.14285714  0.33333333       0.009
   0.28571429  0.28571429  0.33333333       0.009
   0.42857143  0.28571429  0.33333333       0.018
  -0.42857143  0.28571429  0.33333333       0.018
  -0.28571429  0.28571429  0.33333333       0.009
   0.42857143  0.42857143  0.33333333       0.009
  -0.42857143  0.42857143  0.33333333       0.009
   0.00000000  0.00000000  0.44444444       0.005
   0.14285714  0.00000000  0.44444444       0.018
   0.28571429  0.00000000  0.44444444       0.018
   0.42857143  0.00000000  0.44444444       0.018
   0.14285714  0.14285714  0.44444444       0.009
   0.28571429  0.14285714  0.44444444       0.018
   0.42857143  0.14285714  0.44444444       0.018
  -0.42857143  0.14285714  0.44444444       0.018
  -0.28571429  0.14285714  0.44444444       0.018
  -0.14285714  0.14285714  0.44444444       0.009
   0.28571429  0.28571429  0.44444444       0.009
   0.42857143  0.28571429  0.44444444       0.018
  -0.42857143  0.28571429  0.44444444       0.018
  -0.28571429  0.28571429  0.44444444       0.009
   0.42857143  0.42857143  0.44444444       0.009
  -0.42857143  0.42857143  0.44444444       0.009
 
 position of ions in fractional coordinates (direct lattice) 
   0.00000000  0.00000000  0.00000000
   0.00000000  0.50000000  0.00000000
   0.50000000  0.00000000  0.00000000
   0.50000000  0.50000000  0.00000000
   0.25000000  0.25000000  0.00000000
   0.25000000  0.75000000  0.00000000
   0.75000000  0.25000000  0.00000000
   0.75000000  0.75000000  0.00000000
   0.37500000  0.12500000  0.68197539
   0.37500000  0.62500000  0.68197539
   0.87500000  0.12500000  0.68197539
   0.87500000  0.62500000  0.68197539
   0.12500000  0.37500000  0.31802461
   0.12500000  0.87500000  0.31802461
   0.62500000  0.37500000  0.31802461
   0.62500000  0.87500000  0.31802461
 
 position of ions in cartesian coordinates  (Angst):
   0.00000000  0.00000000  0.00000000
   2.41478138  2.86614023  0.00000000
   2.41478138 -2.86614023  0.00000000
   4.82956277  0.00000000  0.00000000
   2.41478138  0.00000000  0.00000000
   4.82956277  2.86614023  0.00000000
   4.82956277 -2.86614023  0.00000000
   7.24434415 -0.00000000  0.00000000
   2.41478138 -1.43307011  3.84289092
   4.82956277  1.43307011  3.84289092
   4.82956277 -4.29921034  3.84289092
   7.24434415 -1.43307011  3.84289092
   2.41478138  1.43307011  1.79204983
   4.82956277  4.29921034  1.79204983
   4.82956277 -1.43307011  1.79204983
   7.24434415  1.43307011  1.79204983
 


--------------------------------------------------------------------------------------------------------


 k-point   1 :   0.0000 0.0000 0.0000  plane waves:    9159
 k-point   2 :   0.1429 0.0000 0.0000  plane waves:    9130
 k-point   3 :   0.2857 0.0000 0.0000  plane waves:    9133
 k-point   4 :   0.4286 0.0000 0.0000  plane waves:    9135
 k-point   5 :   0.1429 0.1429 0.0000  plane waves:    9155
 k-point   6 :   0.2857 0.1429 0.0000  plane waves:    9125
 k-point   7 :   0.4286 0.1429 0.0000  plane waves:    9134
 k-point   8 :  -0.4286 0.1429 0.0000  plane waves:    9137
 k-point   9 :  -0.2857 0.1429 0.0000  plane waves:    9143
 k-point  10 :  -0.1429 0.1429 0.0000  plane waves:    9142
 k-point  11 :   0.2857 0.2857 0.0000  plane waves:    9130
 k-point  12 :   0.4286 0.2857 0.0000  plane waves:    9158
 k-point  13 :  -0.4286 0.2857 0.0000  plane waves:    9141
 k-point  14 :  -0.2857 0.2857 0.0000  plane waves:    9140
 k-point  15 :   0.4286 0.4286 0.0000  plane waves:    9158
 k-point  16 :  -0.4286 0.4286 0.0000  plane waves:    9160
 k-point  17 :   0.0000 0.0000 0.1111  plane waves:    9155
 k-point  18 :   0.1429 0.0000 0.1111  plane waves:    9134
 k-point  19 :   0.2857 0.0000 0.1111  plane waves:    9131
 k-point  20 :   0.4286 0.0000 0.1111  plane waves:    9126
 k-point  21 :   0.1429 0.1429 0.1111  plane waves:    9135
 k-point  22 :   0.2857 0.1429 0.1111  plane waves:    9130
 k-point  23 :   0.4286 0.1429 0.1111  plane waves:    9131
 k-point  24 :  -0.4286 0.1429 0.1111  plane waves:    9129
 k-point  25 :  -0.2857 0.1429 0.1111  plane waves:    9135
 k-point  26 :  -0.1429 0.1429 0.1111  plane waves:    9138
 k-point  27 :   0.2857 0.2857 0.1111  plane waves:    9121
 k-point  28 :   0.4286 0.2857 0.1111  plane waves:    9139
 k-point  29 :  -0.4286 0.2857 0.1111  plane waves:    9154
 k-point  30 :  -0.2857 0.2857 0.1111  plane waves:    9142
 k-point  31 :   0.4286 0.4286 0.1111  plane waves:    9151
 k-point  32 :  -0.4286 0.4286 0.1111  plane waves:    9154
 k-point  33 :   0.0000 0.0000 0.2222  plane waves:    9149
 k-point  34 :   0.1429 0.0000 0.2222  plane waves:    9142
 k-point  35 :   0.2857 0.0000 0.2222  plane waves:    9132
 k-point  36 :   0.4286 0.0000 0.2222  plane waves:    9135
 k-point  37 :   0.1429 0.1429 0.2222  plane waves:    9134
 k-point  38 :   0.2857 0.1429 0.2222  plane waves:    9120
 k-point  39 :   0.4286 0.1429 0.2222  plane waves:    9126
 k-point  40 :  -0.4286 0.1429 0.2222  plane waves:    9131
 k-point  41 :  -0.2857 0.1429 0.2222  plane waves:    9137
 k-point  42 :  -0.1429 0.1429 0.2222  plane waves:    9144
 k-point  43 :   0.2857 0.2857 0.2222  plane waves:    9125
 k-point  44 :   0.4286 0.2857 0.2222  plane waves:    9124
 k-point  45 :  -0.4286 0.2857 0.2222  plane waves:    9129
 k-point  46 :  -0.2857 0.2857 0.2222  plane waves:    9127
 k-point  47 :   0.4286 0.4286 0.2222  plane waves:    9136
 k-point  48 :  -0.4286 0.4286 0.2222  plane waves:    9117
 k-point  49 :   0.0000 0.0000 0.3333  plane waves:    9146
 k-point  50 :   0.1429 0.0000 0.3333  plane waves:    9155
 k-point  51 :   0.2857 0.0000 0.3333  plane waves:    9153
 k-point  52 :   0.4286 0.0000 0.3333  plane waves:    9144
 k-point  53 :   0.1429 0.1429 0.3333  plane waves:    9141
 k-point  54 :   0.2857 0.1429 0.3333  plane waves:    9144
 k-point  55 :   0.4286 0.1429 0.3333  plane waves:    9131
 k-point  56 :  -0.4286 0.1429 0.3333  plane waves:    9144
 k-point  57 :  -0.2857 0.1429 0.3333  plane waves:    9152
 k-point  58 :  -0.1429 0.1429 0.3333  plane waves:    9141
 k-point  59 :   0.2857 0.2857 0.3333  plane waves:    9121
 k-point  60 :   0.4286 0.2857 0.3333  plane waves:    9121
 k-point  61 :  -0.4286 0.2857 0.3333  plane waves:    9126
 k-point  62 :  -0.2857 0.2857 0.3333  plane waves:    9139
 k-point  63 :   0.4286 0.4286 0.3333  plane waves:    9142
 k-point  64 :  -0.4286 0.4286 0.3333  plane waves:    9130
 k-point  65 :   0.0000 0.0000 0.4444  plane waves:    9116
 k-point  66 :   0.1429 0.0000 0.4444  plane waves:    9152
 k-point  67 :   0.2857 0.0000 0.4444  plane waves:    9149
 k-point  68 :   0.4286 0.0000 0.4444  plane waves:    9138
 k-point  69 :   0.1429 0.1429 0.4444  plane waves:    9157
 k-point  70 :   0.2857 0.1429 0.4444  plane waves:    9146
 k-point  71 :   0.4286 0.1429 0.4444  plane waves:    9143
 k-point  72 :  -0.4286 0.1429 0.4444  plane waves:    9148
 k-point  73 :  -0.2857 0.1429 0.4444  plane waves:    9155
 k-point  74 :  -0.1429 0.1429 0.4444  plane waves:    9153
 k-point  75 :   0.2857 0.2857 0.4444  plane waves:    9130
 k-point  76 :   0.4286 0.2857 0.4444  plane waves:    9131
 k-point  77 :  -0.4286 0.2857 0.4444  plane waves:    9133
 k-point  78 :  -0.2857 0.2857 0.4444  plane waves:    9151
 k-point  79 :   0.4286 0.4286 0.4444  plane waves:    9121
 k-point  80 :  -0.4286 0.4286 0.4444  plane waves:    9121

 maximum and minimum number of plane-waves per node :      9160     9116

 maximum number of plane-waves:      9160
 maximum index in each direction: 
   IXMAX=   14   IYMAX=   14   IZMAX=   10
   IXMIN=  -14   IYMIN=  -14   IZMIN=  -11


 serial   3D FFT for wavefunctions
 parallel 3D FFT for charge:
    minimum data exchange during FFTs selected (reduces bandwidth)


 total amount of memory used by VASP MPI-rank0   187633. kBytes
=======================================================================

   base      :      30000. kBytes
   nonlr-proj:      13916. kBytes
   fftplans  :       3084. kBytes
   grid      :      19560. kBytes
   one-center:        497. kBytes
   wavefun   :     120576. kBytes
 
     INWAV:  cpu time      0.0000: real time      0.0002
 Broyden mixing: mesh for mixing (old mesh)
   NGX = 29   NGY = 29   NGZ = 21
  (NGX  =120   NGY  =120   NGZ  = 96)
  gives a total of  17661 points

 initial charge density was supplied:
 charge density of overlapping atoms calculated
 number of electron     160.0000000 magnetization       0.0000000
 keeping initial charge density in first step


--------------------------------------------------------------------------------------------------------


 Maximum index for non-local projection operator         6835
 Maximum index for augmentation-charges         1192 (set IRDMAX)


--------------------------------------------------------------------------------------------------------


 First call to EWALD:  gamma=   0.261
 Maximum number of real-space cells 3x 3x 3
 Maximum number of reciprocal cells 3x 3x 2

    FEWALD:  cpu time      0.0014: real time      0.0015


--------------------------------------- Ionic step        1  -------------------------------------------




--------------------------------------- Iteration      1(   1)  ---------------------------------------


    POTLOK:  cpu time      0.0596: real time      0.0753
    SETDIJ:  cpu time      0.2682: real time      0.2691
     EDDAV:  cpu time     28.8466: real time     28.9882
 BZINTS: Fermi energy:   20.544871;  160.000000 electrons
         Band energy:-0.133639E+03;  BLOECHL correction:   -0.061461
       DOS:  cpu time      0.1678: real time      0.1686
    --------------------------------------------
      LOOP:  cpu time     29.3422: real time     29.5012

 eigenvalue-minimisations  : 35140
 total energy-change (2. order) : 0.2012050E+04  (-0.8890576E+04)
 number of electron     160.0000000 magnetization       0.0000000
 augmentation part      160.0000000 magnetization       0.0000000

 Free energy of the ion-electron system (eV)
  ---------------------------------------------------
  alpha Z        PSCENC =       813.94738872
  Ewald energy   TEWEN  =    -11327.96781218
  -Hartree energ DENC   =     -9020.58806881
  -exchange      EXHF   =         0.00000000
  -V(xc)+E(xc)   XCENC  =       565.24401391
  PAW double counting   =     15528.18660032   -16123.97453633
  entropy T*S    EENTRO =         0.00000000
  eigenvalues    EBANDS =      -133.63875383
  atomic energy  EATOM  =     21710.84102437
  Solvation  Ediel_sol  =         0.00000000
  ---------------------------------------------------
  free energy    TOTEN  =      2012.04985617 eV

  energy without entropy =     2012.04985617  energy(sigma->0) =     2012.04985617


--------------------------------------------------------------------------------------------------------




--------------------------------------- Iteration      1(   2)  ---------------------------------------


     EDDAV:  cpu time     27.2198: real time     27.3897
 BZINTS: Fermi energy:    6.986402;  160.000000 electrons
         Band energy:-0.202444E+04;  BLOECHL correction:   -0.021237
       DOS:  cpu time      0.1497: real time      0.1503
    --------------------------------------------
      LOOP:  cpu time     27.3696: real time     27.5401

 eigenvalue-minimisations  : 32000
 total energy-change (2. order) :-0.1890797E+04  (-0.1836178E+04)
 number of electron     160.0000000 magnetization       0.0000000
 augmentation part      160.0000000 magnetization       0.0000000

 Free energy of the ion-electron system (eV)
  ---------------------------------------------------
  alpha Z        PSCENC =       813.94738872
  Ewald energy   TEWEN  =    -11327.96781218
  -Hartree energ DENC   =     -9020.58806881
  -exchange      EXHF   =         0.00000000
  -V(xc)+E(xc)   XCENC  =       565.24401391
  PAW double counting   =     15528.18660032   -16123.97453633
  entropy T*S    EENTRO =         0.00000000
  eigenvalues    EBANDS =     -2024.43541143
  atomic energy  EATOM  =     21710.84102437
  Solvation  Ediel_sol  =         0.00000000
  ---------------------------------------------------
  free energy    TOTEN  =       121.25319857 eV

  energy without entropy =      121.25319857  energy(sigma->0) =      121.25319857


--------------------------------------------------------------------------------------------------------




--------------------------------------- Iteration      1(   3)  ---------------------------------------


     EDDAV:  cpu time     36.3677: real time     36.5749
 BZINTS: Fermi energy:    5.133977;  160.000000 electrons
         Band energy:-0.223072E+04;  BLOECHL correction:   -0.018086
       DOS:  cpu time      0.1540: real time      0.1546
    --------------------------------------------
      LOOP:  cpu time     36.5217: real time     36.7295

 eigenvalue-minimisations  : 45760
 total energy-change (2. order) :-0.2062837E+03  (-0.1828262E+03)
 number of electron     160.0000000 magnetization       0.0000000
 augmentation part      160.0000000 magnetization       0.0000000

 Free energy of the ion-electron system (eV)
  ---------------------------------------------------
  alpha Z        PSCENC =       813.94738872
  Ewald energy   TEWEN  =    -11327.96781218
  -Hartree energ DENC   =     -9020.58806881
  -exchange      EXHF   =         0.00000000
  -V(xc)+E(xc)   XCENC  =       565.24401391
  PAW double counting   =     15528.18660032   -16123.97453633
  entropy T*S    EENTRO =         0.00000000
  eigenvalues    EBANDS =     -2230.71914838
  atomic energy  EATOM  =     21710.84102437
  Solvation  Ediel_sol  =         0.00000000
  ---------------------------------------------------
  free energy    TOTEN  =       -85.03053838 eV

  energy without entropy =      -85.03053838  energy(sigma->0) =      -85.03053838


--------------------------------------------------------------------------------------------------------




--------------------------------------- Iteration      1(   4)  ---------------------------------------


     EDDAV:  cpu time     37.3270: real time     37.5391
 BZINTS: Fermi energy:    5.021563;  160.000000 electrons
         Band energy:-0.224517E+04;  BLOECHL correction:   -0.020970
       DOS:  cpu time      0.1536: real time      0.1542
    --------------------------------------------
      LOOP:  cpu time     37.4806: real time     37.6933

 eigenvalue-minimisations  : 47080
 total energy-change (2. order) :-0.1444773E+02  (-0.1412174E+02)
 number of electron     160.0000000 magnetization       0.0000000
 augmentation part      160.0000000 magnetization       0.0000000

 Free energy of the ion-electron system (eV)
  ---------------------------------------------------
  alpha Z        PSCENC =       813.94738872
  Ewald energy   TEWEN  =    -11327.96781218
  -Hartree energ DENC   =     -9020.58806881
  -exchange      EXHF   =         0.00000000
  -V(xc)+E(xc)   XCENC  =       565.24401391
  PAW double counting   =     15528.18660032   -16123.97453633
  entropy T*S    EENTRO =         0.00000000
  eigenvalues    EBANDS =     -2245.16687657
  atomic energy  EATOM  =     21710.84102437
  Solvation  Ediel_sol  =         0.00000000
  ---------------------------------------------------
  free energy    TOTEN  =       -99.47826657 eV

  energy without entropy =      -99.47826657  energy(sigma->0) =      -99.47826657


--------------------------------------------------------------------------------------------------------




--------------------------------------- Iteration      1(   5)  ---------------------------------------


     EDDAV:  cpu time     35.9542: real time     36.1519
 BZINTS: Fermi energy:    5.018029;  160.000000 electrons
         Band energy:-0.224551E+04;  BLOECHL correction:   -0.020844
       DOS:  cpu time      0.1492: real time      0.1497
    CHARGE:  cpu time      1.0113: real time      1.0173
    MIXING:  cpu time      0.0018: real time      0.0018
    --------------------------------------------
      LOOP:  cpu time     37.1165: real time     37.3208

 eigenvalue-minimisations  : 45020
 total energy-change (2. order) :-0.3435836E+00  (-0.3429345E+00)
 number of electron     160.0000092 magnetization      -0.0000000
 augmentation part       53.0867682 magnetization      -0.0000000

 Broyden mixing:
  rms(total) = 0.27685E+01    rms(broyden)= 0.27681E+01
  rms(prec ) = 0.43423E+01
  weight for this iteration     100.00

 Free energy of the ion-electron system (eV)
  ---------------------------------------------------
  alpha Z        PSCENC =       813.94738872
  Ewald energy   TEWEN  =    -11327.96781218
  -Hartree energ DENC   =     -9020.58806881
  -exchange      EXHF   =         0.00000000
  -V(xc)+E(xc)   XCENC  =       565.24401391
  PAW double counting   =     15528.18660032   -16123.97453633
  entropy T*S    EENTRO =         0.00000000
  eigenvalues    EBANDS =     -2245.51046014
  atomic energy  EATOM  =     21710.84102437
  Solvation  Ediel_sol  =         0.00000000
  ---------------------------------------------------
  free energy    TOTEN  =       -99.82185014 eV

  energy without entropy =      -99.82185014  energy(sigma->0) =      -99.82185014


--------------------------------------------------------------------------------------------------------




--------------------------------------- Iteration      1(   6)  ---------------------------------------


    POTLOK:  cpu time      0.0519: real time      0.1071
    SETDIJ:  cpu time      0.2732: real time      0.2743
    EDDIAG:  cpu time      4.3535: real time      4.3767
  RMM-DIIS:  cpu time     18.6277: real time     18.7149
    ORTHCH:  cpu time      0.5866: real time      0.5891
 BZINTS: Fermi energy:    2.040017;  160.000000 electrons
         Band energy:-0.274105E+04;  BLOECHL correction:   -0.028279
       DOS:  cpu time      0.1625: real time      0.1632
    CHARGE:  cpu time      1.0557: real time      1.0628
    MIXING:  cpu time      0.0020: real time      0.0020
    --------------------------------------------
      LOOP:  cpu time     25.1131: real time     25.2902

 eigenvalue-minimisations  : 34818
 total energy-change (2. order) :-0.1365694E+02  (-0.1733884E+02)
 number of electron     160.0000111 magnetization      -0.0000000
 augmentation part       70.2485315 magnetization      -0.0000000

 Broyden mixing:
  rms(total) = 0.52894E+01    rms(broyden)= 0.52892E+01
  rms(prec ) = 0.84382E+01
  weight for this iteration     100.00

 eigenvalues of (default mixing * dielectric matrix)
  average eigenvalue GAMMA=   0.2984
  0.2984

 Free energy of the ion-electron system (eV)
  ---------------------------------------------------
  alpha Z        PSCENC =       813.94738872
  Ewald energy   TEWEN  =    -11327.96781218
  -Hartree energ DENC   =     -8558.66690605
  -exchange      EXHF   =         0.00000000
  -V(xc)+E(xc)   XCENC  =       553.17606827
  PAW double counting   =     14976.60907909   -15540.36950136
  entropy T*S    EENTRO =         0.00000000
  eigenvalues    EBANDS =     -2741.04813072
  atomic energy  EATOM  =     21710.84102437
  Solvation  Ediel_sol  =         0.00000000
  ---------------------------------------------------
  free energy    TOTEN  =      -113.47878986 eV

  energy without entropy =     -113.47878986  energy(sigma->0) =     -113.47878986


--------------------------------------------------------------------------------------------------------




--------------------------------------- Iteration      1(   7)  ---------------------------------------


    POTLOK:  cpu time      0.0855: real time      0.0956
    SETDIJ:  cpu time      0.2714: real time      0.2722
    EDDIAG:  cpu time      4.5966: real time      4.6206
  RMM-DIIS:  cpu time     17.3757: real time     17.4592
    ORTHCH:  cpu time      0.5869: real time      0.5895
 BZINTS: Fermi energy:    3.919217;  160.000000 electrons
         Band energy:-0.240558E+04;  BLOECHL correction:   -0.017971
       DOS:  cpu time      0.1631: real time      0.1637
    CHARGE:  cpu time      1.0505: real time      1.0559
    MIXING:  cpu time      0.0019: real time      0.0019
    --------------------------------------------
      LOOP:  cpu time     24.1315: real time     24.2585

 eigenvalue-minimisations  : 32076
 total energy-change (2. order) : 0.2266445E+02  (-0.4479845E+01)
 number of electron     160.0000095 magnetization      -0.0000000
 augmentation part       57.9175556 magnetization      -0.0000000

 Broyden mixing:
  rms(total) = 0.10967E+01    rms(broyden)= 0.10959E+01
  rms(prec ) = 0.13020E+01
  weight for this iteration     100.00

 eigenvalues of (default mixing * dielectric matrix)
  average eigenvalue GAMMA=   0.4378
  0.6095  0.2660

 Free energy of the ion-electron system (eV)
  ---------------------------------------------------
  alpha Z        PSCENC =       813.94738872
  Ewald energy   TEWEN  =    -11327.96781218
  -Hartree energ DENC   =     -8843.25458459
  -exchange      EXHF   =         0.00000000
  -V(xc)+E(xc)   XCENC  =       558.35655109
  PAW double counting   =     15473.26168472   -16070.41906823
  entropy T*S    EENTRO =         0.00000000
  eigenvalues    EBANDS =     -2405.57952569
  atomic energy  EATOM  =     21710.84102437
  Solvation  Ediel_sol  =         0.00000000
  ---------------------------------------------------
  free energy    TOTEN  =       -90.81434179 eV

  energy without entropy =      -90.81434179  energy(sigma->0) =      -90.81434179


--------------------------------------------------------------------------------------------------------




--------------------------------------- Iteration      1(   8)  ---------------------------------------


    POTLOK:  cpu time      0.0532: real time      0.0536
    SETDIJ:  cpu time      0.2713: real time      0.2725
    EDDIAG:  cpu time      4.5848: real time      4.6078
  RMM-DIIS:  cpu time     24.0573: real time     24.1705
    ORTHCH:  cpu time      0.5843: real time      0.5869
 BZINTS: Fermi energy:    3.905837;  160.000000 electrons
         Band energy:-0.241085E+04;  BLOECHL correction:   -0.018330
       DOS:  cpu time      0.1446: real time      0.1451
    CHARGE:  cpu time      1.0187: real time      1.0233
    MIXING:  cpu time      0.0017: real time      0.0017
    --------------------------------------------
      LOOP:  cpu time     30.7158: real time     30.8615

 eigenvalue-minimisations  : 46000
 total energy-change (2. order) :-0.6536533E+00  (-0.3560618E+00)
 number of electron     160.0000095 magnetization      -0.0000000
 augmentation part       58.3597709 magnetization      -0.0000000

 Broyden mixing:
  rms(total) = 0.52625E+00    rms(broyden)= 0.52596E+00
  rms(prec ) = 0.69211E+00
  weight for this iteration     100.00

 eigenvalues of (default mixing * dielectric matrix)
  average eigenvalue GAMMA=   0.6530
  0.3085  0.8252  0.8252

 Free energy of the ion-electron system (eV)
  ---------------------------------------------------
  alpha Z        PSCENC =       813.94738872
  Ewald energy   TEWEN  =    -11327.96781218
  -Hartree energ DENC   =     -8832.34135978
  -exchange      EXHF   =         0.00000000
  -V(xc)+E(xc)   XCENC  =       558.78560569
  PAW double counting   =     15525.53132575   -16129.41179136
  entropy T*S    EENTRO =         0.00000000
  eigenvalues    EBANDS =     -2410.85237631
  atomic energy  EATOM  =     21710.84102437
  Solvation  Ediel_sol  =         0.00000000
  ---------------------------------------------------
  free energy    TOTEN  =       -91.46799510 eV

  energy without entropy =      -91.46799510  energy(sigma->0) =      -91.46799510


--------------------------------------------------------------------------------------------------------




--------------------------------------- Iteration      1(   9)  ---------------------------------------


    POTLOK:  cpu time      0.0540: real time      0.1148
    SETDIJ:  cpu time      0.2695: real time      0.2705
    EDDIAG:  cpu time      4.4560: real time      4.4795
  RMM-DIIS:  cpu time     27.0029: real time     27.1351
    ORTHCH:  cpu time      0.5888: real time      0.5913
 BZINTS: Fermi energy:    3.818776;  160.000000 electrons
         Band energy:-0.242091E+04;  BLOECHL correction:   -0.015183
       DOS:  cpu time      0.1570: real time      0.1577
    CHARGE:  cpu time      1.0428: real time      1.0488
    MIXING:  cpu time      0.0018: real time      0.0018
    --------------------------------------------
      LOOP:  cpu time     33.5728: real time     33.7996

 eigenvalue-minimisations  : 51034
 total energy-change (2. order) :-0.7821111E-01  (-0.9355871E-01)
 number of electron     160.0000094 magnetization      -0.0000000
 augmentation part       58.7661156 magnetization      -0.0000000

 Broyden mixing:
  rms(total) = 0.27637E+00    rms(broyden)= 0.27596E+00
  rms(prec ) = 0.33899E+00
  weight for this iteration     100.00

 eigenvalues of (default mixing * dielectric matrix)
  average eigenvalue GAMMA=   0.8619
  1.2143  1.2143  0.3043  0.7146

 Free energy of the ion-electron system (eV)
  ---------------------------------------------------
  alpha Z        PSCENC =       813.94738872
  Ewald energy   TEWEN  =    -11327.96781218
  -Hartree energ DENC   =     -8816.23702408
  -exchange      EXHF   =         0.00000000
  -V(xc)+E(xc)   XCENC  =       559.00696658
  PAW double counting   =     15606.48359166   -16216.70630242
  entropy T*S    EENTRO =         0.00000000
  eigenvalues    EBANDS =     -2420.91403887
  atomic energy  EATOM  =     21710.84102437
  Solvation  Ediel_sol  =         0.00000000
  ---------------------------------------------------
  free energy    TOTEN  =       -91.54620621 eV

  energy without entropy =      -91.54620621  energy(sigma->0) =      -91.54620621


--------------------------------------------------------------------------------------------------------




--------------------------------------- Iteration      1(  10)  ---------------------------------------


    POTLOK:  cpu time      0.0872: real time      0.0881
    SETDIJ:  cpu time      0.2742: real time      0.2752
    EDDIAG:  cpu time      4.5820: real time      4.6049
  RMM-DIIS:  cpu time     28.4171: real time     28.5530
    ORTHCH:  cpu time      0.5752: real time      0.5776
 BZINTS: Fermi energy:    3.769965;  160.000000 electrons
         Band energy:-0.242437E+04;  BLOECHL correction:   -0.012521
       DOS:  cpu time      0.1412: real time      0.1418
    CHARGE:  cpu time      1.0175: real time      1.0223
    MIXING:  cpu time      0.0020: real time      0.0021
    --------------------------------------------
      LOOP:  cpu time     35.0964: real time     35.2649

 eigenvalue-minimisations  : 51991
 total energy-change (2. order) :-0.1647973E-01  (-0.2853038E-01)
 number of electron     160.0000094 magnetization      -0.0000000
 augmentation part       58.9710242 magnetization      -0.0000000

 Broyden mixing:
  rms(total) = 0.13872E+00    rms(broyden)= 0.13844E+00
  rms(prec ) = 0.15852E+00
  weight for this iteration     100.00

 eigenvalues of (default mixing * dielectric matrix)
  average eigenvalue GAMMA=   1.0325
  2.0134  0.3045  1.2212  0.9070  0.7161

 Free energy of the ion-electron system (eV)
  ---------------------------------------------------
  alpha Z        PSCENC =       813.94738872
  Ewald energy   TEWEN  =    -11327.96781218
  -Hartree energ DENC   =     -8808.55646709
  -exchange      EXHF   =         0.00000000
  -V(xc)+E(xc)   XCENC  =       559.07612534
  PAW double counting   =     15672.26385995   -16286.79622247
  entropy T*S    EENTRO =         0.00000000
  eigenvalues    EBANDS =     -2424.37058259
  atomic energy  EATOM  =     21710.84102437
  Solvation  Ediel_sol  =         0.00000000
  ---------------------------------------------------
  free energy    TOTEN  =       -91.56268594 eV

  energy without entropy =      -91.56268594  energy(sigma->0) =      -91.56268594


--------------------------------------------------------------------------------------------------------




--------------------------------------- Iteration      1(  11)  ---------------------------------------


    POTLOK:  cpu time      0.0546: real time      0.0928
    SETDIJ:  cpu time      0.2695: real time      0.2712
    EDDIAG:  cpu time      4.4327: real time      4.4544
  RMM-DIIS:  cpu time     26.9573: real time     27.0841
    ORTHCH:  cpu time      0.5953: real time      0.5979
 BZINTS: Fermi energy:    3.777844;  160.000000 electrons
         Band energy:-0.242422E+04;  BLOECHL correction:   -0.012906
       DOS:  cpu time      0.1427: real time      0.1432
    CHARGE:  cpu time      1.0538: real time      1.0590
    MIXING:  cpu time      0.0017: real time      0.0017
    --------------------------------------------
      LOOP:  cpu time     33.5075: real time     33.7043

 eigenvalue-minimisations  : 49609
 total energy-change (2. order) :-0.2343527E-02  (-0.6034181E-02)
 number of electron     160.0000094 magnetization      -0.0000000
 augmentation part       58.9713447 magnetization      -0.0000000

 Broyden mixing:
  rms(total) = 0.47768E-01    rms(broyden)= 0.47716E-01
  rms(prec ) = 0.50380E-01
  weight for this iteration     100.00

 eigenvalues of (default mixing * dielectric matrix)
  average eigenvalue GAMMA=   1.0964
  1.8890  1.8890  0.3045  0.9138  0.9138  0.6681

 Free energy of the ion-electron system (eV)
  ---------------------------------------------------
  alpha Z        PSCENC =       813.94738872
  Ewald energy   TEWEN  =    -11327.96781218
  -Hartree energ DENC   =     -8806.14377254
  -exchange      EXHF   =         0.00000000
  -V(xc)+E(xc)   XCENC  =       559.16027461
  PAW double counting   =     15722.31640660   -16339.49712812
  entropy T*S    EENTRO =         0.00000000
  eigenvalues    EBANDS =     -2424.22141093
  atomic energy  EATOM  =     21710.84102437
  Solvation  Ediel_sol  =         0.00000000
  ---------------------------------------------------
  free energy    TOTEN  =       -91.56502947 eV

  energy without entropy =      -91.56502947  energy(sigma->0) =      -91.56502947


--------------------------------------------------------------------------------------------------------




--------------------------------------- Iteration      1(  12)  ---------------------------------------


    POTLOK:  cpu time      0.0808: real time      0.0900
    SETDIJ:  cpu time      0.2723: real time      0.2732
    EDDIAG:  cpu time      4.5705: real time      4.5932
  RMM-DIIS:  cpu time     26.4018: real time     26.5283
    ORTHCH:  cpu time      0.5794: real time      0.5819
 BZINTS: Fermi energy:    3.785871;  160.000000 electrons
         Band energy:-0.242400E+04;  BLOECHL correction:   -0.013267
       DOS:  cpu time      0.1454: real time      0.1459
    CHARGE:  cpu time      1.0470: real time      1.0526
    MIXING:  cpu time      0.0018: real time      0.0018
    --------------------------------------------
      LOOP:  cpu time     33.0989: real time     33.2668

 eigenvalue-minimisations  : 49147
 total energy-change (2. order) :-0.7448677E-02  (-0.1499062E-02)
 number of electron     160.0000094 magnetization      -0.0000000
 augmentation part       58.9738691 magnetization      -0.0000000

 Broyden mixing:
  rms(total) = 0.26643E-01    rms(broyden)= 0.26622E-01
  rms(prec ) = 0.31254E-01
  weight for this iteration     100.00

 eigenvalues of (default mixing * dielectric matrix)
  average eigenvalue GAMMA=   1.0853
  2.3796  0.3045  1.2630  1.2630  0.9256  0.8089  0.6529

 Free energy of the ion-electron system (eV)
  ---------------------------------------------------
  alpha Z        PSCENC =       813.94738872
  Ewald energy   TEWEN  =    -11327.96781218
  -Hartree energ DENC   =     -8806.37230430
  -exchange      EXHF   =         0.00000000
  -V(xc)+E(xc)   XCENC  =       559.17542579
  PAW double counting   =     15725.75152032   -16342.94666470
  entropy T*S    EENTRO =         0.00000000
  eigenvalues    EBANDS =     -2424.00105617
  atomic energy  EATOM  =     21710.84102437
  Solvation  Ediel_sol  =         0.00000000
  ---------------------------------------------------
  free energy    TOTEN  =       -91.57247815 eV

  energy without entropy =      -91.57247815  energy(sigma->0) =      -91.57247815


--------------------------------------------------------------------------------------------------------




--------------------------------------- Iteration      1(  13)  ---------------------------------------


    POTLOK:  cpu time      0.3846: real time      1.5395
    SETDIJ:  cpu time      0.2706: real time      0.2716
    EDDIAG:  cpu time      4.5090: real time      4.5326
  RMM-DIIS:  cpu time     23.8833: real time     23.9962
    ORTHCH:  cpu time      0.5891: real time      0.5916
 BZINTS: Fermi energy:    3.786033;  160.000000 electrons
         Band energy:-0.242409E+04;  BLOECHL correction:   -0.012988
       DOS:  cpu time      0.1519: real time      0.1525
    CHARGE:  cpu time      1.0533: real time      1.0587
    MIXING:  cpu time      0.0018: real time      0.0018
    --------------------------------------------
      LOOP:  cpu time     30.8437: real time     32.1446

 eigenvalue-minimisations  : 42403
 total energy-change (2. order) : 0.2124827E-03  (-0.3701577E-03)
 number of electron     160.0000094 magnetization       0.0000000
 augmentation part       58.9808772 magnetization       0.0000000

 Broyden mixing:
  rms(total) = 0.12509E-01    rms(broyden)= 0.12497E-01
  rms(prec ) = 0.15041E-01
  weight for this iteration     100.00

 eigenvalues of (default mixing * dielectric matrix)
  average eigenvalue GAMMA=   1.1182
  2.6046  1.3409  1.3409  0.3045  1.1479  0.8356  0.7290  0.6424

 Free energy of the ion-electron system (eV)
  ---------------------------------------------------
  alpha Z        PSCENC =       813.94738872
  Ewald energy   TEWEN  =    -11327.96781218
  -Hartree energ DENC   =     -8806.26272741
  -exchange      EXHF   =         0.00000000
  -V(xc)+E(xc)   XCENC  =       559.20574939
  PAW double counting   =     15728.28663198   -16345.53744345
  entropy T*S    EENTRO =         0.00000000
  eigenvalues    EBANDS =     -2424.08507710
  atomic energy  EATOM  =     21710.84102437
  Solvation  Ediel_sol  =         0.00000000
  ---------------------------------------------------
  free energy    TOTEN  =       -91.57226566 eV

  energy without entropy =      -91.57226566  energy(sigma->0) =      -91.57226566


--------------------------------------------------------------------------------------------------------




--------------------------------------- Iteration      1(  14)  ---------------------------------------


    POTLOK:  cpu time      0.0805: real time      0.0902
    SETDIJ:  cpu time      0.2688: real time      0.2711
    EDDIAG:  cpu time      4.5778: real time      4.6005
  RMM-DIIS:  cpu time     16.5475: real time     16.6273
    ORTHCH:  cpu time      0.5765: real time      0.5788
 BZINTS: Fermi energy:    3.784689;  160.000000 electrons
         Band energy:-0.242414E+04;  BLOECHL correction:   -0.012879
       DOS:  cpu time      0.1467: real time      0.1474
    --------------------------------------------
      LOOP:  cpu time     22.1978: real time     22.3152

 eigenvalue-minimisations  : 30277
 total energy-change (2. order) : 0.1500954E-03  (-0.1104734E-03)
 number of electron     160.0000094 magnetization       0.0000000
 augmentation part       58.9808772 magnetization       0.0000000

 Free energy of the ion-electron system (eV)
  ---------------------------------------------------
  alpha Z        PSCENC =       813.94738872
  Ewald energy   TEWEN  =    -11327.96781218
  -Hartree energ DENC   =     -8806.26033062
  -exchange      EXHF   =         0.00000000
  -V(xc)+E(xc)   XCENC  =       559.21740122
  PAW double counting   =     15729.26412663   -16346.47359889
  entropy T*S    EENTRO =         0.00000000
  eigenvalues    EBANDS =     -2424.14031482
  atomic energy  EATOM  =     21710.84102437
  Solvation  Ediel_sol  =         0.00000000
  ---------------------------------------------------
  free energy    TOTEN  =       -91.57211557 eV

  energy without entropy =      -91.57211557  energy(sigma->0) =      -91.57211557


--------------------------------------------------------------------------------------------------------




 average (electrostatic) potential at core
  the test charge radii are     0.9500  1.0808
  (the norm of the test charge is              1.0000)
       1 -47.3764       2 -47.3764       3 -47.3764       4 -47.3764       5 -47.3764
       6 -47.3764       7 -47.3764       8 -47.3764       9 -54.9550      10 -54.9550
      11 -54.9550      12 -54.9550      13 -54.9550      14 -54.9550      15 -54.9550
      16 -54.9550
 
 
 
 E-fermi :   3.7847     XC(G=0): -10.4325     alpha+bet : -9.3261

 Fermi energy:         3.7846889914

 spin component 1

 k-point     1 :       0.0000    0.0000    0.0000
  band No.  band energies     occupation 
      1     -51.0012      1.00000
      2     -50.9924      1.00000
      3     -50.9924      1.00000
      4     -50.9865      1.00000
      5     -50.8704      1.00000
      6     -50.8224      1.00000
      7     -50.8161      1.00000
      8     -50.8161      1.00000
      9     -50.8075      1.00000
     10     -50.7081      1.00000
     11     -50.7081      1.00000
     12     -50.5432      1.00000
     13     -48.1753      1.00000
     14     -48.1731      1.00000
     15     -48.1731      1.00000
     16     -48.1726      1.00000
     17     -48.1498      1.00000
     18     -47.9699      1.00000
     19     -47.9699      1.00000
     20     -47.8292      1.00000
     21     -47.8291      1.00000
     22     -47.8291      1.00000
     23     -47.8267      1.00000
     24     -47.7868      1.00000
     25     -10.5054      1.00000
     26      -9.3493      1.00000
     27      -9.3493      1.00000
     28      -9.3340      1.00000
     29      -9.3340      1.00000
     30      -9.0926      1.00000
     31      -8.8837      1.00000
     32      -8.7400      1.00000
     33      -2.3217      1.00000
     34      -2.0173      1.00000
     35      -1.0628      1.00000
     36      -1.0628      1.00000
     37      -1.0229      1.00000
     38      -1.0229      1.00000
[...]
 -0.000  -0.000   0.000   0.000   0.000  -0.000  -0.033   0.000
 -0.000   0.000  -0.000   0.000  -0.000   0.000  -0.000  -0.100
  0.000   0.000  -0.000  -0.000  -0.000   0.000  -0.065   0.000
 -0.000  -0.000   0.000   0.000   0.000  -0.000   0.000  -0.113
  0.000  -0.000  -0.000  -0.000   0.000   0.000   0.000   0.005
  0.000   0.000  -0.000  -0.000  -0.000   0.000   0.007  -0.000
  0.000  -0.000   0.000  -0.000   0.000  -0.000   0.000   0.024
 -0.000  -0.000   0.000   0.000   0.000  -0.000  -0.000  -0.012
  0.000   0.000  -0.000  -0.000  -0.000   0.000   0.000   0.002
 pseudopotential strength for first ion, spin component:           2
-53.022   0.103   0.000  26.705  -0.074  -0.000  -0.000   0.000
  0.103 -53.039  -0.000  -0.074  26.716   0.000  -0.000   0.000
  0.000  -0.000 -53.005  -0.000   0.000  26.685   0.000  -0.000
 26.705  -0.074  -0.000  -8.953   0.055   0.000   0.000  -0.000
 -0.074  26.716   0.000   0.055  -8.962  -0.000   0.000  -0.000
 -0.000   0.000  26.685   0.000  -0.000  -8.942  -0.000   0.000
 -0.000  -0.000   0.000   0.000   0.000  -0.000  -6.765  -0.000
  0.000   0.000  -0.000  -0.000  -0.000   0.000  -0.000  -7.141
 -0.000   0.000   0.000   0.000  -0.000  -0.000  -0.000   0.090
 -0.000  -0.000   0.000   0.000   0.000  -0.000   0.117   0.000
 -0.000   0.000  -0.000   0.000  -0.000   0.000  -0.000   0.015
  0.000   0.000  -0.000  -0.000  -0.000   0.000  -0.564   0.000
 -0.000  -0.000   0.000   0.000   0.000  -0.000   0.000  -0.477
  0.000  -0.000  -0.000  -0.000   0.000   0.000   0.000  -0.019
  0.000   0.000  -0.000  -0.000  -0.000   0.000  -0.025  -0.000
  0.000  -0.000   0.000  -0.000   0.000  -0.000   0.000  -0.005
 -0.000  -0.000   0.000   0.000   0.000  -0.000  -0.000  -0.012
  0.000   0.000  -0.000  -0.000  -0.000   0.000   0.000   0.003
 total augmentation occupancy for first ion, spin component:           1
  2.009  -0.019   0.000   0.056  -0.046   0.000   0.000   0.000   0.000  -0.000   0.000   0.000   0.000  -0.000   0.000  -0.000
 -0.019   2.013   0.000  -0.046   0.064  -0.000   0.000   0.000  -0.000   0.000  -0.000   0.000  -0.000   0.000   0.000   0.000
 -0.000   0.000   2.009   0.000   0.000   0.051   0.000  -0.000   0.000  -0.000   0.000   0.000   0.000   0.000   0.000   0.000
  0.056  -0.046  -0.000   0.193  -0.111   0.000  -0.000  -0.000   0.000  -0.000   0.000   0.000   0.000  -0.000  -0.000   0.000
 -0.046   0.064   0.000  -0.111   0.214   0.000  -0.000   0.000  -0.000   0.000   0.000  -0.000   0.000  -0.000   0.000   0.000
  0.000  -0.000   0.051  -0.000   0.000   0.175   0.000  -0.000   0.000  -0.000   0.000   0.000  -0.000   0.000   0.000   0.000
  0.000   0.000  -0.000  -0.000  -0.000   0.000   1.243   0.000  -0.000  -0.098   0.000  -0.077   0.000  -0.000  -0.056   0.000
  0.000  -0.000  -0.000   0.000  -0.000  -0.000   0.000   1.471  -0.003   0.000  -0.093  -0.000   0.086  -0.139   0.000   0.099
 -0.000  -0.000   0.000   0.000  -0.000   0.000  -0.000  -0.003   1.299  -0.000  -0.162  -0.000  -0.141   0.048   0.000  -0.086
 -0.000   0.000   0.000  -0.000   0.000   0.000  -0.098   0.000  -0.000   1.227   0.000  -0.057  -0.000  -0.000  -0.053   0.000
  0.000   0.000   0.000  -0.000   0.000   0.000   0.000  -0.093  -0.162   0.000   1.505   0.000   0.103  -0.084  -0.000   0.142
  0.000   0.000   0.000   0.000  -0.000  -0.000  -0.077  -0.000   0.000  -0.057   0.000   0.162  -0.000  -0.000  -0.027   0.000
 -0.000   0.000   0.000   0.000  -0.000  -0.000   0.000   0.086  -0.141   0.000   0.103  -0.000   0.246  -0.070  -0.000   0.090
 -0.000   0.000   0.000   0.000  -0.000   0.000   0.000  -0.139   0.048  -0.000  -0.084   0.000  -0.070   0.166  -0.000  -0.010
  0.000   0.000  -0.000  -0.000   0.000  -0.000  -0.056   0.000   0.000  -0.053   0.000  -0.027  -0.000  -0.000   0.158  -0.000
  0.000  -0.000   0.000   0.000   0.000   0.000  -0.000   0.099  -0.086   0.000   0.142   0.000   0.090  -0.010   0.000   0.138
  0.000   0.000   0.000   0.000   0.000   0.000  -0.000  -0.011  -0.035  -0.000   0.091  -0.000  -0.329   0.030   0.000  -0.009
 -0.000   0.000   0.000  -0.000   0.000   0.000  -0.000   0.001   0.019   0.000  -0.018  -0.000   0.021  -0.005   0.000   0.003
 total augmentation occupancy for first ion, spin component:           2
 -0.006   0.000  -0.000  -0.002  -0.000  -0.000   0.000   0.000  -0.000   0.000   0.000   0.000   0.000   0.000  -0.000   0.000
  0.000  -0.008  -0.000  -0.000  -0.008  -0.000  -0.000  -0.000  -0.000   0.000  -0.000   0.000  -0.000   0.000   0.000  -0.000
 -0.000   0.000  -0.008  -0.000  -0.000  -0.006   0.000   0.000   0.000   0.000  -0.000  -0.000  -0.000  -0.000  -0.000   0.000
 -0.002  -0.000  -0.000   0.015  -0.002   0.000  -0.000  -0.000   0.000  -0.000   0.000   0.000  -0.000  -0.000   0.000   0.000
 -0.000  -0.008   0.000  -0.002   0.001  -0.000   0.000   0.000   0.000   0.000  -0.000   0.000   0.000  -0.000  -0.000   0.000
 -0.000  -0.000  -0.006  -0.000   0.000   0.010   0.000  -0.000   0.000  -0.000   0.000  -0.000  -0.000   0.000   0.000   0.000
  0.000  -0.000  -0.000  -0.000   0.000  -0.000   0.711  -0.000   0.000   0.116  -0.000  -0.272   0.000   0.000   0.007   0.000
 -0.000   0.000   0.000  -0.000  -0.000  -0.000  -0.000   0.377   0.092   0.000   0.042  -0.000  -0.201  -0.004   0.000  -0.032
  0.000   0.000   0.000  -0.000  -0.000   0.000  -0.000   0.092   0.552   0.000   0.209  -0.000  -0.004  -0.220   0.000  -0.030
  0.000   0.000   0.000  -0.000   0.000  -0.000   0.116   0.000  -0.000   0.700   0.000   0.009   0.000  -0.000  -0.268   0.000
 -0.000  -0.000  -0.000  -0.000  -0.000   0.000   0.000   0.042   0.209   0.000   0.255  -0.000  -0.018  -0.024   0.000  -0.155
  0.000   0.000   0.000   0.000   0.000   0.000  -0.272  -0.000  -0.000   0.009  -0.000   0.055  -0.000   0.000   0.006   0.000
  0.000   0.000   0.000  -0.000   0.000  -0.000  -0.000  -0.201  -0.004  -0.000  -0.018  -0.000   0.009   0.023  -0.000  -0.002
  0.000   0.000  -0.000  -0.000  -0.000   0.000   0.000  -0.004  -0.220   0.000  -0.024  -0.000   0.023   0.015  -0.000   0.011
 -0.000   0.000   0.000   0.000  -0.000  -0.000   0.007  -0.000   0.000  -0.268  -0.000   0.006   0.000  -0.000   0.040   0.000
  0.000   0.000   0.000  -0.000  -0.000   0.000  -0.000  -0.032  -0.030  -0.000  -0.155  -0.000  -0.002   0.011   0.000  -0.011
 -0.000   0.000   0.000  -0.000  -0.000   0.000  -0.000   0.125   0.020   0.000  -0.049  -0.000  -0.036   0.004   0.000  -0.026
  0.000   0.000   0.000   0.000   0.000   0.000   0.000   0.014   0.018  -0.000  -0.021   0.000  -0.003  -0.002   0.000   0.000


------------------------ aborting loop because EDIFF is reached ----------------------------------------





 total charge

# of ion       s       p       d       tot
------------------------------------------
    1        0.341   6.294   6.066  12.702
    2        0.341   6.294   6.066  12.702
    3        0.341   6.294   6.066  12.702
    4        0.341   6.294   6.066  12.702
    5        0.341   6.294   6.066  12.702
    6        0.341   6.294   6.066  12.702
    7        0.341   6.294   6.066  12.702
    8        0.341   6.294   6.066  12.702
    9        1.489   2.263   0.053   3.805
   10        1.489   2.263   0.053   3.805
   11        1.489   2.263   0.053   3.805
   12        1.489   2.263   0.053   3.805
   13        1.489   2.263   0.053   3.805
   14        1.489   2.263   0.053   3.805
   15        1.489   2.263   0.053   3.805
   16        1.489   2.263   0.053   3.805
--------------------------------------------------
tot         14.642  68.454  48.955 132.051



 magnetization (x)

# of ion       s       p       d       tot
------------------------------------------
    1        0.028   0.013   2.530   2.570
    2       -0.028  -0.013  -2.530  -2.570
    3       -0.028  -0.013  -2.530  -2.570
    4        0.028   0.013   2.530   2.570
    5        0.028   0.013   2.530   2.570
    6       -0.028  -0.013  -2.530  -2.570
    7       -0.028  -0.013  -2.530  -2.570
    8        0.028   0.013   2.530   2.570
    9        0.000   0.000   0.000   0.000
   10        0.000   0.000   0.000   0.000
   11        0.000   0.000   0.000   0.000
   12        0.000   0.000   0.000   0.000
   13        0.000   0.000   0.000   0.000
   14        0.000   0.000   0.000   0.000
   15        0.000   0.000   0.000   0.000
   16        0.000   0.000   0.000   0.000
--------------------------------------------------
tot         -0.000   0.000   0.000   0.000
 
    CHARGE:  cpu time      1.0087: real time      1.0137
    FORLOC:  cpu time      0.0031: real time      0.0031
    FORNL :  cpu time      6.7363: real time      6.7702
    STRESS:  cpu time     21.1227: real time     21.2272
    FORCOR:  cpu time      0.0512: real time      0.0514
    FORHAR:  cpu time      0.0075: real time      0.0075
    MIXING:  cpu time      0.0018: real time      0.0018
    OFIELD:  cpu time      0.0000: real time      0.0000
    FORVDW:  cpu time      0.7984: real time      0.8013

  FORCE on cell =-STRESS in cart. coord.  units (eV):
  Direction    XX          YY          ZZ          XY          YZ          ZX
  --------------------------------------------------------------------------------------
  Alpha Z   813.94739   813.94739   813.94739
  Ewald   -1091.32995 -1903.54544 -8333.11814     0.00000    -0.00000    -0.00000
  Hartree  5386.27158  4631.03039 -1209.73978     0.00000    -0.00000    -0.00000
  E(xc)    -896.70221  -898.82036  -897.97531     0.00000     0.00000    -0.00000
  Local   -6163.36457 -4600.79626  7693.38975    -0.00000     0.00000     0.00000
  n-local  -275.82912  -248.21148  -240.64396    -0.83009    -0.32897    -0.87719
  augment   530.56239   515.99629   513.83614     0.00000     0.00000     0.00000
  Kinetic  1700.96050  1694.60162  1664.57693     3.66585    -0.27476     0.24685
  Fock        0.00000     0.00000     0.00000     0.00000     0.00000     0.00000
  vdW        -6.28132    -6.35026    -6.57580     0.00000     0.00000     0.00000
  -------------------------------------------------------------------------------------
  Total      -1.76531    -2.14810    -2.30279     0.00000     0.00000     0.00000
  in kB      -9.06517   -11.03090   -11.82523     0.00000     0.00000     0.00000
  external pressure =      -10.64 kB  Pullay stress =        0.00 kB


 VOLUME and BASIS-vectors are now :
 -----------------------------------------------------------------------------
  energy-cutoff  :      550.00
  volume of cell :      312.00
      direct lattice vectors                 reciprocal lattice vectors
     4.829562767 -5.732280455  0.000000000     0.103529041 -0.087225321  0.000000000
     4.829562767  5.732280455  0.000000000     0.103529041  0.087225321  0.000000000
     0.000000000  0.000000000  5.634940742     0.000000000  0.000000000  0.177464155

  length of vectors
     7.495579746  7.495579746  5.634940742     0.135375473  0.135375473  0.177464155


 FORCES acting on ions
    electron-ion (+dipol)            ewald-force                    non-local-force                 convergence-correction
 -----------------------------------------------------------------------------------------------
   0.401E-13 -.998E-13 0.121E-12   0.171E-12 -.391E-13 -.142E-13   0.690E-21 0.800E-21 -.151E-20   0.213E-12 -.176E-12 -.399E-12
   0.767E-12 0.773E-12 0.140E-12   0.168E-12 -.249E-13 -.133E-13   0.399E-21 -.381E-21 0.129E-21   -.241E-12 0.682E-13 -.278E-12
   0.582E-12 -.148E-11 -.116E-10   0.172E-12 -.284E-13 -.284E-13   0.126E-22 0.245E-21 0.163E-21   0.330E-12 0.565E-12 -.253E-12
   -.503E-11 -.956E-11 -.868E-11   0.171E-12 -.320E-13 -.249E-13   0.829E-22 0.290E-22 0.802E-23   -.161E-12 -.488E-12 -.321E-12
   -.260E-11 -.390E-11 -.381E-11   -.172E-12 -.142E-13 -.266E-14   -.193E-21 -.160E-21 -.215E-21   0.353E-12 -.123E-12 -.181E-12
   0.429E-11 0.573E-11 -.446E-11   -.163E-12 0.142E-13 0.355E-14   -.225E-21 -.176E-21 -.102E-21   -.435E-13 0.212E-12 -.834E-13
   -.147E-10 -.292E-10 0.368E-10   -.178E-12 -.391E-13 -.711E-14   -.172E-21 0.669E-22 -.204E-21   0.320E-12 0.661E-12 -.620E-12
   0.774E-12 -.622E-11 0.350E-10   -.171E-12 0.000E+00 0.000E+00   -.747E-21 -.366E-21 -.114E-20   -.196E-12 -.374E-12 -.648E-12
   0.345E-07 -.671E-12 0.323E+03   0.660E-14 0.320E-13 -.324E+03   -.637E-19 -.431E-17 0.111E+01   0.171E-12 0.699E-13 -.203E-01
   0.345E-07 0.145E-11 0.323E+03   0.711E-14 0.715E-14 -.324E+03   0.196E-18 -.105E-17 0.111E+01   -.424E-13 -.225E-12 -.203E-01
   0.345E-07 0.129E-12 0.323E+03   0.711E-14 0.211E-13 -.324E+03   0.886E-18 0.949E-17 0.111E+01   0.649E-14 0.115E-12 -.203E-01
   0.345E-07 -.165E-12 0.323E+03   0.762E-14 0.249E-13 -.324E+03   -.190E-17 -.781E-17 0.111E+01   -.186E-12 0.507E-13 -.203E-01
   -.345E-07 -.119E-12 -.323E+03   -.773E-14 0.154E-13 0.324E+03   0.726E-18 0.134E-17 -.111E+01   0.350E-13 -.418E-13 0.203E-01
   -.345E-07 -.445E-12 -.323E+03   -.711E-14 0.152E-13 0.324E+03   -.604E-18 -.158E-17 -.111E+01   0.631E-14 0.189E-13 0.203E-01
   -.345E-07 -.208E-11 -.323E+03   -.730E-14 0.242E-13 0.324E+03   -.730E-18 0.460E-17 -.111E+01   -.154E-13 0.624E-13 0.203E-01
   -.345E-07 0.193E-11 -.323E+03   -.673E-14 0.274E-13 0.324E+03   -.772E-18 -.124E-17 -.111E+01   -.266E-13 -.342E-13 0.203E-01
 -----------------------------------------------------------------------------------------------
   -.165E-10 -.439E-10 0.433E-10   -.285E-14 0.376E-14 -.114E-12   -.226E-17 -.558E-18 -.222E-15   0.524E-12 0.360E-12 -.244E-11
 
 
 POSITION                                       TOTAL-FORCE (eV/Angst)
 -----------------------------------------------------------------------------------
      0.00000      0.00000      0.00000         0.000000      0.000000     -0.000000
      2.41478      2.86614      0.00000         0.000000      0.000000      0.000000
      2.41478     -2.86614      0.00000         0.000000      0.000000     -0.000000
      4.82956      0.00000      0.00000         0.000000      0.000000      0.000000
      2.41478      0.00000      0.00000         0.000000      0.000000     -0.000000
      4.82956      2.86614      0.00000         0.000000      0.000000     -0.000000
      4.82956     -2.86614      0.00000         0.000000      0.000000      0.000000
      7.24434     -0.00000      0.00000         0.000000      0.000000     -0.000000
      2.41478     -1.43307      3.84289        -0.000000     -0.000000      0.007845
      4.82956      1.43307      3.84289         0.000000     -0.000000      0.007845
      4.82956     -4.29921      3.84289        -0.000000     -0.000000      0.007845
      7.24434     -1.43307      3.84289         0.000000      0.000000      0.007845
      2.41478      1.43307      1.79205        -0.000000     -0.000000     -0.007845
      4.82956      4.29921      1.79205        -0.000000     -0.000000     -0.007845
      4.82956     -1.43307      1.79205         0.000000      0.000000     -0.007845
      7.24434      1.43307      1.79205         0.000000      0.000000     -0.007845
 -----------------------------------------------------------------------------------
    total drift:                               -0.000000     -0.000000      0.000000


--------------------------------------------------------------------------------------------------------



  FREE ENERGIE OF THE ION-ELECTRON SYSTEM (eV)
  ---------------------------------------------------
  free  energy   TOTEN  =       -98.34266807 eV

  energy  without entropy=      -98.34266807  energy(sigma->0) =      -98.34266807
 


--------------------------------------------------------------------------------------------------------


    POTLOK:  cpu time      0.3238: real time      0.3461


--------------------------------------------------------------------------------------------------------


     LOOP+:  cpu time    468.0143: real time    471.9119
 -----------------------------------------------------------------------------
|                                                                             |
|           W    W    AA    RRRRR   N    N  II  N    N   GGGG   !!!           |
|           W    W   A  A   R    R  NN   N  II  NN   N  G    G  !!!           |
|           W    W  A    A  R    R  N N  N  II  N N  N  G       !!!           |
|           W WW W  AAAAAA  RRRRR   N  N N  II  N  N N  G  GGG   !            |
|           WW  WW  A    A  R   R   N   NN  II  N   NN  G    G                |
|           W    W  A    A  R    R  N    N  II  N    N   GGGG   !!!           |
|                                                                             |
|     Tetrahedron method does not include variations of the Fermi             |
|     occupations, so forces and stress will be inaccurate. We suggest        |
|     using a different smearing scheme ISMEAR = 1 or 2 for metals in         |
|     relaxations.                                                            |
|                                                                             |
 -----------------------------------------------------------------------------

    4ORBIT:  cpu time      0.0000: real time      0.0000



 total charge

# of ion       s       p       d       tot
------------------------------------------
    1        0.341   6.294   6.066  12.702
    2        0.341   6.294   6.066  12.702
    3        0.341   6.294   6.066  12.702
    4        0.341   6.294   6.066  12.702
    5        0.341   6.294   6.066  12.702
    6        0.341   6.294   6.066  12.702
    7        0.341   6.294   6.066  12.702
    8        0.341   6.294   6.066  12.702
    9        1.489   2.263   0.053   3.805
   10        1.489   2.263   0.053   3.805
   11        1.489   2.263   0.053   3.805
   12        1.489   2.263   0.053   3.805
   13        1.489   2.263   0.053   3.805
   14        1.489   2.263   0.053   3.805
   15        1.489   2.263   0.053   3.805
   16        1.489   2.263   0.053   3.805
--------------------------------------------------
tot         14.642  68.454  48.955 132.051



 magnetization (x)

# of ion       s       p       d       tot
------------------------------------------
    1        0.028   0.013   2.530   2.570
    2       -0.028  -0.013  -2.530  -2.570
    3       -0.028  -0.013  -2.530  -2.570
    4        0.028   0.013   2.530   2.570
    5        0.028   0.013   2.530   2.570
    6       -0.028  -0.013  -2.530  -2.570
    7       -0.028  -0.013  -2.530  -2.570
    8        0.028   0.013   2.530   2.570
    9        0.000   0.000   0.000   0.000
   10        0.000   0.000   0.000   0.000
   11        0.000   0.000   0.000   0.000
   12        0.000   0.000   0.000   0.000
   13        0.000   0.000   0.000   0.000
   14        0.000   0.000   0.000   0.000
   15        0.000   0.000   0.000   0.000
   16        0.000   0.000   0.000   0.000
--------------------------------------------------
tot         -0.000   0.000   0.000   0.000
 
 BZINTS: Fermi energy:    3.784689;  160.000000 electrons
         Band energy:-0.242414E+04;  BLOECHL correction:   -0.012879

 total amount of memory used by VASP MPI-rank0   187633. kBytes
=======================================================================

   base      :      30000. kBytes
   nonlr-proj:      13916. kBytes
   fftplans  :       3084. kBytes
   grid      :      19560. kBytes
   one-center:        497. kBytes
   wavefun   :     120576. kBytes
 
  
  
 General timing and accounting informations for this job:
 ========================================================
  
                  Total CPU time used (sec):      494.517
                            User time (sec):      492.358
                          System time (sec):        2.158
                         Elapsed time (sec):      499.552
  
                   Maximum memory used (kb):      479696.
                   Average memory used (kb):          N/A
  
                          Minor page faults:       191166
                          Major page faults:            0
                 Voluntary context switches:        36314
