unknown system                          
           1
     4.829563   -5.732280    0.000000
     4.829563    5.732280    0.000000
     0.000000    0.000000    5.634941
   Fe   Se
     8     8
unknown system                          
           1
     4.829563   -5.732280    0.000000
     4.829563    5.732280    0.000000
     0.000000    0.000000    5.634941
   Fe   Se
     8     8
Direct configuration=     1
   0.00000000  0.00000000  0.00000000
   0.00000000  0.50000000  0.00000000
   0.50000000  0.00000000  0.00000000
   0.50000000  0.50000000  0.00000000
   0.25000000  0.25000000  0.00000000
   0.25000000  0.75000000  0.00000000
   0.75000000  0.25000000  0.00000000
   0.75000000  0.75000000  0.00000000
   0.37500000  0.12500000  0.68197539
   0.37500000  0.62500000  0.68197539
   0.87500000  0.12500000  0.68197539
   0.87500000  0.62500000  0.68197539
   0.12500000  0.37500000  0.31802461
   0.12500000  0.87500000  0.31802461
   0.62500000  0.37500000  0.31802461
   0.62500000  0.87500000  0.31802461
