       N       E                     dE             d eps       ncg     rms          rms(c)
DAV:   1     0.190876373777E+04    0.19088E+04   -0.71882E+04 79112   0.185E+03
DAV:   2     0.146043740420E+03   -0.17627E+04   -0.16559E+04 71680   0.545E+02
DAV:   3    -0.840451304023E+02   -0.23009E+03   -0.18777E+03 73408   0.208E+02
DAV:   4    -0.962440691992E+02   -0.12199E+02   -0.11976E+02 79864   0.567E+01
DAV:   5    -0.964446481257E+02   -0.20058E+00   -0.20048E+00 97024   0.697E+00    0.422E+01
DAV:   6    -0.960682902821E+02    0.37636E+00   -0.38797E+01 95912   0.817E+01    0.601E+01
DAV:   7    -0.850177402151E+02    0.11051E+02   -0.26770E+01 87152   0.617E+01    0.302E+01
DAV:   8    -0.918376602920E+02   -0.68199E+01   -0.18649E+01 86384   0.627E+01    0.443E+01
DAV:   9    -0.862890015379E+02    0.55487E+01   -0.80638E+00 88744   0.423E+01    0.315E+01
DAV:  10    -0.867035481858E+02   -0.41455E+00   -0.39042E+00 84408   0.241E+01    0.264E+01
DAV:  11    -0.874973858158E+02   -0.79384E+00   -0.24309E+00 83776   0.227E+01    0.117E+01
DAV:  12    -0.878440761117E+02   -0.34669E+00   -0.20130E+00 84440   0.177E+01    0.118E+01
DAV:  13    -0.876023098196E+02    0.24177E+00   -0.11062E+00 84360   0.130E+01    0.508E+00
DAV:  14    -0.875279461438E+02    0.74364E-01   -0.23225E-01 89576   0.576E+00    0.266E+00
DAV:  15    -0.875321673404E+02   -0.42212E-02   -0.21385E-01 82208   0.570E+00    0.291E+00
DAV:  16    -0.875182120037E+02    0.13955E-01   -0.23741E-01 81928   0.504E+00    0.226E+00
DAV:  17    -0.875139252221E+02    0.42868E-02   -0.84847E-02 88480   0.325E+00    0.135E+00
DAV:  18    -0.875068124901E+02    0.71127E-02   -0.26491E-02 89056   0.186E+00    0.492E-01
DAV:  19    -0.875073064087E+02   -0.49392E-03   -0.50753E-03 81416   0.877E-01    0.319E-01
DAV:  20    -0.875070373591E+02    0.26905E-03   -0.30159E-03 85200   0.542E-01    0.245E-01
DAV:  21    -0.875071009306E+02   -0.63571E-04   -0.76802E-04 81360   0.309E-01    0.522E-02
DAV:  22    -0.875070995618E+02    0.13688E-05   -0.13562E-04 77920   0.807E-02    0.458E-02
DAV:  23    -0.875071387026E+02   -0.39141E-04   -0.46993E-05 74600   0.768E-02    0.442E-02
DAV:  24    -0.875071245243E+02    0.14178E-04   -0.13500E-05 42592   0.418E-02    0.155E-02
DAV:  25    -0.875071165539E+02    0.79703E-05   -0.46254E-06 39176   0.192E-02    0.140E-02
DAV:  26    -0.875071180848E+02   -0.15309E-05   -0.15587E-06 38968   0.115E-02
   1 F= -.87507118E+02 E0= -.87507118E+02  d E =0.000000E+00  mag=    13.2998
