 vasp.6.4.2 20Jul23 (build Aug 05 2024 17:09:17) complex                        
  
 executed on             LinuxIFC date 2025.05.27  02:52:00
 running   24 mpi-ranks, with    1 threads/rank, on    1 nodes
 distrk:  each k-point on   24 cores,    1 groups
 distr:  one band on NCORE=   3 cores,    8 groups


--------------------------------------------------------------------------------------------------------


 INCAR:
   SYSTEM = metalsystem
   EDIFF = 5E-6
   SIGMA = 0.2
   ISPIN = 2
   VOSKOWN = 1
   MAGMOM = 12*3
   LWAVE = .FALSE.
   ISIF = 2
   ISMEAR = -5
   NSW = 1
   IBRION = -1
   PREC = High
   NEDOS = 2000
   NPAR = 8
   LCHARG = .TRUE.
   AMIX = 0.2
   BMIX = 0.0001
   AMIX_MAG = 0.2
   BMIX_MAG = 0.0001

 POTCAR:   PAW Co 03Mar1998                       
 POTCAR:   PAW Ni_pv 19Apr2000                    
 POTCAR:   PAW Co 03Mar1998                       
   VRHFIN =Co: d8 s1                                                                                
   LEXCH  = CA                                                                                      
   EATOM  =   816.9490 eV,   60.0441 Ry                                                             
                                                                                                    
   TITEL  = PAW Co 03Mar1998                                                                        
   LULTRA =        F    use ultrasoft PP ?                                                          
   IUNSCR =        1    unscreen: 0-lin 1-nonlin 2-no                                               
   RPACOR =    2.000    partial core radius                                                         
   POMASS =   58.933; ZVAL   =    9.000    mass and valenz                                          
   RCORE  =    2.300    outmost cutoff radius                                                       
   RWIGS  =    2.460; RWIGS  =    1.302    wigner-seitz radius (au A)                               
   ENMAX  =  268.056; ENMIN  =  201.042 eV                                                          
   RCLOC  =    1.697    cutoff for local pot                                                        
   LCOR   =        T    correct aug charges                                                         
   LPAW   =        T    paw PP                                                                      
   EAUG   =  477.818                                                                                
   DEXC   =    -.013                                                                                
   RMAX   =    2.816    core radius for proj-oper                                                   
   RAUG   =    1.300    factor for augmentation sphere                                              
   RDEP   =    2.393    core radius for depl-charge                                                 
   QCUT   =   -4.439; QGAM   =    8.877    optimization parameters                                  
                                                                                                    
   Description                                                                                      
     l     E      TYP  RCUT    TYP  RCUT                                                            
     2   .000     23  2.300                                                                         
     2   .000     23  2.300                                                                         
     0   .000     23  2.300                                                                         
     0   .000     23  2.300                                                                         
     1  -.200     23  2.300                                                                         
     1   .000     23  2.300                                                                         
     3   .000      7   .000                                                                         
  local pseudopotential read in
  partial core-charges read in
  atomic valenz-charges read in
  non local Contribution for L=           2  read in
    real space projection operators read in
  non local Contribution for L=           2  read in
    real space projection operators read in
  non local Contribution for L=           0  read in
    real space projection operators read in
  non local Contribution for L=           0  read in
    real space projection operators read in
  non local Contribution for L=           1  read in
    real space projection operators read in
  non local Contribution for L=           1  read in
    real space projection operators read in
    PAW grid and wavefunctions read in
 
   number of l-projection  operators is LMAX  =           6
   number of lm-projection operators is LMMAX =          18
 
 POTCAR:   PAW Ni_pv 19Apr2000                    
   VRHFIN =Ni:                                                                                      
   LEXCH  = CA                                                                                      
   EATOM  =  3504.8643 eV,  257.6003 Ry                                                             
                                                                                                    
   TITEL  = PAW Ni_pv 19Apr2000                                                                     
   LULTRA =        F    use ultrasoft PP ?                                                          
   IUNSCR =        1    unscreen: 0-lin 1-nonlin 2-no                                               
   RPACOR =    1.500    partial core radius                                                         
   POMASS =   58.690; ZVAL   =   16.000    mass and valenz                                          
   RCORE  =    2.000    outmost cutoff radius                                                       
   RWIGS  =    2.000; RWIGS  =    1.058    wigner-seitz radius (au A)                               
   ENMAX  =  367.726; ENMIN  =  275.795 eV                                                          
   RCLOC  =    1.301    cutoff for local pot                                                        
   LCOR   =        T    correct aug charges                                                         
   LPAW   =        T    paw PP                                                                      
   EAUG   =  703.443                                                                                
   DEXC   =    -.002                                                                                
   RMAX   =    2.404    core radius for proj-oper                                                   
   RAUG   =    1.300    factor for augmentation sphere                                              
   RDEP   =    2.103    core radius for depl-charge                                                 
   QCUT   =   -5.199; QGAM   =   10.398    optimization parameters                                  
                                                                                                    
   Description                                                                                      
     l     E      TYP  RCUT    TYP  RCUT                                                            
     1   .000     23  1.700                                                                         
     1  -.100     23  1.700                                                                         
     2   .000     23  2.000                                                                         
     2   .000     23  2.000                                                                         
     0   .000     23  1.900                                                                         
     0   .000     23  1.900                                                                         
     3   .000      7   .000                                                                         
  local pseudopotential read in
  partial core-charges read in
  atomic valenz-charges read in
  non local Contribution for L=           1  read in
    real space projection operators read in
  non local Contribution for L=           1  read in
    real space projection operators read in
  non local Contribution for L=           2  read in
    real space projection operators read in
  non local Contribution for L=           2  read in
    real space projection operators read in
  non local Contribution for L=           0  read in
    real space projection operators read in
  non local Contribution for L=           0  read in
    real space projection operators read in
    PAW grid and wavefunctions read in
 
   number of l-projection  operators is LMAX  =           6
   number of lm-projection operators is LMMAX =          18
 
 PAW Co 03Mar1998                       :
 energy of atom  1       EATOM= -816.9490
 kinetic energy error for atom=    0.0033 (will be added to EATOM!!)
 PAW Ni_pv 19Apr2000                    :
 energy of atom  2       EATOM=-3504.8643
 kinetic energy error for atom=    0.0893 (will be added to EATOM!!)
 
 
 POSCAR: CoNiV
  positions in direct lattice
  velocities in cartesian coordinates
 exchange correlation table for  LEXCH =        2
   RHO(1)=    0.500       N(1)  =     2000
   RHO(2)=  100.500       N(2)  =     4000

 VTST: version 4.1, (05/19/21)

 CHAIN: initializing optimizer
 
 OPT: Using VASP Dynamics algorithm
 CHAIN: Read ICHAIN            0
 
 POSCAR: CoNiV
  positions in direct lattice
  velocities in cartesian coordinates
 


--------------------------------------------------------------------------------------------------------


 ion  position               nearest neighbor table
   1  0.834  0.250  0.338-   3 2.42   5 2.44   6 2.44   2 2.46   2 2.46  12 2.47  11 2.47  11 2.47
                            12 2.47   7 2.50  10 2.50   9 2.50
   2  0.834  0.750  0.338-   4 2.42   5 2.44   6 2.44   1 2.46   1 2.46  12 2.47  11 2.47  11 2.47
                            12 2.47   8 2.50  10 2.50   9 2.50
   3  0.165  0.250  0.664-   1 2.42  11 2.45  12 2.45   5 2.46   6 2.46   4 2.46   4 2.46  10 2.48
                             9 2.48   6 2.48   5 2.48   7 2.48
   4  0.165  0.750  0.664-   2 2.42  11 2.45  12 2.45   5 2.46   6 2.46   3 2.46   3 2.46  10 2.48
                             9 2.48   6 2.48   5 2.48   8 2.48
   5  0.667  0.000  0.665-   1 2.44   2 2.44  11 2.45   4 2.46   3 2.46   6 2.46   6 2.46   9 2.47
                             8 2.48   7 2.48   3 2.48   4 2.48
   6  0.667  0.500  0.665-   1 2.44   2 2.44  12 2.45   4 2.46   3 2.46   5 2.46   5 2.46  10 2.47
                             8 2.48   7 2.48   3 2.48   4 2.48
   7  0.501  0.250  0.999-   8 2.46   8 2.46  10 2.47   9 2.47   9 2.47  10 2.47   5 2.48   6 2.48
                             3 2.48  12 2.49  11 2.49   1 2.50
   8  0.501  0.750  0.999-   7 2.46   7 2.46  10 2.47   9 2.47   9 2.47  10 2.47   5 2.48   6 2.48
                             4 2.48  12 2.49  11 2.49   2 2.50
   9  1.000  0.000  0.999-  10 2.46  10 2.46   7 2.47   8 2.47   5 2.47   8 2.47   7 2.47   4 2.48
                             3 2.48  11 2.49   1 2.50   2 2.50
  10  1.000  0.500  0.999-   9 2.46   9 2.46   7 2.47   8 2.47   6 2.47   8 2.47   7 2.47   4 2.48
                             3 2.48  12 2.49   1 2.50   2 2.50
  11  0.333  0.000  0.336-   3 2.45   4 2.45   5 2.45  12 2.46  12 2.46   2 2.47   1 2.47   2 2.47
                             1 2.47   9 2.49   8 2.49   7 2.49
  12  0.333  0.500  0.336-   3 2.45   4 2.45   6 2.45  11 2.46  11 2.46   2 2.47   1 2.47   2 2.47
                             1 2.47  10 2.49   8 2.49   7 2.49
 
  LATTYP: Found a simple monoclinic cell.
 ALAT       =     4.2838252085
 B/A-ratio  =     1.1491527534
 C/A-ratio  =     1.4135712670
 COS(beta)  =    -0.0034537486
  
  Lattice vectors:
  
 A1 = (   4.2838188347,   0.0000000000,  -0.0073898078)
 A2 = (   0.0000000000,   4.9227695336,   0.0000000000)
 A3 = (  -0.0104681589,   0.0000000000,   6.0554831794)


Analysis of symmetry for initial positions (statically):
=====================================================================
 Subroutine PRICEL returns following result:
 
  LATTYP: Found a simple monoclinic cell.
 ALAT       =     4.2838252085
 B/A-ratio  =     0.5745763767
 C/A-ratio  =     1.4135712670
 COS(beta)  =    -0.0034537486
  
  Lattice vectors:
  
 A1 = (   4.2838188347,   0.0000000000,  -0.0073898078)
 A2 = (   0.0000000000,   2.4613847668,   0.0000000000)
 A3 = (  -0.0104681589,   0.0000000000,   6.0554831794)
 
   2 primitive cells build up your supercell.
 

 Routine SETGRP: Setting up the symmetry group for a 
 simple monoclinic supercell.


 Subroutine GETGRP returns: Found  2 space group operations
 (whereof  2 operations were pure point group operations)
 out of a pool of  4 trial point group operations.


The static configuration has the point symmetry C_1h.


Analysis of symmetry for dynamics (positions and initial velocities):
=====================================================================
 Subroutine PRICEL returns following result:
 
  LATTYP: Found a simple monoclinic cell.
 ALAT       =     4.2838252085
 B/A-ratio  =     0.5745763767
 C/A-ratio  =     1.4135712670
 COS(beta)  =    -0.0034537486
  
  Lattice vectors:
  
 A1 = (   4.2838188347,   0.0000000000,  -0.0073898078)
 A2 = (   0.0000000000,   2.4613847668,   0.0000000000)
 A3 = (  -0.0104681589,   0.0000000000,   6.0554831794)
 
   2 primitive cells build up your supercell.
 

 Routine SETGRP: Setting up the symmetry group for a 
 simple monoclinic supercell.


 Subroutine GETGRP returns: Found  2 space group operations
 (whereof  2 operations were pure point group operations)
 out of a pool of  4 trial point group operations.


The dynamic configuration has the point symmetry C_1h.


Analysis of structural, dynamic, and magnetic symmetry:
=====================================================================
 Subroutine PRICEL returns following result:
 
  LATTYP: Found a simple monoclinic cell.
 ALAT       =     4.2838252085
 B/A-ratio  =     0.5745763767
 C/A-ratio  =     1.4135712670
 COS(beta)  =    -0.0034537486
  
  Lattice vectors:
  
 A1 = (   4.2838188347,   0.0000000000,  -0.0073898078)
 A2 = (   0.0000000000,   2.4613847668,   0.0000000000)
 A3 = (  -0.0104681589,   0.0000000000,   6.0554831794)
 
   2 primitive cells build up your supercell.
 

 Routine SETGRP: Setting up the symmetry group for a 
 simple monoclinic supercell.


 Subroutine GETGRP returns: Found  2 space group operations
 (whereof  2 operations were pure point group operations)
 out of a pool of  4 trial point group operations.


The overall configuration has the point symmetry C_1h.


 Subroutine INISYM returns: Found  2 space group operations
 (whereof  2 operations are pure point group operations),
 and found     2 'primitive' translations


----------------------------------------------------------------------------------------

                                     Primitive cell                                     

  volume of cell :      63.8496

  direct lattice vectors                    reciprocal lattice vectors
     4.283818835  0.000000000 -0.007389808     0.233437272  0.000000000  0.000403545
     0.000000000  2.461384767  0.000000000     0.000000000  0.406275367  0.000000000
    -0.010468159  0.000000000  6.055483179     0.000284875  0.000000000  0.165140081

  length of vectors
     4.283825209  2.461384767  6.055492228     0.233437621  0.406275367  0.165140327

  position of ions in fractional coordinates (direct lattice)
     0.834395964  0.500000000  0.338037049
     0.164720737  0.500000000  0.663971548
     0.667327645  0.000000000  0.664742431
     0.500671782  0.500000000  0.998774724
     0.999743751  0.000000000  0.998690193
     0.333140120  0.000000000  0.335784054

  ion indices of the primitive-cell ions
   primitive index   ion index
                 1           1
                 2           3
                 3           5
                 4           7
                 5           9
                 6          11

----------------------------------------------------------------------------------------

 
 
 KPOINTS: fcc-kp                                  

Automatic generation of k-mesh.
 Grid dimensions derived from RKLEN:
 generate k-points for:    9    8    7

 Generating k-lattice:

  Cartesian coordinates                     Fractional coordinates (reciprocal lattice)
     0.025937475  0.000000000  0.000044838     0.111111111  0.000000000  0.000000000
     0.000000000  0.025392210  0.000000000     0.000000000  0.125000000  0.000000000
     0.000040696  0.000000000  0.023591440     0.000000000  0.000000000  0.142857143

  Length of vectors
     0.025937513  0.025392210  0.023591475

  Shift w.r.t. Gamma in fractional coordinates (k-lattice)
     0.000000000  0.000000000  0.000000000

 TETIRR: Found   1500 inequivalent tetrahedra from     3024
 
 Subroutine IBZKPT returns following result:
 ===========================================
 
 Found    160 irreducible k-points:
 
 Following reciprocal coordinates:
            Coordinates               Weight
  0.000000  0.000000  0.000000      1.000000
  0.111111  0.000000  0.000000      2.000000
  0.222222  0.000000  0.000000      2.000000
  0.333333  0.000000  0.000000      2.000000
  0.444444  0.000000  0.000000      2.000000
  0.000000  0.125000  0.000000      2.000000
  0.111111  0.125000  0.000000      4.000000
  0.222222  0.125000  0.000000      4.000000
  0.333333  0.125000  0.000000      4.000000
  0.444444  0.125000  0.000000      4.000000
  0.000000  0.250000  0.000000      2.000000
  0.111111  0.250000  0.000000      4.000000
  0.222222  0.250000  0.000000      4.000000
  0.333333  0.250000  0.000000      4.000000
  0.444444  0.250000  0.000000      4.000000
  0.000000  0.375000  0.000000      2.000000
  0.111111  0.375000  0.000000      4.000000
  0.222222  0.375000  0.000000      4.000000
  0.333333  0.375000  0.000000      4.000000
  0.444444  0.375000  0.000000      4.000000
  0.000000  0.500000  0.000000      1.000000
  0.111111  0.500000  0.000000      2.000000
  0.222222  0.500000  0.000000      2.000000
  0.333333  0.500000  0.000000      2.000000
  0.444444  0.500000  0.000000      2.000000
  0.000000  0.000000  0.142857      2.000000
  0.111111  0.000000  0.142857      2.000000
  0.222222  0.000000  0.142857      2.000000
  0.333333  0.000000  0.142857      2.000000
  0.444444  0.000000  0.142857      2.000000
 -0.444444  0.000000  0.142857      2.000000
 -0.333333  0.000000  0.142857      2.000000
 -0.222222  0.000000  0.142857      2.000000
 -0.111111  0.000000  0.142857      2.000000
  0.000000  0.125000  0.142857      4.000000
  0.111111  0.125000  0.142857      4.000000
  0.222222  0.125000  0.142857      4.000000
  0.333333  0.125000  0.142857      4.000000
  0.444444  0.125000  0.142857      4.000000
 -0.444444  0.125000  0.142857      4.000000
 -0.333333  0.125000  0.142857      4.000000
 -0.222222  0.125000  0.142857      4.000000
 -0.111111  0.125000  0.142857      4.000000
  0.000000  0.250000  0.142857      4.000000
  0.111111  0.250000  0.142857      4.000000
  0.222222  0.250000  0.142857      4.000000
  0.333333  0.250000  0.142857      4.000000
  0.444444  0.250000  0.142857      4.000000
 -0.444444  0.250000  0.142857      4.000000
 -0.333333  0.250000  0.142857      4.000000
 -0.222222  0.250000  0.142857      4.000000
 -0.111111  0.250000  0.142857      4.000000
  0.000000  0.375000  0.142857      4.000000
  0.111111  0.375000  0.142857      4.000000
  0.222222  0.375000  0.142857      4.000000
  0.333333  0.375000  0.142857      4.000000
  0.444444  0.375000  0.142857      4.000000
 -0.444444  0.375000  0.142857      4.000000
 -0.333333  0.375000  0.142857      4.000000
 -0.222222  0.375000  0.142857      4.000000
 -0.111111  0.375000  0.142857      4.000000
  0.000000  0.500000  0.142857      2.000000
  0.111111  0.500000  0.142857      2.000000
  0.222222  0.500000  0.142857      2.000000
  0.333333  0.500000  0.142857      2.000000
  0.444444  0.500000  0.142857      2.000000
 -0.444444  0.500000  0.142857      2.000000
 -0.333333  0.500000  0.142857      2.000000
 -0.222222  0.500000  0.142857      2.000000
 -0.111111  0.500000  0.142857      2.000000
  0.000000  0.000000  0.285714      2.000000
  0.111111  0.000000  0.285714      2.000000
  0.222222  0.000000  0.285714      2.000000
  0.333333  0.000000  0.285714      2.000000
  0.444444  0.000000  0.285714      2.000000
 -0.444444  0.000000  0.285714      2.000000
 -0.333333  0.000000  0.285714      2.000000
 -0.222222  0.000000  0.285714      2.000000
 -0.111111  0.000000  0.285714      2.000000
  0.000000  0.125000  0.285714      4.000000
  0.111111  0.125000  0.285714      4.000000
  0.222222  0.125000  0.285714      4.000000
  0.333333  0.125000  0.285714      4.000000
  0.444444  0.125000  0.285714      4.000000
 -0.444444  0.125000  0.285714      4.000000
 -0.333333  0.125000  0.285714      4.000000
 -0.222222  0.125000  0.285714      4.000000
 -0.111111  0.125000  0.285714      4.000000
  0.000000  0.250000  0.285714      4.000000
  0.111111  0.250000  0.285714      4.000000
  0.222222  0.250000  0.285714      4.000000
  0.333333  0.250000  0.285714      4.000000
  0.444444  0.250000  0.285714      4.000000
 -0.444444  0.250000  0.285714      4.000000
 -0.333333  0.250000  0.285714      4.000000
 -0.222222  0.250000  0.285714      4.000000
 -0.111111  0.250000  0.285714      4.000000
  0.000000  0.375000  0.285714      4.000000
  0.111111  0.375000  0.285714      4.000000
  0.222222  0.375000  0.285714      4.000000
  0.333333  0.375000  0.285714      4.000000
  0.444444  0.375000  0.285714      4.000000
 -0.444444  0.375000  0.285714      4.000000
 -0.333333  0.375000  0.285714      4.000000
 -0.222222  0.375000  0.285714      4.000000
 -0.111111  0.375000  0.285714      4.000000
  0.000000  0.500000  0.285714      2.000000
  0.111111  0.500000  0.285714      2.000000
  0.222222  0.500000  0.285714      2.000000
  0.333333  0.500000  0.285714      2.000000
  0.444444  0.500000  0.285714      2.000000
 -0.444444  0.500000  0.285714      2.000000
 -0.333333  0.500000  0.285714      2.000000
 -0.222222  0.500000  0.285714      2.000000
 -0.111111  0.500000  0.285714      2.000000
  0.000000  0.000000  0.428571      2.000000
  0.111111  0.000000  0.428571      2.000000
  0.222222  0.000000  0.428571      2.000000
  0.333333  0.000000  0.428571      2.000000
  0.444444  0.000000  0.428571      2.000000
 -0.444444  0.000000  0.428571      2.000000
 -0.333333  0.000000  0.428571      2.000000
 -0.222222  0.000000  0.428571      2.000000
 -0.111111  0.000000  0.428571      2.000000
  0.000000  0.125000  0.428571      4.000000
  0.111111  0.125000  0.428571      4.000000
  0.222222  0.125000  0.428571      4.000000
  0.333333  0.125000  0.428571      4.000000
  0.444444  0.125000  0.428571      4.000000
 -0.444444  0.125000  0.428571      4.000000
 -0.333333  0.125000  0.428571      4.000000
 -0.222222  0.125000  0.428571      4.000000
 -0.111111  0.125000  0.428571      4.000000
  0.000000  0.250000  0.428571      4.000000
  0.111111  0.250000  0.428571      4.000000
  0.222222  0.250000  0.428571      4.000000
  0.333333  0.250000  0.428571      4.000000
  0.444444  0.250000  0.428571      4.000000
 -0.444444  0.250000  0.428571      4.000000
 -0.333333  0.250000  0.428571      4.000000
 -0.222222  0.250000  0.428571      4.000000
 -0.111111  0.250000  0.428571      4.000000
  0.000000  0.375000  0.428571      4.000000
  0.111111  0.375000  0.428571      4.000000
  0.222222  0.375000  0.428571      4.000000
  0.333333  0.375000  0.428571      4.000000
  0.444444  0.375000  0.428571      4.000000
 -0.444444  0.375000  0.428571      4.000000
 -0.333333  0.375000  0.428571      4.000000
 -0.222222  0.375000  0.428571      4.000000
 -0.111111  0.375000  0.428571      4.000000
  0.000000  0.500000  0.428571      2.000000
  0.111111  0.500000  0.428571      2.000000
  0.222222  0.500000  0.428571      2.000000
  0.333333  0.500000  0.428571      2.000000
  0.444444  0.500000  0.428571      2.000000
 -0.444444  0.500000  0.428571      2.000000
 -0.333333  0.500000  0.428571      2.000000
 -0.222222  0.500000  0.428571      2.000000
 -0.111111  0.500000  0.428571      2.000000
 
 Following cartesian coordinates:
            Coordinates               Weight
  0.000000  0.000000  0.000000      1.000000
  0.094840  0.000000  0.000164      2.000000
  0.189681  0.000000  0.000328      2.000000
  0.284521  0.000000  0.000492      2.000000
  0.379362  0.000000  0.000656      2.000000
  0.000000  0.092847  0.000000      2.000000
  0.094840  0.092847  0.000164      4.000000
  0.189681  0.092847  0.000328      4.000000
  0.284521  0.092847  0.000492      4.000000
  0.379362  0.092847  0.000656      4.000000
  0.000000  0.185693  0.000000      2.000000
  0.094840  0.185693  0.000164      4.000000
  0.189681  0.185693  0.000328      4.000000
  0.284521  0.185693  0.000492      4.000000
  0.379362  0.185693  0.000656      4.000000
  0.000000  0.278540  0.000000      2.000000
  0.094840  0.278540  0.000164      4.000000
  0.189681  0.278540  0.000328      4.000000
  0.284521  0.278540  0.000492      4.000000
  0.379362  0.278540  0.000656      4.000000
  0.000000  0.371386  0.000000      1.000000
  0.094840  0.371386  0.000164      2.000000
  0.189681  0.371386  0.000328      2.000000
  0.284521  0.371386  0.000492      2.000000
  0.379362  0.371386  0.000656      2.000000
  0.000149  0.000000  0.086262      2.000000
  0.094989  0.000000  0.086426      2.000000
  0.189830  0.000000  0.086590      2.000000
  0.284670  0.000000  0.086754      2.000000
  0.379510  0.000000  0.086918      2.000000
 -0.379213  0.000000  0.085606      2.000000
 -0.284372  0.000000  0.085770      2.000000
 -0.189532  0.000000  0.085934      2.000000
 -0.094692  0.000000  0.086098      2.000000
  0.000149  0.092847  0.086262      4.000000
  0.094989  0.092847  0.086426      4.000000
  0.189830  0.092847  0.086590      4.000000
  0.284670  0.092847  0.086754      4.000000
  0.379510  0.092847  0.086918      4.000000
 -0.379213  0.092847  0.085606      4.000000
 -0.284372  0.092847  0.085770      4.000000
 -0.189532  0.092847  0.085934      4.000000
 -0.094692  0.092847  0.086098      4.000000
  0.000149  0.185693  0.086262      4.000000
  0.094989  0.185693  0.086426      4.000000
  0.189830  0.185693  0.086590      4.000000
  0.284670  0.185693  0.086754      4.000000
  0.379510  0.185693  0.086918      4.000000
 -0.379213  0.185693  0.085606      4.000000
 -0.284372  0.185693  0.085770      4.000000
 -0.189532  0.185693  0.085934      4.000000
 -0.094692  0.185693  0.086098      4.000000
  0.000149  0.278540  0.086262      4.000000
  0.094989  0.278540  0.086426      4.000000
  0.189830  0.278540  0.086590      4.000000
  0.284670  0.278540  0.086754      4.000000
  0.379510  0.278540  0.086918      4.000000
 -0.379213  0.278540  0.085606      4.000000
 -0.284372  0.278540  0.085770      4.000000
 -0.189532  0.278540  0.085934      4.000000
 -0.094692  0.278540  0.086098      4.000000
  0.000149  0.371386  0.086262      2.000000
  0.094989  0.371386  0.086426      2.000000
  0.189830  0.371386  0.086590      2.000000
  0.284670  0.371386  0.086754      2.000000
  0.379510  0.371386  0.086918      2.000000
 -0.379213  0.371386  0.085606      2.000000
 -0.284372  0.371386  0.085770      2.000000
 -0.189532  0.371386  0.085934      2.000000
 -0.094692  0.371386  0.086098      2.000000
  0.000298  0.000000  0.172524      2.000000
  0.095138  0.000000  0.172688      2.000000
  0.189978  0.000000  0.172852      2.000000
  0.284819  0.000000  0.173016      2.000000
  0.379659  0.000000  0.173180      2.000000
 -0.379064  0.000000  0.171868      2.000000
 -0.284224  0.000000  0.172032      2.000000
 -0.189383  0.000000  0.172196      2.000000
 -0.094543  0.000000  0.172360      2.000000
  0.000298  0.092847  0.172524      4.000000
  0.095138  0.092847  0.172688      4.000000
  0.189978  0.092847  0.172852      4.000000
  0.284819  0.092847  0.173016      4.000000
  0.379659  0.092847  0.173180      4.000000
 -0.379064  0.092847  0.171868      4.000000
 -0.284224  0.092847  0.172032      4.000000
 -0.189383  0.092847  0.172196      4.000000
 -0.094543  0.092847  0.172360      4.000000
  0.000298  0.185693  0.172524      4.000000
  0.095138  0.185693  0.172688      4.000000
  0.189978  0.185693  0.172852      4.000000
  0.284819  0.185693  0.173016      4.000000
  0.379659  0.185693  0.173180      4.000000
 -0.379064  0.185693  0.171868      4.000000
 -0.284224  0.185693  0.172032      4.000000
 -0.189383  0.185693  0.172196      4.000000
 -0.094543  0.185693  0.172360      4.000000
  0.000298  0.278540  0.172524      4.000000
  0.095138  0.278540  0.172688      4.000000
  0.189978  0.278540  0.172852      4.000000
  0.284819  0.278540  0.173016      4.000000
  0.379659  0.278540  0.173180      4.000000
 -0.379064  0.278540  0.171868      4.000000
 -0.284224  0.278540  0.172032      4.000000
 -0.189383  0.278540  0.172196      4.000000
 -0.094543  0.278540  0.172360      4.000000
  0.000298  0.371386  0.172524      2.000000
  0.095138  0.371386  0.172688      2.000000
  0.189978  0.371386  0.172852      2.000000
  0.284819  0.371386  0.173016      2.000000
  0.379659  0.371386  0.173180      2.000000
 -0.379064  0.371386  0.171868      2.000000
 -0.284224  0.371386  0.172032      2.000000
 -0.189383  0.371386  0.172196      2.000000
 -0.094543  0.371386  0.172360      2.000000
  0.000446  0.000000  0.258786      2.000000
  0.095287  0.000000  0.258950      2.000000
  0.190127  0.000000  0.259114      2.000000
  0.284968  0.000000  0.259278      2.000000
  0.379808  0.000000  0.259442      2.000000
 -0.378915  0.000000  0.258130      2.000000
 -0.284075  0.000000  0.258294      2.000000
 -0.189234  0.000000  0.258458      2.000000
 -0.094394  0.000000  0.258622      2.000000
  0.000446  0.092847  0.258786      4.000000
  0.095287  0.092847  0.258950      4.000000
  0.190127  0.092847  0.259114      4.000000
  0.284968  0.092847  0.259278      4.000000
  0.379808  0.092847  0.259442      4.000000
 -0.378915  0.092847  0.258130      4.000000
 -0.284075  0.092847  0.258294      4.000000
 -0.189234  0.092847  0.258458      4.000000
 -0.094394  0.092847  0.258622      4.000000
  0.000446  0.185693  0.258786      4.000000
  0.095287  0.185693  0.258950      4.000000
  0.190127  0.185693  0.259114      4.000000
  0.284968  0.185693  0.259278      4.000000
  0.379808  0.185693  0.259442      4.000000
 -0.378915  0.185693  0.258130      4.000000
 -0.284075  0.185693  0.258294      4.000000
 -0.189234  0.185693  0.258458      4.000000
 -0.094394  0.185693  0.258622      4.000000
  0.000446  0.278540  0.258786      4.000000
  0.095287  0.278540  0.258950      4.000000
  0.190127  0.278540  0.259114      4.000000
  0.284968  0.278540  0.259278      4.000000
  0.379808  0.278540  0.259442      4.000000
 -0.378915  0.278540  0.258130      4.000000
 -0.284075  0.278540  0.258294      4.000000
 -0.189234  0.278540  0.258458      4.000000
 -0.094394  0.278540  0.258622      4.000000
  0.000446  0.371386  0.258786      2.000000
  0.095287  0.371386  0.258950      2.000000
  0.190127  0.371386  0.259114      2.000000
  0.284968  0.371386  0.259278      2.000000
  0.379808  0.371386  0.259442      2.000000
 -0.378915  0.371386  0.258130      2.000000
 -0.284075  0.371386  0.258294      2.000000
 -0.189234  0.371386  0.258458      2.000000
 -0.094394  0.371386  0.258622      2.000000
 


--------------------------------------------------------------------------------------------------------




 Dimension of arrays:
   k-points           NKPTS =    160   k-points in BZ     NKDIM =    160   number of bands    NBANDS=    112
   number of dos      NEDOS =   2000   number of ions     NIONS =     12
   non local maximal  LDIM  =      6   non local SUM 2l+1 LMDIM =     18
   total plane-waves  NPLWV =  45360
   max r-space proj   IRMAX =      1   max aug-charges    IRDMAX=   7765
   dimension x,y,z NGX =    30 NGY =   36 NGZ =   42
   dimension x,y,z NGXF=    50 NGYF=   56 NGZF=   70
   support grid    NGXF=    50 NGYF=   56 NGZF=   70
   ions per type =               6   6
   NGX,Y,Z   is equivalent  to a cutoff of  11.64, 12.16, 11.53 a.u.
   NGXF,Y,Z  is equivalent  to a cutoff of  19.40, 18.91, 19.22 a.u.

 SYSTEM =  metalsystem                             
 POSCAR =  CoNiV                                   

 Startparameter for this run:
   NWRITE =      2    write-flag & timer
   PREC   = high      normal or accurate (medium, high low for compatibility)
   ISTART =      0    job   : 0-new  1-cont  2-samecut
   ICHARG =      2    charge: 1-file 2-atom 10-const
   ISPIN  =      2    spin polarized calculation?
   LNONCOLLINEAR =      F non collinear calculations
   LSORBIT =      F    spin-orbit coupling
   INIWAV =      1    electr: 0-lowe 1-rand  2-diag
   LASPH  =      F    aspherical Exc in radial PAW
 Electronic Relaxation 1
   ENCUT  =  459.7 eV  33.78 Ry    5.81 a.u.   7.49  8.61 10.59*2*pi/ulx,y,z
   ENINI  =  459.7     initial cutoff
   ENAUG  =  703.4 eV  augmentation charge cutoff
   NELM   =     60;   NELMIN=  2; NELMDL= -5     # of ELM steps 
   EDIFF  = 0.5E-05   stopping-criterion for ELM
   LREAL  =      F    real-space projection
   NLSPLINE    = F    spline interpolate recip. space projectors
   LCOMPAT=      F    compatible to vasp.4.4
   GGA_COMPAT  = T    GGA compatible to vasp.4.4-vasp.4.6
   LMAXPAW     = -100 max onsite density
   LMAXMIX     =    2 max onsite mixed and CHGCAR
   VOSKOWN=      1    Vosko Wilk Nusair interpolation
   ROPT   =    0.00000   0.00000
 Ionic relaxation
   EDIFFG = 0.5E-04   stopping-criterion for IOM
   NSW    =      1    number of steps for IOM
   NBLOCK =      1;   KBLOCK =      1    inner block; outer block 
   IBRION =     -1    ionic relax: 0-MD 1-quasi-New 2-CG
   NFREE  =      0    steps in history (QN), initial steepest desc. (CG)
   ISIF   =      2    stress and relaxation
   IWAVPR =     10    prediction:  0-non 1-charg 2-wave 3-comb
   ISYM   =      2    0-nonsym 1-usesym 2-fastsym
   LCORR  =      T    Harris-Foulkes like correction to forces

   POTIM  = 0.5000    time-step for ionic-motion
   TEIN   =    0.0    initial temperature
   TEBEG  =    0.0;   TEEND  =   0.0 temperature during run
   SMASS  =  -3.00    Nose mass-parameter (am)
   estimated Nose-frequenzy (Omega)   =  0.10E-29 period in steps = 0.13E+47 mass=  -0.419E-27a.u.
   SCALEE = 1.0000    scale energy and forces
   NPACO  =    256;   APACO  = 10.0  distance and # of slots for P.C.
   PSTRESS=    0.0 pullay stress

  Mass of Ions in am
   POMASS =  58.93 58.69
  Ionic Valenz
   ZVAL   =   9.00 16.00
  Atomic Wigner-Seitz radii
   RWIGS  =  -1.00 -1.00
  virtual crystal weights 
   VCA    =   1.00  1.00
   NELECT =     150.0000    total number of electrons
   NUPDOWN=      -1.0000    fix difference up-down

 DOS related values:
   EMIN   =  10.00;   EMAX   =-10.00  energy-range for DOS
   EFERMI =   0.00;   METHOD = LEGACY      
   ISMEAR =    -5;   SIGMA  =   0.20  broadening in eV -4-tet -1-fermi 0-gaus

 Electronic relaxation 2 (details)
   IALGO  =     38    algorithm
   LDIAG  =      T    sub-space diagonalisation (order eigenvalues)
   LSUBROT=      F    optimize rotation matrix (better conditioning)
   TURBO    =      0    0=normal 1=particle mesh
   IRESTART =      0    0=no restart 2=restart with 2 vectors
   NREBOOT  =      0    no. of reboots
   NMIN     =      0    reboot dimension
   EREF     =   0.00    reference energy to select bands
   IMIX   =      4    mixing-type and parameters
     AMIX     =   0.20;   BMIX     =  0.00
     AMIX_MAG =   0.20;   BMIX_MAG =  0.00
     AMIN     =   0.10
     WC   =   100.;   INIMIX=   1;  MIXPRE=   1;  MAXMIX= -45

 Intra band minimization:
   WEIMIN = 0.0000     energy-eigenvalue tresh-hold
   EBREAK =  0.11E-07  absolut break condition
   DEPER  =   0.30     relativ break condition  

   TIME   =   0.40     timestep for ELM

  volume/ion in A,a.u.               =      10.64        71.81
  Fermi-wavevector in a.u.,A,eV,Ry     =   1.727332  3.264185 40.595386  2.983677
  Thomas-Fermi vector in A             =   2.802476
 
 Write flags
   LWAVE        =      F    write WAVECAR
   LDOWNSAMPLE  =      F    k-point downsampling of WAVECAR
   LCHARG       =      T    write CHGCAR
   LVTOT        =      F    write LOCPOT, total local potential
   LVHAR        =      F    write LOCPOT, Hartree potential only
   LELF         =      F    write electronic localiz. function (ELF)
   LORBIT       =      0    0 simple, 1 ext, 2 COOP (PROOUT), +10 PAW based schemes


 Dipole corrections
   LMONO  =      F    monopole corrections only (constant potential shift)
   LDIPOL =      F    correct potential (dipole corrections)
   IDIPOL =      0    1-x, 2-y, 3-z, 4-all directions 
   EPSILON=  1.0000000 bulk dielectric constant

 Exchange correlation treatment:
   GGA     =    --    GGA type
   LEXCH   =     2    internal setting for exchange type
   LIBXC   =     F    Libxc                    
   VOSKOWN =     1    Vosko Wilk Nusair interpolation
   LHFCALC =     F    Hartree Fock is set to
   LHFONE  =     F    Hartree Fock one center treatment
   AEXX    =    0.0000 exact exchange contribution

 Linear response parameters
   LEPSILON=     F    determine dielectric tensor
   LRPA    =     F    only Hartree local field effects (RPA)
   LNABLA  =     F    use nabla operator in PAW spheres
   LVEL    =     F    velocity operator in full k-point grid
   CSHIFT  =0.1000    complex shift for real part using Kramers Kronig
   OMEGAMAX=  -1.0    maximum frequency
   DEG_THRESHOLD= 0.2000000E-02 threshold for treating states as degnerate
   RTIME   =   -0.100 relaxation time in fs
  (WPLASMAI=    0.000 imaginary part of plasma frequency in eV, 0.658/RTIME)
   DFIELD  = 0.0000000 0.0000000 0.0000000 field for delta impulse in time
 
  Optional k-point grid parameters
   LKPOINTS_OPT  =     F    use optional k-point grid
   KPOINTS_OPT_MODE=     1    mode for optional k-point grid
 
 Orbital magnetization related:
   ORBITALMAG=     F  switch on orbital magnetization
   LCHIMAG   =     F  perturbation theory with respect to B field
   DQ        =  0.001000  dq finite difference perturbation B field
   LLRAUG    =     F  two centre corrections for induced B field
   LBONE     =     F  B-component reconstruction in AE one-centre
   LVGVCALC  =     T  calculate vGv susceptibility
   LVGVAPPL  =     F  apply vGv susceptibility instead of pGv for G=0

 Random number generation:
   RANDOM_GENERATOR = DEFAULT
   PCG_SEED         = not used


--------------------------------------------------------------------------------------------------------


 Static calculation
 charge density and potential will be updated during run
 spin polarized calculation
 Variant of blocked Davidson
 Davidson routine will perform the subspace rotation
 perform sub-space diagonalisation
    after iterative eigenvector-optimisation
 modified Broyden-mixing scheme, WC =      100.0
 initial mixing is a Kerker type mixing with AMIX =  0.2000 and BMIX =      0.0001
 Hartree-type preconditioning will be used
 using additional bands           37
 reciprocal scheme for non local part
 use partial core corrections
 calculate Harris-corrections to forces 
   (improved forces if not selfconsistent)
 use of overlap-Matrix (Vanderbilt PP)
 Fermi weights with tetrahedron method with Bloechl corrections


--------------------------------------------------------------------------------------------------------


  energy-cutoff  :      459.66
  volume of cell :      127.70
      direct lattice vectors                 reciprocal lattice vectors
     4.283818835  0.000000000 -0.007389808     0.233437272  0.000000000  0.000403545
     0.000000000  4.922769534  0.000000000     0.000000000  0.203137684  0.000000000
    -0.010468159  0.000000000  6.055483179     0.000284875  0.000000000  0.165140081

  length of vectors
     4.283825209  4.922769534  6.055492228     0.233437621  0.203137684  0.165140327


 
 k-points in units of 2pi/SCALE and weight: fcc-kp                                  
   0.00000000  0.00000000  0.00000000       0.002
   0.09484038  0.00000000  0.00016395       0.004
   0.18968075  0.00000000  0.00032790       0.004
   0.28452113  0.00000000  0.00049185       0.004
   0.37936150  0.00000000  0.00065581       0.004
   0.00000000  0.09284662  0.00000000       0.004
   0.09484038  0.09284662  0.00016395       0.008
   0.18968075  0.09284662  0.00032790       0.008
   0.28452113  0.09284662  0.00049185       0.008
   0.37936150  0.09284662  0.00065581       0.008
   0.00000000  0.18569324  0.00000000       0.004
   0.09484038  0.18569324  0.00016395       0.008
   0.18968075  0.18569324  0.00032790       0.008
   0.28452113  0.18569324  0.00049185       0.008
   0.37936150  0.18569324  0.00065581       0.008
   0.00000000  0.27853985  0.00000000       0.004
   0.09484038  0.27853985  0.00016395       0.008
   0.18968075  0.27853985  0.00032790       0.008
   0.28452113  0.27853985  0.00049185       0.008
   0.37936150  0.27853985  0.00065581       0.008
   0.00000000  0.37138647  0.00000000       0.002
   0.09484038  0.37138647  0.00016395       0.004
   0.18968075  0.37138647  0.00032790       0.004
   0.28452113  0.37138647  0.00049185       0.004
   0.37936150  0.37138647  0.00065581       0.004
   0.00014881  0.00000000  0.08626210       0.004
   0.09498918  0.00000000  0.08642605       0.004
   0.18982956  0.00000000  0.08659000       0.004
   0.28466993  0.00000000  0.08675395       0.004
   0.37951031  0.00000000  0.08691791       0.004
  -0.37921270  0.00000000  0.08560630       0.004
  -0.28437232  0.00000000  0.08577025       0.004
  -0.18953195  0.00000000  0.08593420       0.004
  -0.09469157  0.00000000  0.08609815       0.004
   0.00014881  0.09284662  0.08626210       0.008
   0.09498918  0.09284662  0.08642605       0.008
   0.18982956  0.09284662  0.08659000       0.008
   0.28466993  0.09284662  0.08675395       0.008
   0.37951031  0.09284662  0.08691791       0.008
  -0.37921270  0.09284662  0.08560630       0.008
  -0.28437232  0.09284662  0.08577025       0.008
  -0.18953195  0.09284662  0.08593420       0.008
  -0.09469157  0.09284662  0.08609815       0.008
   0.00014881  0.18569324  0.08626210       0.008
   0.09498918  0.18569324  0.08642605       0.008
   0.18982956  0.18569324  0.08659000       0.008
   0.28466993  0.18569324  0.08675395       0.008
   0.37951031  0.18569324  0.08691791       0.008
  -0.37921270  0.18569324  0.08560630       0.008
  -0.28437232  0.18569324  0.08577025       0.008
  -0.18953195  0.18569324  0.08593420       0.008
  -0.09469157  0.18569324  0.08609815       0.008
   0.00014881  0.27853985  0.08626210       0.008
   0.09498918  0.27853985  0.08642605       0.008
   0.18982956  0.27853985  0.08659000       0.008
   0.28466993  0.27853985  0.08675395       0.008
   0.37951031  0.27853985  0.08691791       0.008
  -0.37921270  0.27853985  0.08560630       0.008
  -0.28437232  0.27853985  0.08577025       0.008
  -0.18953195  0.27853985  0.08593420       0.008
  -0.09469157  0.27853985  0.08609815       0.008
   0.00014881  0.37138647  0.08626210       0.004
   0.09498918  0.37138647  0.08642605       0.004
   0.18982956  0.37138647  0.08659000       0.004
   0.28466993  0.37138647  0.08675395       0.004
   0.37951031  0.37138647  0.08691791       0.004
  -0.37921270  0.37138647  0.08560630       0.004
  -0.28437232  0.37138647  0.08577025       0.004
  -0.18953195  0.37138647  0.08593420       0.004
  -0.09469157  0.37138647  0.08609815       0.004
   0.00029761  0.00000000  0.17252420       0.004
   0.09513799  0.00000000  0.17268815       0.004
   0.18997837  0.00000000  0.17285210       0.004
   0.28481874  0.00000000  0.17301606       0.004
   0.37965912  0.00000000  0.17318001       0.004
  -0.37906389  0.00000000  0.17186840       0.004
  -0.28422352  0.00000000  0.17203235       0.004
  -0.18938314  0.00000000  0.17219630       0.004
  -0.09454276  0.00000000  0.17236025       0.004
   0.00029761  0.09284662  0.17252420       0.008
   0.09513799  0.09284662  0.17268815       0.008
   0.18997837  0.09284662  0.17285210       0.008
   0.28481874  0.09284662  0.17301606       0.008
   0.37965912  0.09284662  0.17318001       0.008
  -0.37906389  0.09284662  0.17186840       0.008
  -0.28422352  0.09284662  0.17203235       0.008
  -0.18938314  0.09284662  0.17219630       0.008
  -0.09454276  0.09284662  0.17236025       0.008
   0.00029761  0.18569324  0.17252420       0.008
   0.09513799  0.18569324  0.17268815       0.008
   0.18997837  0.18569324  0.17285210       0.008
   0.28481874  0.18569324  0.17301606       0.008
   0.37965912  0.18569324  0.17318001       0.008
  -0.37906389  0.18569324  0.17186840       0.008
  -0.28422352  0.18569324  0.17203235       0.008
  -0.18938314  0.18569324  0.17219630       0.008
  -0.09454276  0.18569324  0.17236025       0.008
   0.00029761  0.27853985  0.17252420       0.008
   0.09513799  0.27853985  0.17268815       0.008
   0.18997837  0.27853985  0.17285210       0.008
   0.28481874  0.27853985  0.17301606       0.008
   0.37965912  0.27853985  0.17318001       0.008
  -0.37906389  0.27853985  0.17186840       0.008
  -0.28422352  0.27853985  0.17203235       0.008
  -0.18938314  0.27853985  0.17219630       0.008
  -0.09454276  0.27853985  0.17236025       0.008
   0.00029761  0.37138647  0.17252420       0.004
   0.09513799  0.37138647  0.17268815       0.004
   0.18997837  0.37138647  0.17285210       0.004
   0.28481874  0.37138647  0.17301606       0.004
   0.37965912  0.37138647  0.17318001       0.004
  -0.37906389  0.37138647  0.17186840       0.004
  -0.28422352  0.37138647  0.17203235       0.004
  -0.18938314  0.37138647  0.17219630       0.004
  -0.09454276  0.37138647  0.17236025       0.004
   0.00044642  0.00000000  0.25878630       0.004
   0.09528680  0.00000000  0.25895025       0.004
   0.19012717  0.00000000  0.25911421       0.004
   0.28496755  0.00000000  0.25927816       0.004
   0.37980792  0.00000000  0.25944211       0.004
  -0.37891508  0.00000000  0.25813050       0.004
  -0.28407471  0.00000000  0.25829445       0.004
  -0.18923433  0.00000000  0.25845840       0.004
  -0.09439396  0.00000000  0.25862235       0.004
   0.00044642  0.09284662  0.25878630       0.008
   0.09528680  0.09284662  0.25895025       0.008
   0.19012717  0.09284662  0.25911421       0.008
   0.28496755  0.09284662  0.25927816       0.008
   0.37980792  0.09284662  0.25944211       0.008
  -0.37891508  0.09284662  0.25813050       0.008
  -0.28407471  0.09284662  0.25829445       0.008
  -0.18923433  0.09284662  0.25845840       0.008
  -0.09439396  0.09284662  0.25862235       0.008
   0.00044642  0.18569324  0.25878630       0.008
   0.09528680  0.18569324  0.25895025       0.008
   0.19012717  0.18569324  0.25911421       0.008
   0.28496755  0.18569324  0.25927816       0.008
   0.37980792  0.18569324  0.25944211       0.008
  -0.37891508  0.18569324  0.25813050       0.008
  -0.28407471  0.18569324  0.25829445       0.008
  -0.18923433  0.18569324  0.25845840       0.008
  -0.09439396  0.18569324  0.25862235       0.008
   0.00044642  0.27853985  0.25878630       0.008
   0.09528680  0.27853985  0.25895025       0.008
   0.19012717  0.27853985  0.25911421       0.008
   0.28496755  0.27853985  0.25927816       0.008
   0.37980792  0.27853985  0.25944211       0.008
  -0.37891508  0.27853985  0.25813050       0.008
  -0.28407471  0.27853985  0.25829445       0.008
  -0.18923433  0.27853985  0.25845840       0.008
  -0.09439396  0.27853985  0.25862235       0.008
   0.00044642  0.37138647  0.25878630       0.004
   0.09528680  0.37138647  0.25895025       0.004
   0.19012717  0.37138647  0.25911421       0.004
   0.28496755  0.37138647  0.25927816       0.004
   0.37980792  0.37138647  0.25944211       0.004
  -0.37891508  0.37138647  0.25813050       0.004
  -0.28407471  0.37138647  0.25829445       0.004
  -0.18923433  0.37138647  0.25845840       0.004
  -0.09439396  0.37138647  0.25862235       0.004
 
 k-points in reciprocal lattice and weights: fcc-kp                                  
   0.00000000  0.00000000  0.00000000       0.002
   0.11111111  0.00000000  0.00000000       0.004
   0.22222222  0.00000000  0.00000000       0.004
   0.33333333  0.00000000  0.00000000       0.004
   0.44444444  0.00000000  0.00000000       0.004
   0.00000000  0.12500000  0.00000000       0.004
   0.11111111  0.12500000  0.00000000       0.008
   0.22222222  0.12500000  0.00000000       0.008
   0.33333333  0.12500000  0.00000000       0.008
   0.44444444  0.12500000  0.00000000       0.008
   0.00000000  0.25000000  0.00000000       0.004
   0.11111111  0.25000000  0.00000000       0.008
   0.22222222  0.25000000  0.00000000       0.008
   0.33333333  0.25000000  0.00000000       0.008
   0.44444444  0.25000000  0.00000000       0.008
   0.00000000  0.37500000  0.00000000       0.004
   0.11111111  0.37500000  0.00000000       0.008
   0.22222222  0.37500000  0.00000000       0.008
   0.33333333  0.37500000  0.00000000       0.008
   0.44444444  0.37500000  0.00000000       0.008
   0.00000000  0.50000000  0.00000000       0.002
   0.11111111  0.50000000  0.00000000       0.004
   0.22222222  0.50000000  0.00000000       0.004
   0.33333333  0.50000000  0.00000000       0.004
   0.44444444  0.50000000  0.00000000       0.004
   0.00000000  0.00000000  0.14285714       0.004
   0.11111111  0.00000000  0.14285714       0.004
   0.22222222  0.00000000  0.14285714       0.004
   0.33333333  0.00000000  0.14285714       0.004
   0.44444444  0.00000000  0.14285714       0.004
  -0.44444444  0.00000000  0.14285714       0.004
  -0.33333333  0.00000000  0.14285714       0.004
  -0.22222222  0.00000000  0.14285714       0.004
  -0.11111111  0.00000000  0.14285714       0.004
   0.00000000  0.12500000  0.14285714       0.008
   0.11111111  0.12500000  0.14285714       0.008
   0.22222222  0.12500000  0.14285714       0.008
   0.33333333  0.12500000  0.14285714       0.008
   0.44444444  0.12500000  0.14285714       0.008
  -0.44444444  0.12500000  0.14285714       0.008
  -0.33333333  0.12500000  0.14285714       0.008
  -0.22222222  0.12500000  0.14285714       0.008
  -0.11111111  0.12500000  0.14285714       0.008
   0.00000000  0.25000000  0.14285714       0.008
   0.11111111  0.25000000  0.14285714       0.008
   0.22222222  0.25000000  0.14285714       0.008
   0.33333333  0.25000000  0.14285714       0.008
   0.44444444  0.25000000  0.14285714       0.008
  -0.44444444  0.25000000  0.14285714       0.008
  -0.33333333  0.25000000  0.14285714       0.008
  -0.22222222  0.25000000  0.14285714       0.008
  -0.11111111  0.25000000  0.14285714       0.008
   0.00000000  0.37500000  0.14285714       0.008
   0.11111111  0.37500000  0.14285714       0.008
   0.22222222  0.37500000  0.14285714       0.008
   0.33333333  0.37500000  0.14285714       0.008
   0.44444444  0.37500000  0.14285714       0.008
  -0.44444444  0.37500000  0.14285714       0.008
  -0.33333333  0.37500000  0.14285714       0.008
  -0.22222222  0.37500000  0.14285714       0.008
  -0.11111111  0.37500000  0.14285714       0.008
   0.00000000  0.50000000  0.14285714       0.004
   0.11111111  0.50000000  0.14285714       0.004
   0.22222222  0.50000000  0.14285714       0.004
   0.33333333  0.50000000  0.14285714       0.004
   0.44444444  0.50000000  0.14285714       0.004
  -0.44444444  0.50000000  0.14285714       0.004
  -0.33333333  0.50000000  0.14285714       0.004
  -0.22222222  0.50000000  0.14285714       0.004
  -0.11111111  0.50000000  0.14285714       0.004
   0.00000000  0.00000000  0.28571429       0.004
   0.11111111  0.00000000  0.28571429       0.004
   0.22222222  0.00000000  0.28571429       0.004
   0.33333333  0.00000000  0.28571429       0.004
   0.44444444  0.00000000  0.28571429       0.004
  -0.44444444  0.00000000  0.28571429       0.004
  -0.33333333  0.00000000  0.28571429       0.004
  -0.22222222  0.00000000  0.28571429       0.004
  -0.11111111  0.00000000  0.28571429       0.004
   0.00000000  0.12500000  0.28571429       0.008
   0.11111111  0.12500000  0.28571429       0.008
   0.22222222  0.12500000  0.28571429       0.008
   0.33333333  0.12500000  0.28571429       0.008
   0.44444444  0.12500000  0.28571429       0.008
  -0.44444444  0.12500000  0.28571429       0.008
  -0.33333333  0.12500000  0.28571429       0.008
  -0.22222222  0.12500000  0.28571429       0.008
  -0.11111111  0.12500000  0.28571429       0.008
   0.00000000  0.25000000  0.28571429       0.008
   0.11111111  0.25000000  0.28571429       0.008
   0.22222222  0.25000000  0.28571429       0.008
   0.33333333  0.25000000  0.28571429       0.008
   0.44444444  0.25000000  0.28571429       0.008
  -0.44444444  0.25000000  0.28571429       0.008
  -0.33333333  0.25000000  0.28571429       0.008
  -0.22222222  0.25000000  0.28571429       0.008
  -0.11111111  0.25000000  0.28571429       0.008
   0.00000000  0.37500000  0.28571429       0.008
   0.11111111  0.37500000  0.28571429       0.008
   0.22222222  0.37500000  0.28571429       0.008
   0.33333333  0.37500000  0.28571429       0.008
   0.44444444  0.37500000  0.28571429       0.008
  -0.44444444  0.37500000  0.28571429       0.008
  -0.33333333  0.37500000  0.28571429       0.008
  -0.22222222  0.37500000  0.28571429       0.008
  -0.11111111  0.37500000  0.28571429       0.008
   0.00000000  0.50000000  0.28571429       0.004
   0.11111111  0.50000000  0.28571429       0.004
   0.22222222  0.50000000  0.28571429       0.004
   0.33333333  0.50000000  0.28571429       0.004
   0.44444444  0.50000000  0.28571429       0.004
  -0.44444444  0.50000000  0.28571429       0.004
  -0.33333333  0.50000000  0.28571429       0.004
  -0.22222222  0.50000000  0.28571429       0.004
  -0.11111111  0.50000000  0.28571429       0.004
   0.00000000  0.00000000  0.42857143       0.004
   0.11111111  0.00000000  0.42857143       0.004
   0.22222222  0.00000000  0.42857143       0.004
   0.33333333  0.00000000  0.42857143       0.004
   0.44444444  0.00000000  0.42857143       0.004
  -0.44444444  0.00000000  0.42857143       0.004
  -0.33333333  0.00000000  0.42857143       0.004
  -0.22222222  0.00000000  0.42857143       0.004
  -0.11111111  0.00000000  0.42857143       0.004
   0.00000000  0.12500000  0.42857143       0.008
   0.11111111  0.12500000  0.42857143       0.008
   0.22222222  0.12500000  0.42857143       0.008
   0.33333333  0.12500000  0.42857143       0.008
   0.44444444  0.12500000  0.42857143       0.008
  -0.44444444  0.12500000  0.42857143       0.008
  -0.33333333  0.12500000  0.42857143       0.008
  -0.22222222  0.12500000  0.42857143       0.008
  -0.11111111  0.12500000  0.42857143       0.008
   0.00000000  0.25000000  0.42857143       0.008
   0.11111111  0.25000000  0.42857143       0.008
   0.22222222  0.25000000  0.42857143       0.008
   0.33333333  0.25000000  0.42857143       0.008
   0.44444444  0.25000000  0.42857143       0.008
  -0.44444444  0.25000000  0.42857143       0.008
  -0.33333333  0.25000000  0.42857143       0.008
  -0.22222222  0.25000000  0.42857143       0.008
  -0.11111111  0.25000000  0.42857143       0.008
   0.00000000  0.37500000  0.42857143       0.008
   0.11111111  0.37500000  0.42857143       0.008
   0.22222222  0.37500000  0.42857143       0.008
   0.33333333  0.37500000  0.42857143       0.008
   0.44444444  0.37500000  0.42857143       0.008
  -0.44444444  0.37500000  0.42857143       0.008
  -0.33333333  0.37500000  0.42857143       0.008
  -0.22222222  0.37500000  0.42857143       0.008
  -0.11111111  0.37500000  0.42857143       0.008
   0.00000000  0.50000000  0.42857143       0.004
   0.11111111  0.50000000  0.42857143       0.004
   0.22222222  0.50000000  0.42857143       0.004
   0.33333333  0.50000000  0.42857143       0.004
   0.44444444  0.50000000  0.42857143       0.004
  -0.44444444  0.50000000  0.42857143       0.004
  -0.33333333  0.50000000  0.42857143       0.004
  -0.22222222  0.50000000  0.42857143       0.004
  -0.11111111  0.50000000  0.42857143       0.004
 
 position of ions in fractional coordinates (direct lattice) 
   0.83439596  0.25000000  0.33803705
   0.83439596  0.75000000  0.33803705
   0.16472074  0.25000000  0.66397155
   0.16472074  0.75000000  0.66397155
   0.66732764  0.00000000  0.66474243
   0.66732764  0.50000000  0.66474243
   0.50067178  0.25000000  0.99877472
   0.50067178  0.75000000  0.99877472
   0.99974375  0.00000000  0.99869019
   0.99974375  0.50000000  0.99869019
   0.33314012  0.00000000  0.33578405
   0.33314012  0.50000000  0.33578405
 
 position of ions in cartesian coordinates  (Angst):
   3.57086252  1.23069238  2.04081164
   3.57086252  3.69207715  2.04081164
   0.69868324  1.23069238  4.01945128
   0.69868324  3.69207715  4.01945128
   2.85175210  0.00000000  4.02040519
   2.85175210  2.46138477  4.02040519
   2.13433188  1.23069238  6.04436367
   2.13433188  3.69207715  6.04436367
   4.27226666  0.00000000  6.04016375
   4.27226666  2.46138477  6.04016375
   1.42359688  0.00000000  2.03087285
   1.42359688  2.46138477  2.03087285
 


--------------------------------------------------------------------------------------------------------


 k-point   1 :   0.0000 0.0000 0.0000  plane waves:    2859
 k-point   2 :   0.1111 0.0000 0.0000  plane waves:    2874
 k-point   3 :   0.2222 0.0000 0.0000  plane waves:    2873
 k-point   4 :   0.3333 0.0000 0.0000  plane waves:    2857
 k-point   5 :   0.4444 0.0000 0.0000  plane waves:    2848
 k-point   6 :   0.0000 0.1250 0.0000  plane waves:    2885
 k-point   7 :   0.1111 0.1250 0.0000  plane waves:    2875
 k-point   8 :   0.2222 0.1250 0.0000  plane waves:    2872
 k-point   9 :   0.3333 0.1250 0.0000  plane waves:    2853
 k-point  10 :   0.4444 0.1250 0.0000  plane waves:    2850
 k-point  11 :   0.0000 0.2500 0.0000  plane waves:    2855
 k-point  12 :   0.1111 0.2500 0.0000  plane waves:    2870
 k-point  13 :   0.2222 0.2500 0.0000  plane waves:    2858
 k-point  14 :   0.3333 0.2500 0.0000  plane waves:    2857
 k-point  15 :   0.4444 0.2500 0.0000  plane waves:    2863
 k-point  16 :   0.0000 0.3750 0.0000  plane waves:    2851
 k-point  17 :   0.1111 0.3750 0.0000  plane waves:    2855
 k-point  18 :   0.2222 0.3750 0.0000  plane waves:    2856
 k-point  19 :   0.3333 0.3750 0.0000  plane waves:    2858
 k-point  20 :   0.4444 0.3750 0.0000  plane waves:    2861
 k-point  21 :   0.0000 0.5000 0.0000  plane waves:    2862
 k-point  22 :   0.1111 0.5000 0.0000  plane waves:    2856
 k-point  23 :   0.2222 0.5000 0.0000  plane waves:    2860
 k-point  24 :   0.3333 0.5000 0.0000  plane waves:    2876
 k-point  25 :   0.4444 0.5000 0.0000  plane waves:    2848
 k-point  26 :   0.0000 0.0000 0.1429  plane waves:    2876
 k-point  27 :   0.1111 0.0000 0.1429  plane waves:    2887
 k-point  28 :   0.2222 0.0000 0.1429  plane waves:    2867
 k-point  29 :   0.3333 0.0000 0.1429  plane waves:    2855
 k-point  30 :   0.4444 0.0000 0.1429  plane waves:    2847
 k-point  31 :  -0.4444 0.0000 0.1429  plane waves:    2847
 k-point  32 :  -0.3333 0.0000 0.1429  plane waves:    2856
 k-point  33 :  -0.2222 0.0000 0.1429  plane waves:    2869
 k-point  34 :  -0.1111 0.0000 0.1429  plane waves:    2876
 k-point  35 :   0.0000 0.1250 0.1429  plane waves:    2879
 k-point  36 :   0.1111 0.1250 0.1429  plane waves:    2884
 k-point  37 :   0.2222 0.1250 0.1429  plane waves:    2865
 k-point  38 :   0.3333 0.1250 0.1429  plane waves:    2858
 k-point  39 :   0.4444 0.1250 0.1429  plane waves:    2852
 k-point  40 :  -0.4444 0.1250 0.1429  plane waves:    2852
 k-point  41 :  -0.3333 0.1250 0.1429  plane waves:    2862
 k-point  42 :  -0.2222 0.1250 0.1429  plane waves:    2866
 k-point  43 :  -0.1111 0.1250 0.1429  plane waves:    2877
 k-point  44 :   0.0000 0.2500 0.1429  plane waves:    2859
 k-point  45 :   0.1111 0.2500 0.1429  plane waves:    2863
 k-point  46 :   0.2222 0.2500 0.1429  plane waves:    2854
 k-point  47 :   0.3333 0.2500 0.1429  plane waves:    2866
 k-point  48 :   0.4444 0.2500 0.1429  plane waves:    2854
 k-point  49 :  -0.4444 0.2500 0.1429  plane waves:    2861
 k-point  50 :  -0.3333 0.2500 0.1429  plane waves:    2867
 k-point  51 :  -0.2222 0.2500 0.1429  plane waves:    2854
 k-point  52 :  -0.1111 0.2500 0.1429  plane waves:    2860
 k-point  53 :   0.0000 0.3750 0.1429  plane waves:    2850
 k-point  54 :   0.1111 0.3750 0.1429  plane waves:    2845
 k-point  55 :   0.2222 0.3750 0.1429  plane waves:    2859
 k-point  56 :   0.3333 0.3750 0.1429  plane waves:    2856
 k-point  57 :   0.4444 0.3750 0.1429  plane waves:    2861
 k-point  58 :  -0.4444 0.3750 0.1429  plane waves:    2859
 k-point  59 :  -0.3333 0.3750 0.1429  plane waves:    2855
 k-point  60 :  -0.2222 0.3750 0.1429  plane waves:    2851
 k-point  61 :  -0.1111 0.3750 0.1429  plane waves:    2846
 k-point  62 :   0.0000 0.5000 0.1429  plane waves:    2852
 k-point  63 :   0.1111 0.5000 0.1429  plane waves:    2846
 k-point  64 :   0.2222 0.5000 0.1429  plane waves:    2852
 k-point  65 :   0.3333 0.5000 0.1429  plane waves:    2860
 k-point  66 :   0.4444 0.5000 0.1429  plane waves:    2856
 k-point  67 :  -0.4444 0.5000 0.1429  plane waves:    2852
 k-point  68 :  -0.3333 0.5000 0.1429  plane waves:    2856
 k-point  69 :  -0.2222 0.5000 0.1429  plane waves:    2848
 k-point  70 :  -0.1111 0.5000 0.1429  plane waves:    2844
 k-point  71 :   0.0000 0.0000 0.2857  plane waves:    2873
 k-point  72 :   0.1111 0.0000 0.2857  plane waves:    2869
 k-point  73 :   0.2222 0.0000 0.2857  plane waves:    2872
 k-point  74 :   0.3333 0.0000 0.2857  plane waves:    2859
 k-point  75 :   0.4444 0.0000 0.2857  plane waves:    2849
 k-point  76 :  -0.4444 0.0000 0.2857  plane waves:    2848
 k-point  77 :  -0.3333 0.0000 0.2857  plane waves:    2862
 k-point  78 :  -0.2222 0.0000 0.2857  plane waves:    2872
 k-point  79 :  -0.1111 0.0000 0.2857  plane waves:    2867
 k-point  80 :   0.0000 0.1250 0.2857  plane waves:    2870
 k-point  81 :   0.1111 0.1250 0.2857  plane waves:    2868
 k-point  82 :   0.2222 0.1250 0.2857  plane waves:    2868
 k-point  83 :   0.3333 0.1250 0.2857  plane waves:    2858
 k-point  84 :   0.4444 0.1250 0.2857  plane waves:    2848
 k-point  85 :  -0.4444 0.1250 0.2857  plane waves:    2849
 k-point  86 :  -0.3333 0.1250 0.2857  plane waves:    2858
 k-point  87 :  -0.2222 0.1250 0.2857  plane waves:    2869
 k-point  88 :  -0.1111 0.1250 0.2857  plane waves:    2871
 k-point  89 :   0.0000 0.2500 0.2857  plane waves:    2868
 k-point  90 :   0.1111 0.2500 0.2857  plane waves:    2869
 k-point  91 :   0.2222 0.2500 0.2857  plane waves:    2861
 k-point  92 :   0.3333 0.2500 0.2857  plane waves:    2850
 k-point  93 :   0.4444 0.2500 0.2857  plane waves:    2847
 k-point  94 :  -0.4444 0.2500 0.2857  plane waves:    2847
 k-point  95 :  -0.3333 0.2500 0.2857  plane waves:    2853
 k-point  96 :  -0.2222 0.2500 0.2857  plane waves:    2864
 k-point  97 :  -0.1111 0.2500 0.2857  plane waves:    2864
 k-point  98 :   0.0000 0.3750 0.2857  plane waves:    2862
 k-point  99 :   0.1111 0.3750 0.2857  plane waves:    2850
 k-point 100 :   0.2222 0.3750 0.2857  plane waves:    2858
 k-point 101 :   0.3333 0.3750 0.2857  plane waves:    2862
 k-point 102 :   0.4444 0.3750 0.2857  plane waves:    2851
 k-point 103 :  -0.4444 0.3750 0.2857  plane waves:    2851
 k-point 104 :  -0.3333 0.3750 0.2857  plane waves:    2859
 k-point 105 :  -0.2222 0.3750 0.2857  plane waves:    2850
 k-point 106 :  -0.1111 0.3750 0.2857  plane waves:    2852
 k-point 107 :   0.0000 0.5000 0.2857  plane waves:    2850
 k-point 108 :   0.1111 0.5000 0.2857  plane waves:    2858
 k-point 109 :   0.2222 0.5000 0.2857  plane waves:    2850
 k-point 110 :   0.3333 0.5000 0.2857  plane waves:    2844
 k-point 111 :   0.4444 0.5000 0.2857  plane waves:    2860
 k-point 112 :  -0.4444 0.5000 0.2857  plane waves:    2852
 k-point 113 :  -0.3333 0.5000 0.2857  plane waves:    2848
 k-point 114 :  -0.2222 0.5000 0.2857  plane waves:    2842
 k-point 115 :  -0.1111 0.5000 0.2857  plane waves:    2854
 k-point 116 :   0.0000 0.0000 0.4286  plane waves:    2878
 k-point 117 :   0.1111 0.0000 0.4286  plane waves:    2863
 k-point 118 :   0.2222 0.0000 0.4286  plane waves:    2862
 k-point 119 :   0.3333 0.0000 0.4286  plane waves:    2852
 k-point 120 :   0.4444 0.0000 0.4286  plane waves:    2841
 k-point 121 :  -0.4444 0.0000 0.4286  plane waves:    2847
 k-point 122 :  -0.3333 0.0000 0.4286  plane waves:    2855
 k-point 123 :  -0.2222 0.0000 0.4286  plane waves:    2865
 k-point 124 :  -0.1111 0.0000 0.4286  plane waves:    2859
 k-point 125 :   0.0000 0.1250 0.4286  plane waves:    2868
 k-point 126 :   0.1111 0.1250 0.4286  plane waves:    2863
 k-point 127 :   0.2222 0.1250 0.4286  plane waves:    2860
 k-point 128 :   0.3333 0.1250 0.4286  plane waves:    2852
 k-point 129 :   0.4444 0.1250 0.4286  plane waves:    2843
 k-point 130 :  -0.4444 0.1250 0.4286  plane waves:    2844
 k-point 131 :  -0.3333 0.1250 0.4286  plane waves:    2853
 k-point 132 :  -0.2222 0.1250 0.4286  plane waves:    2861
 k-point 133 :  -0.1111 0.1250 0.4286  plane waves:    2861
 k-point 134 :   0.0000 0.2500 0.4286  plane waves:    2869
 k-point 135 :   0.1111 0.2500 0.4286  plane waves:    2865
 k-point 136 :   0.2222 0.2500 0.4286  plane waves:    2863
 k-point 137 :   0.3333 0.2500 0.4286  plane waves:    2848
 k-point 138 :   0.4444 0.2500 0.4286  plane waves:    2832
 k-point 139 :  -0.4444 0.2500 0.4286  plane waves:    2835
 k-point 140 :  -0.3333 0.2500 0.4286  plane waves:    2846
 k-point 141 :  -0.2222 0.2500 0.4286  plane waves:    2865
 k-point 142 :  -0.1111 0.2500 0.4286  plane waves:    2863
 k-point 143 :   0.0000 0.3750 0.4286  plane waves:    2870
 k-point 144 :   0.1111 0.3750 0.4286  plane waves:    2868
 k-point 145 :   0.2222 0.3750 0.4286  plane waves:    2859
 k-point 146 :   0.3333 0.3750 0.4286  plane waves:    2852
 k-point 147 :   0.4444 0.3750 0.4286  plane waves:    2825
 k-point 148 :  -0.4444 0.3750 0.4286  plane waves:    2830
 k-point 149 :  -0.3333 0.3750 0.4286  plane waves:    2847
 k-point 150 :  -0.2222 0.3750 0.4286  plane waves:    2853
 k-point 151 :  -0.1111 0.3750 0.4286  plane waves:    2868
 k-point 152 :   0.0000 0.5000 0.4286  plane waves:    2866
 k-point 153 :   0.1111 0.5000 0.4286  plane waves:    2866
 k-point 154 :   0.2222 0.5000 0.4286  plane waves:    2850
 k-point 155 :   0.3333 0.5000 0.4286  plane waves:    2852
 k-point 156 :   0.4444 0.5000 0.4286  plane waves:    2838
 k-point 157 :  -0.4444 0.5000 0.4286  plane waves:    2838
 k-point 158 :  -0.3333 0.5000 0.4286  plane waves:    2852
 k-point 159 :  -0.2222 0.5000 0.4286  plane waves:    2850
 k-point 160 :  -0.1111 0.5000 0.4286  plane waves:    2866

 maximum and minimum number of plane-waves per node :       976      927

 maximum number of plane-waves:      2887
 maximum index in each direction: 
   IXMAX=    7   IYMAX=    8   IZMAX=   10
   IXMIN=   -7   IYMIN=   -9   IZMIN=  -11


 parallel 3D FFT for wavefunctions:
    minimum data exchange during FFTs selected (reduces bandwidth)
 parallel 3D FFT for charge:
    minimum data exchange during FFTs selected (reduces bandwidth)


 total amount of memory used by VASP MPI-rank0   153429. kBytes
=======================================================================

   base      :      30000. kBytes
   nonl-proj :      45161. kBytes
   fftplans  :        841. kBytes
   grid      :       2183. kBytes
   one-center:        124. kBytes
   wavefun   :      75120. kBytes
 
     INWAV:  cpu time      0.0000: real time      0.0001
 Broyden mixing: mesh for mixing (old mesh)
   NGX = 15   NGY = 17   NGZ = 21
  (NGX  = 50   NGY  = 56   NGZ  = 70)
  gives a total of   5355 points

 initial charge density was supplied:
 charge density of overlapping atoms calculated
 number of electron     150.0000000 magnetization      36.0000000
 keeping initial charge density in first step


--------------------------------------------------------------------------------------------------------


 Maximum index for augmentation-charges          593 (set IRDMAX)


--------------------------------------------------------------------------------------------------------


 First call to EWALD:  gamma=   0.352
 Maximum number of real-space cells 3x 3x 2
 Maximum number of reciprocal cells 2x 3x 3

    FEWALD:  cpu time      0.0005: real time      0.0006


--------------------------------------- Ionic step        1  -------------------------------------------




--------------------------------------- Iteration      1(   1)  ---------------------------------------


    POTLOK:  cpu time      0.0032: real time      0.0036
    SETDIJ:  cpu time      0.0037: real time      0.0038
     EDDAV:  cpu time      8.2347: real time      8.2622
 BZINTS: Fermi energy:   26.585483;  150.000000 electrons
         Band energy: 0.730198E+03;  BLOECHL correction:   -0.129135
       DOS:  cpu time      0.4577: real time      0.4585
    --------------------------------------------
      LOOP:  cpu time      8.6995: real time      8.7282

 eigenvalue-minimisations  : 79112
 total energy-change (2. order) : 0.1908764E+04  (-0.7188233E+04)
 number of electron     150.0000000 magnetization      36.0000000
 augmentation part      150.0000000 magnetization      36.0000000

 Free energy of the ion-electron system (eV)
  ---------------------------------------------------
  alpha Z        PSCENC =      1421.76464012
  Ewald energy   TEWEN  =    -18054.29041203
  -Hartree energ DENC   =     -7581.51357410
  -exchange      EXHF   =         0.00000000
  -V(xc)+E(xc)   XCENC  =       663.54516825
  PAW double counting   =     19934.15191062   -21135.41606588
  entropy T*S    EENTRO =         0.00000000
  eigenvalues    EBANDS =       730.19785193
  atomic energy  EATOM  =     25930.32421885
  Solvation  Ediel_sol  =         0.00000000
  ---------------------------------------------------
  free energy    TOTEN  =      1908.76373777 eV

  energy without entropy =     1908.76373777  energy(sigma->0) =     1908.76373777


--------------------------------------------------------------------------------------------------------




--------------------------------------- Iteration      1(   2)  ---------------------------------------


     EDDAV:  cpu time      7.6454: real time      7.6714
 BZINTS: Fermi energy:   11.904965;  150.000000 electrons
         Band energy:-0.103252E+04;  BLOECHL correction:   -0.059623
       DOS:  cpu time      0.4430: real time      0.4446
    --------------------------------------------
      LOOP:  cpu time      8.0884: real time      8.1160

 eigenvalue-minimisations  : 71680
 total energy-change (2. order) :-0.1762720E+04  (-0.1655921E+04)
 number of electron     150.0000000 magnetization      36.0000000
 augmentation part      150.0000000 magnetization      36.0000000

 Free energy of the ion-electron system (eV)
  ---------------------------------------------------
  alpha Z        PSCENC =      1421.76464012
  Ewald energy   TEWEN  =    -18054.29041203
  -Hartree energ DENC   =     -7581.51357410
  -exchange      EXHF   =         0.00000000
  -V(xc)+E(xc)   XCENC  =       663.54516825
  PAW double counting   =     19934.15191062   -21135.41606588
  entropy T*S    EENTRO =         0.00000000
  eigenvalues    EBANDS =     -1032.52214542
  atomic energy  EATOM  =     25930.32421885
  Solvation  Ediel_sol  =         0.00000000
  ---------------------------------------------------
  free energy    TOTEN  =       146.04374042 eV

  energy without entropy =      146.04374042  energy(sigma->0) =      146.04374042


--------------------------------------------------------------------------------------------------------




--------------------------------------- Iteration      1(   3)  ---------------------------------------


     EDDAV:  cpu time      7.7933: real time      7.8204
 BZINTS: Fermi energy:    9.370464;  150.000000 electrons
         Band energy:-0.126261E+04;  BLOECHL correction:   -0.090596
       DOS:  cpu time      0.4467: real time      0.4479
    --------------------------------------------
      LOOP:  cpu time      8.2400: real time      8.2683

 eigenvalue-minimisations  : 73408
 total energy-change (2. order) :-0.2300889E+03  (-0.1877684E+03)
 number of electron     150.0000000 magnetization      36.0000000
 augmentation part      150.0000000 magnetization      36.0000000

 Free energy of the ion-electron system (eV)
  ---------------------------------------------------
  alpha Z        PSCENC =      1421.76464012
  Ewald energy   TEWEN  =    -18054.29041203
  -Hartree energ DENC   =     -7581.51357410
  -exchange      EXHF   =         0.00000000
  -V(xc)+E(xc)   XCENC  =       663.54516825
  PAW double counting   =     19934.15191062   -21135.41606588
  entropy T*S    EENTRO =         0.00000000
  eigenvalues    EBANDS =     -1262.61101624
  atomic energy  EATOM  =     25930.32421885
  Solvation  Ediel_sol  =         0.00000000
  ---------------------------------------------------
  free energy    TOTEN  =       -84.04513040 eV

  energy without entropy =      -84.04513040  energy(sigma->0) =      -84.04513040


--------------------------------------------------------------------------------------------------------




--------------------------------------- Iteration      1(   4)  ---------------------------------------


     EDDAV:  cpu time      8.2859: real time      8.3183
 BZINTS: Fermi energy:    9.281761;  150.000000 electrons
         Band energy:-0.127481E+04;  BLOECHL correction:   -0.092951
       DOS:  cpu time      0.4402: real time      0.4412
    --------------------------------------------
      LOOP:  cpu time      8.7261: real time      8.7595

 eigenvalue-minimisations  : 79864
 total energy-change (2. order) :-0.1219894E+02  (-0.1197639E+02)
 number of electron     150.0000000 magnetization      36.0000000
 augmentation part      150.0000000 magnetization      36.0000000

 Free energy of the ion-electron system (eV)
  ---------------------------------------------------
  alpha Z        PSCENC =      1421.76464012
  Ewald energy   TEWEN  =    -18054.29041203
  -Hartree energ DENC   =     -7581.51357410
  -exchange      EXHF   =         0.00000000
  -V(xc)+E(xc)   XCENC  =       663.54516825
  PAW double counting   =     19934.15191062   -21135.41606588
  entropy T*S    EENTRO =         0.00000000
  eigenvalues    EBANDS =     -1274.80995504
  atomic energy  EATOM  =     25930.32421885
  Solvation  Ediel_sol  =         0.00000000
  ---------------------------------------------------
  free energy    TOTEN  =       -96.24406920 eV

  energy without entropy =      -96.24406920  energy(sigma->0) =      -96.24406920


--------------------------------------------------------------------------------------------------------




--------------------------------------- Iteration      1(   5)  ---------------------------------------


     EDDAV:  cpu time      9.5415: real time      9.5738
 BZINTS: Fermi energy:    9.280588;  150.000000 electrons
         Band energy:-0.127501E+04;  BLOECHL correction:   -0.092948
       DOS:  cpu time      0.3721: real time      0.3728
    CHARGE:  cpu time      0.2591: real time      0.2599
    MIXING:  cpu time      0.0007: real time      0.0007
    --------------------------------------------
      LOOP:  cpu time     10.1734: real time     10.2072

 eigenvalue-minimisations  : 97024
 total energy-change (2. order) :-0.2005789E+00  (-0.2004824E+00)
 number of electron     149.9999698 magnetization      32.6440855
 augmentation part       80.6022577 magnetization      28.8312864

 Broyden mixing:
  rms(total) = 0.42202E+01    rms(broyden)= 0.42197E+01
  rms(prec ) = 0.60819E+01
  weight for this iteration     100.00

 Free energy of the ion-electron system (eV)
  ---------------------------------------------------
  alpha Z        PSCENC =      1421.76464012
  Ewald energy   TEWEN  =    -18054.29041203
  -Hartree energ DENC   =     -7581.51357410
  -exchange      EXHF   =         0.00000000
  -V(xc)+E(xc)   XCENC  =       663.54516825
  PAW double counting   =     19934.15191062   -21135.41606588
  entropy T*S    EENTRO =         0.00000000
  eigenvalues    EBANDS =     -1275.01053396
  atomic energy  EATOM  =     25930.32421885
  Solvation  Ediel_sol  =         0.00000000
  ---------------------------------------------------
  free energy    TOTEN  =       -96.44464813 eV

  energy without entropy =      -96.44464813  energy(sigma->0) =      -96.44464813


--------------------------------------------------------------------------------------------------------




--------------------------------------- Iteration      1(   6)  ---------------------------------------


    POTLOK:  cpu time      0.0049: real time      0.0059
    SETDIJ:  cpu time      0.0034: real time      0.0034
     EDDAV:  cpu time      9.3963: real time      9.4269
 BZINTS: Fermi energy:    7.921195;  150.000000 electrons
         Band energy:-0.160697E+04;  BLOECHL correction:   -0.035995
       DOS:  cpu time      0.4510: real time      0.4519
    CHARGE:  cpu time      0.2719: real time      0.2728
    MIXING:  cpu time      0.0005: real time      0.0005
    --------------------------------------------
      LOOP:  cpu time     10.1281: real time     10.1614

 eigenvalue-minimisations  : 95912
 total energy-change (2. order) : 0.3763578E+00  (-0.3879658E+01)
 number of electron     149.9999675 magnetization      31.5731555
 augmentation part       85.0796834 magnetization      28.5685602

 Broyden mixing:
  rms(total) = 0.60113E+01    rms(broyden)= 0.60112E+01
  rms(prec ) = 0.94635E+01
  weight for this iteration     100.00

 eigenvalues of (default mixing * dielectric matrix)
  average eigenvalue GAMMA=   0.2603
  0.2603

 Free energy of the ion-electron system (eV)
  ---------------------------------------------------
  alpha Z        PSCENC =      1421.76464012
  Ewald energy   TEWEN  =    -18054.29041203
  -Hartree energ DENC   =     -7266.79326263
  -exchange      EXHF   =         0.00000000
  -V(xc)+E(xc)   XCENC  =       649.99651657
  PAW double counting   =     19629.34680939   -20799.44660234
  entropy T*S    EENTRO =         0.00000000
  eigenvalues    EBANDS =     -1606.97019823
  atomic energy  EATOM  =     25930.32421885
  Solvation  Ediel_sol  =         0.00000000
  ---------------------------------------------------
  free energy    TOTEN  =       -96.06829028 eV

  energy without entropy =      -96.06829028  energy(sigma->0) =      -96.06829028


--------------------------------------------------------------------------------------------------------




--------------------------------------- Iteration      1(   7)  ---------------------------------------


    POTLOK:  cpu time      0.0032: real time      0.0059
    SETDIJ:  cpu time      0.0032: real time      0.0032
     EDDAV:  cpu time      8.7760: real time      8.8055
 BZINTS: Fermi energy:    7.323144;  150.000000 electrons
         Band energy:-0.153097E+04;  BLOECHL correction:   -0.090087
       DOS:  cpu time      0.4385: real time      0.4394
    CHARGE:  cpu time      0.2698: real time      0.2702
    MIXING:  cpu time      0.0003: real time      0.0003
    --------------------------------------------
      LOOP:  cpu time      9.4912: real time      9.5245

 eigenvalue-minimisations  : 87152
 total energy-change (2. order) : 0.1105055E+02  (-0.2677002E+01)
 number of electron     149.9999673 magnetization      28.8169538
[...]
     22       0.4528      1.00000
     23       3.0536      1.00000
     24       3.0536      1.00000
     25       3.1487      1.00000
     26       3.1487      1.00000
     27       3.1670      1.00000
     28       3.1670      1.00000
     29       3.3422      1.00000
     30       3.3422      1.00000
     31       3.6887      1.00000
     32       3.6887      1.00000
     33       3.9443      1.00000
     34       3.9443      1.00000
     35       4.0434      1.00000
     36       4.0434      1.00000
     37       4.0736      1.00000
     38       4.0736      1.00000
     39       4.1019      1.00000
     40       4.1019      1.00000
     41       4.2177      1.00000
     42       4.2177      1.00000
     43       4.4127      1.00000
     44       4.4127      1.00000
     45       4.6370      1.00000
     46       4.6370      1.00000
     47       4.7819      1.00000
     48       4.7819      1.00000
     49       4.9060      1.00000
     50       4.9060      1.00000
     51       5.2532      1.00000
     52       5.2532      1.00000
     53       5.3602      1.00000
     54       5.3602      1.00000
     55       5.4914      1.00000
     56       5.4914      1.00000
     57       5.5750      1.00000
     58       5.5750      1.00000
     59       5.7529      1.00000
     60       5.7529      1.00000
     61       5.9889      1.00000
     62       5.9889      1.00000
     63       6.0992      1.00000
     64       6.0992      1.00000
     65       6.1160      1.00000
     66       6.1160      1.00000
     67       6.3511      1.00000
     68       6.3511      1.00000
     69       6.4882      1.00000
     70       6.4882      1.03448
     71       6.7815      0.00000
     72       6.7815      0.00000
     73       6.8486      0.00000
     74       6.8486      0.00000
     75       7.0772      0.00000
     76       7.0772      0.00000
     77       7.2118      0.00000
     78       7.2118      0.00000
     79       7.3127      0.00000
     80       7.3127      0.00000
     81       7.4752      0.00000
     82       7.4752      0.00000
     83       9.9390      0.00000
     84       9.9390      0.00000
     85      10.5917      0.00000
     86      10.5917      0.00000
     87      10.7172      0.00000
     88      10.7172      0.00000
     89      13.2211      0.00000
     90      13.2211      0.00000
     91      13.8791      0.00000
     92      13.8791      0.00000
     93      14.7193      0.00000
     94      14.7193      0.00000
     95      15.5360      0.00000
     96      15.5360      0.00000
     97      15.9229      0.00000
     98      15.9229      0.00000
     99      18.1835      0.00000
    100      18.1835      0.00000
    101      19.5338      0.00000
    102      19.5338      0.00000
    103      21.0549      0.00000
    104      21.0549      0.00000
    105      21.9342      0.00000
    106      21.9342      0.00000
    107      22.4187      0.00000
    108      22.4187      0.00000
    109      22.5723      0.00000
    110      22.5723      0.00000
    111      22.8893      0.00000
    112      22.8893      0.00000


--------------------------------------------------------------------------------------------------------


 soft charge-density along one line, spin component           1
         0         1         2         3         4         5         6         7         8         9
 total charge-density along one line
 
 soft charge-density along one line, spin component           2
         0         1         2         3         4         5         6         7         8         9
 total charge-density along one line
 
 pseudopotential strength for first ion, spin component:           1
 -4.834  -0.019  -0.000  -0.000  -0.000  -0.911   0.007   0.000
 -0.019  -4.792  -0.000   0.000   0.000   0.007  -0.926   0.000
 -0.000  -0.000  -4.802  -0.009   0.017   0.000   0.000  -0.923
 -0.000   0.000  -0.009  -4.773  -0.004   0.000  -0.000   0.003
 -0.000   0.000   0.017  -0.004  -4.781   0.000  -0.000  -0.006
 -0.911   0.007   0.000   0.000   0.000   1.340  -0.003  -0.000
  0.007  -0.926   0.000  -0.000  -0.000  -0.003   1.345  -0.000
  0.000   0.000  -0.923   0.003  -0.006  -0.000  -0.000   1.344
  0.000  -0.000   0.003  -0.933   0.001  -0.000   0.000  -0.001
  0.000  -0.000  -0.006   0.001  -0.930  -0.000   0.000   0.002
 -0.000   0.000  -0.002   0.004   0.001  -0.000   0.000   0.001
  0.000  -0.000   0.000  -0.000  -0.000  -0.000   0.000  -0.000
 -0.000   0.007   0.000   0.000   0.000   0.000  -0.002  -0.000
  0.000  -0.000   0.010   0.000   0.000   0.000   0.000  -0.004
 -0.000   0.000  -0.000   0.007   0.001   0.000   0.000   0.000
  0.000  -0.002  -0.000  -0.000  -0.000  -0.000   0.001   0.000
 -0.000   0.000  -0.003  -0.000  -0.000   0.000  -0.000   0.001
  0.000  -0.000   0.000  -0.002  -0.000  -0.000   0.000  -0.000
 pseudopotential strength for first ion, spin component:           2
 -3.584   0.011  -0.000  -0.000  -0.000  -1.378  -0.004   0.000
  0.011  -3.576  -0.000   0.000   0.000  -0.004  -1.380   0.000
 -0.000  -0.000  -3.591  -0.002  -0.003   0.000   0.000  -1.376
 -0.000   0.000  -0.002  -3.590  -0.022   0.000  -0.000   0.001
 -0.000   0.000  -0.003  -0.022  -3.606   0.000  -0.000   0.001
 -1.378  -0.004   0.000   0.000   0.000   1.510   0.001  -0.000
 -0.004  -1.380   0.000  -0.000  -0.000   0.001   1.510  -0.000
  0.000   0.000  -1.376   0.001   0.001  -0.000  -0.000   1.509
  0.000  -0.000   0.001  -1.375   0.007  -0.000   0.000  -0.000
  0.000  -0.000   0.001   0.007  -1.370  -0.000   0.000  -0.000
 -0.000   0.000  -0.001   0.001   0.001  -0.000   0.000   0.000
  0.000  -0.000   0.000  -0.000  -0.000  -0.000   0.000  -0.000
  0.000   0.004   0.000   0.000   0.000  -0.000  -0.001  -0.000
  0.000  -0.000   0.004   0.000  -0.000   0.000   0.000  -0.001
 -0.000   0.000  -0.000   0.004   0.000   0.000   0.000   0.000
  0.000  -0.002  -0.000  -0.000  -0.000   0.000   0.001   0.000
 -0.000   0.000  -0.003  -0.000  -0.000   0.000  -0.000   0.001
  0.000  -0.000   0.000  -0.002  -0.000  -0.000   0.000  -0.000
 total augmentation occupancy for first ion, spin component:           1
  1.547  -0.024   0.000   0.000   0.000   0.100  -0.035   0.000   0.000   0.000   0.000   0.000  -0.003  -0.000   0.000   0.000
 -0.024   1.583   0.000   0.000   0.000  -0.035   0.078   0.000  -0.000   0.000   0.000   0.000   0.009   0.000   0.000  -0.001
  0.000   0.000   1.584  -0.005   0.020  -0.000   0.000   0.128   0.001   0.003   0.003  -0.002   0.000   0.023  -0.001   0.000
  0.000   0.000  -0.005   1.609   0.016   0.000   0.000   0.000   0.073   0.035   0.002   0.002   0.000   0.001   0.012   0.000
  0.000   0.000   0.020   0.016   1.615   0.000   0.000   0.003   0.035   0.098  -0.014   0.002   0.000   0.001   0.004  -0.000
  0.100  -0.035  -0.000   0.000   0.000   0.149  -0.002   0.000   0.000   0.000   0.000   0.000   0.000   0.000   0.000  -0.000
 -0.035   0.078   0.000   0.000   0.000  -0.002   0.146   0.000   0.000   0.000  -0.000   0.000   0.008  -0.000   0.000  -0.001
  0.000   0.000   0.128   0.000   0.003   0.000   0.000   0.150   0.000  -0.002   0.001   0.001   0.000   0.008  -0.001   0.000
  0.000  -0.000   0.001   0.073   0.035   0.000   0.000   0.000   0.142   0.002   0.002  -0.000   0.000   0.001   0.008   0.000
  0.000   0.000   0.003   0.035   0.098   0.000   0.000  -0.002   0.002   0.144  -0.004  -0.001   0.000  -0.000   0.002   0.000
  0.000   0.000   0.003   0.002  -0.014   0.000  -0.000   0.001   0.002  -0.004   1.365  -0.368   0.000   0.027   0.003   0.000
  0.000   0.000  -0.002   0.002   0.002   0.000   0.000   0.001  -0.000  -0.001  -0.368   0.130  -0.000  -0.004  -0.001   0.000
 -0.003   0.009   0.000   0.000   0.000   0.000   0.008   0.000   0.000   0.000   0.000  -0.000   0.232   0.000  -0.000  -0.016
 -0.000   0.000   0.023   0.001   0.001   0.000  -0.000   0.008   0.001  -0.000   0.027  -0.004   0.000   0.231   0.000   0.000
  0.000   0.000  -0.001   0.012   0.004   0.000   0.000  -0.001   0.008   0.002   0.003  -0.001  -0.000   0.000   0.228   0.000
  0.000  -0.001   0.000   0.000  -0.000  -0.000  -0.001   0.000   0.000   0.000   0.000   0.000  -0.016   0.000   0.000   0.001
 -0.000   0.000  -0.001   0.000   0.000   0.000   0.000  -0.000  -0.000   0.000  -0.001   0.000   0.000  -0.016   0.000   0.000
  0.000   0.000   0.000  -0.001   0.000   0.000   0.000   0.000  -0.000  -0.000  -0.000   0.000   0.000   0.000  -0.016   0.000
 total augmentation occupancy for first ion, spin component:           2
  0.322   0.031   0.000   0.000   0.000  -0.184  -0.001   0.000   0.000   0.000   0.000   0.000   0.002  -0.000   0.000   0.000
  0.031   0.289   0.000  -0.000   0.000  -0.001  -0.178   0.000  -0.000   0.000   0.000   0.000  -0.007   0.000   0.000  -0.000
  0.000   0.000   0.281   0.006  -0.021   0.000  -0.000  -0.182  -0.002   0.002  -0.003  -0.001   0.000  -0.021   0.000   0.000
  0.000  -0.000   0.006   0.263  -0.021  -0.000  -0.000  -0.002  -0.168  -0.002  -0.002   0.000  -0.000   0.000  -0.010   0.000
  0.000   0.000  -0.021  -0.021   0.253   0.000   0.000   0.002  -0.002  -0.170   0.013   0.002  -0.000  -0.001  -0.002   0.000
 -0.184  -0.001   0.000  -0.000   0.000   0.020   0.002   0.000   0.000   0.000   0.000   0.000  -0.001   0.000   0.000   0.000
 -0.001  -0.178  -0.000  -0.000   0.000   0.002   0.023  -0.000   0.000   0.000  -0.000   0.000  -0.000   0.000   0.000  -0.000
  0.000   0.000  -0.182  -0.002   0.002   0.000  -0.000   0.021   0.000   0.001  -0.001  -0.000   0.000   0.002  -0.000   0.000
  0.000  -0.000  -0.002  -0.168  -0.002   0.000   0.000   0.000   0.023  -0.001   0.001  -0.000   0.000  -0.000   0.001   0.000
  0.000   0.000   0.002  -0.002  -0.170   0.000   0.000   0.001  -0.001   0.022   0.000   0.001   0.000   0.000   0.001   0.000
  0.000   0.000  -0.003  -0.002   0.013   0.000  -0.000  -0.001   0.001   0.000   0.004   0.060   0.000  -0.007   0.000   0.000
  0.000   0.000  -0.001   0.000   0.002   0.000   0.000  -0.000  -0.000   0.001   0.060  -0.032  -0.000   0.000   0.000   0.000
  0.002  -0.007   0.000  -0.000  -0.000  -0.001  -0.000   0.000   0.000   0.000   0.000  -0.000  -0.010   0.000   0.000   0.002
 -0.000   0.000  -0.021   0.000  -0.001   0.000   0.000   0.002  -0.000   0.000  -0.007   0.000   0.000  -0.009   0.000   0.000
  0.000   0.000   0.000  -0.010  -0.002   0.000   0.000  -0.000   0.001   0.001   0.000   0.000   0.000   0.000  -0.008   0.000
  0.000  -0.000   0.000   0.000   0.000   0.000  -0.000   0.000   0.000   0.000   0.000   0.000   0.002   0.000   0.000  -0.000
  0.000   0.000  -0.000   0.000  -0.000  -0.000   0.000  -0.000  -0.000  -0.000  -0.000   0.000   0.000   0.002   0.000   0.000
  0.000   0.000  -0.000  -0.000  -0.000   0.000   0.000   0.000  -0.000  -0.000   0.000  -0.000   0.000   0.000   0.002   0.000


------------------------ aborting loop because EDIFF is reached ----------------------------------------


    CHARGE:  cpu time      0.2276: real time      0.2288
    FORLOC:  cpu time      0.0003: real time      0.0003
    FORNL :  cpu time      0.8445: real time      0.8475
    STRESS:  cpu time      2.5839: real time      2.5895
    FORCOR:  cpu time      0.0015: real time      0.0015
    FORHAR:  cpu time      0.0008: real time      0.0008
    MIXING:  cpu time      0.0005: real time      0.0005
    OFIELD:  cpu time      0.0001: real time      0.0001

  FORCE on cell =-STRESS in cart. coord.  units (eV):
  Direction    XX          YY          ZZ          XY          YZ          ZX
  --------------------------------------------------------------------------------------
  Alpha Z  1421.76464  1421.76464  1421.76464
  Ewald   -5715.47619 -5360.11047 -6978.72218    -0.00000     0.00000    -8.42042
  Hartree  2710.30078  3034.53161  1504.99594    -0.00000    -0.00000    -6.42625
  E(xc)    -968.32724  -968.40553  -968.23188     0.00000    -0.00000     0.00505
  Local      90.00210  -589.63893  2559.95076    -0.00000     0.00000    14.70752
  n-local  -712.98418  -713.09504  -712.28150     0.24638    -0.79757     0.04742
  augment  1349.00936  1349.27279  1347.80676     0.00000    -0.00000     0.08617
  Kinetic  1814.82223  1814.67354  1813.82752    -0.82804    -0.00130     0.00578
  Fock        0.00000     0.00000     0.00000     0.00000     0.00000     0.00000
  -------------------------------------------------------------------------------------
  Total     -10.88850   -11.00740   -10.88993     0.00000     0.00000     0.00526
  in kB    -136.61251  -138.10431  -136.63044     0.00000     0.00000     0.06595
  external pressure =     -137.12 kB  Pullay stress =        0.00 kB


 VOLUME and BASIS-vectors are now :
 -----------------------------------------------------------------------------
  energy-cutoff  :      459.66
  volume of cell :      127.70
      direct lattice vectors                 reciprocal lattice vectors
     4.283818835  0.000000000 -0.007389808     0.233437272  0.000000000  0.000403545
     0.000000000  4.922769534  0.000000000     0.000000000  0.203137684  0.000000000
    -0.010468159  0.000000000  6.055483179     0.000284875  0.000000000  0.165140081

  length of vectors
     4.283825209  4.922769534  6.055492228     0.233437621  0.203137684  0.165140327


 FORCES acting on ions
    electron-ion (+dipol)            ewald-force                    non-local-force                 convergence-correction
 -----------------------------------------------------------------------------------------------
   0.448E+01 0.171E-11 -.312E+03   -.455E+01 -.568E-13 0.313E+03   0.689E-01 -.276E-18 -.969E-01   0.667E-03 -.651E-13 -.110E-01
   0.448E+01 0.151E-11 -.312E+03   -.455E+01 -.568E-13 0.313E+03   0.689E-01 -.399E-18 -.969E-01   0.667E-03 0.321E-14 -.110E-01
   0.460E+02 0.253E-12 0.128E+03   -.459E+02 -.142E-13 -.128E+03   -.274E-01 -.457E-18 -.656E-01   -.814E-03 -.349E-13 0.273E-01
   0.460E+02 0.913E-12 0.128E+03   -.459E+02 -.284E-13 -.128E+03   -.274E-01 0.542E-18 -.656E-01   -.814E-03 0.291E-13 0.273E-01
   -.450E+02 -.135E-12 0.175E+03   0.450E+02 0.557E-13 -.175E+03   0.135E-01 0.729E-18 0.103E-01   0.933E-03 0.184E-14 0.285E-01
   -.450E+02 0.229E-12 0.175E+03   0.450E+02 0.613E-13 -.175E+03   0.135E-01 -.790E-18 0.103E-01   0.933E-03 -.407E-13 0.285E-01
   -.822E+02 -.694E-11 0.324E+03   0.822E+02 0.853E-13 -.324E+03   -.942E-01 -.147E-18 0.177E+00   0.954E-03 -.166E-12 -.291E-01
   -.822E+02 0.686E-11 0.324E+03   0.822E+02 0.199E-12 -.324E+03   -.942E-01 -.396E-19 0.177E+00   0.954E-03 0.165E-12 -.291E-01
   0.829E+02 -.327E-12 0.252E+03   -.830E+02 -.142E-12 -.252E+03   0.943E-01 -.432E-18 0.579E-01   -.101E-02 0.242E-12 -.321E-01
   0.829E+02 0.131E-10 0.252E+03   -.830E+02 -.760E-13 -.252E+03   0.943E-01 0.375E-18 0.579E-01   -.101E-02 -.127E-12 -.321E-01
   -.619E+01 -.437E-12 -.567E+03   0.623E+01 -.384E-13 0.567E+03   -.368E-01 -.427E-18 -.554E-01   -.146E-02 0.234E-12 -.180E-01
   -.619E+01 0.244E-11 -.567E+03   0.623E+01 0.269E-13 0.567E+03   -.368E-01 -.110E-18 -.554E-01   -.146E-02 -.153E-12 -.180E-01
 -----------------------------------------------------------------------------------------------
   -.440E-01 0.192E-10 0.116E-01   -.835E-13 0.151E-13 -.114E-12   0.365E-01 -.143E-17 0.539E-01   -.146E-02 0.872E-13 -.686E-01
 
 
 POSITION                                       TOTAL-FORCE (eV/Angst)
 -----------------------------------------------------------------------------------
      3.57086      1.23069      2.04081        -0.003615      0.000000     -0.002979
      3.57086      3.69208      2.04081        -0.003615      0.000000     -0.002979
      0.69868      1.23069      4.01945         0.012354      0.000000      0.018386
      0.69868      3.69208      4.01945         0.012354      0.000000      0.018386
      2.85175      0.00000      4.02041        -0.011067     -0.000000     -0.008093
      2.85175      2.46138      4.02041        -0.011067     -0.000000     -0.008093
      2.13433      1.23069      6.04436        -0.014426      0.000000      0.001978
      2.13433      3.69208      6.04436        -0.014426     -0.000000      0.001978
      4.27227      0.00000      6.04016         0.009852     -0.000000     -0.002807
      4.27227      2.46138      6.04016         0.009852      0.000000     -0.002807
      1.42360      0.00000      2.03087         0.006902      0.000000     -0.006484
      1.42360      2.46138      2.03087         0.006902     -0.000000     -0.006484
 -----------------------------------------------------------------------------------
    total drift:                               -0.008961      0.000000     -0.003178


--------------------------------------------------------------------------------------------------------



  FREE ENERGIE OF THE ION-ELECTRON SYSTEM (eV)
  ---------------------------------------------------
  free  energy   TOTEN  =       -87.50711808 eV

  energy  without entropy=      -87.50711808  energy(sigma->0) =      -87.50711808
 


--------------------------------------------------------------------------------------------------------


    POTLOK:  cpu time      0.0043: real time      0.0043


--------------------------------------------------------------------------------------------------------


 stress matrix after NEB project (eV)
    -10.88850      0.00000      0.00526
      0.00000    -11.00740      0.00000
      0.00526      0.00000    -10.88993
  FORCES: max atom, RMS     0.022150    0.013584
  FORCE total and by dimension    0.047058    0.018386
  Stress total and by dimension   18.929153   11.007400
     LOOP+:  cpu time    234.0854: real time    234.9015
 -----------------------------------------------------------------------------
|                                                                             |
|           W    W    AA    RRRRR   N    N  II  N    N   GGGG   !!!           |
|           W    W   A  A   R    R  NN   N  II  NN   N  G    G  !!!           |
|           W    W  A    A  R    R  N N  N  II  N N  N  G       !!!           |
|           W WW W  AAAAAA  RRRRR   N  N N  II  N  N N  G  GGG   !            |
|           WW  WW  A    A  R   R   N   NN  II  N   NN  G    G                |
|           W    W  A    A  R    R  N    N  II  N    N   GGGG   !!!           |
|                                                                             |
|     Tetrahedron method does not include variations of the Fermi             |
|     occupations, so forces and stress will be inaccurate. We suggest        |
|     using a different smearing scheme ISMEAR = 1 or 2 for metals in         |
|     relaxations.                                                            |
|                                                                             |
 -----------------------------------------------------------------------------

    4ORBIT:  cpu time      0.0000: real time      0.0000
 BZINTS: Fermi energy:    6.641100;  150.000000 electrons
         Band energy:-0.156130E+04;  BLOECHL correction:   -0.063407

 total amount of memory used by VASP MPI-rank0   153429. kBytes
=======================================================================

   base      :      30000. kBytes
   nonl-proj :      45161. kBytes
   fftplans  :        841. kBytes
   grid      :       2183. kBytes
   one-center:        124. kBytes
   wavefun   :      75120. kBytes
 
  
  
 General timing and accounting informations for this job:
 ========================================================
  
                  Total CPU time used (sec):      238.063
                            User time (sec):      231.331
                          System time (sec):        6.732
                         Elapsed time (sec):      238.925
  
                   Maximum memory used (kb):      249688.
                   Average memory used (kb):          N/A
  
                          Minor page faults:        18538
                          Major page faults:          479
                 Voluntary context switches:          557
