       N       E                     dE             d eps       ncg     rms          rms(c)
DAV:   1     0.176713146292E+04    0.17671E+04   -0.84589E+04 75392   0.180E+03
DAV:   2     0.561677304252E+01   -0.17615E+04   -0.16715E+04 75264   0.481E+02
DAV:   3    -0.103506886081E+03   -0.10912E+03   -0.10770E+03 88704   0.128E+02
DAV:   4    -0.105081991239E+03   -0.15751E+01   -0.15748E+01 79552   0.155E+01
DAV:   5    -0.105112204177E+03   -0.30213E-01   -0.30213E-01 92864   0.208E+00    0.391E+01
DAV:   6    -0.122311020572E+03   -0.17199E+02   -0.27553E+02 93280   0.706E+01    0.747E+01
DAV:   7    -0.105774035873E+03    0.16537E+02   -0.21190E+02 91488   0.580E+01    0.556E+01
DAV:   8    -0.964832119524E+02    0.92908E+01   -0.14078E+02 90400   0.438E+01    0.311E+01
DAV:   9    -0.103755756931E+03   -0.72725E+01   -0.14994E+02 87776   0.306E+01    0.471E+01
DAV:  10    -0.936308801243E+02    0.10125E+02   -0.32284E+01 87104   0.260E+01    0.219E+01
DAV:  11    -0.933911066590E+02    0.23977E+00   -0.19629E+01 89440   0.154E+01    0.198E+01
DAV:  12    -0.927238919330E+02    0.66721E+00   -0.10149E+01 88768   0.103E+01    0.980E+00
DAV:  13    -0.928903157889E+02   -0.16642E+00   -0.46330E-01 89184   0.265E+00    0.934E+00
DAV:  14    -0.930919504491E+02   -0.20163E+00   -0.13166E+00 89792   0.408E+00    0.107E+01
DAV:  15    -0.931715393422E+02   -0.79589E-01   -0.16795E+00 91040   0.427E+00    0.704E+00
DAV:  16    -0.934257168556E+02   -0.25418E+00   -0.26126E+00 91392   0.765E+00    0.893E+00
DAV:  17    -0.933135396599E+02    0.11218E+00   -0.21320E+00 91776   0.549E+00    0.464E+00
DAV:  18    -0.933579251662E+02   -0.44386E-01   -0.12560E+00 92032   0.402E+00    0.477E+00
DAV:  19    -0.932967579768E+02    0.61167E-01   -0.56599E-01 90624   0.278E+00    0.232E+00
DAV:  20    -0.933015841694E+02   -0.48262E-02   -0.14210E-01 90272   0.220E+00    0.198E+00
DAV:  21    -0.932950103452E+02    0.65738E-02   -0.13565E-01 88064   0.219E+00    0.131E+00
DAV:  22    -0.932958350093E+02   -0.82466E-03   -0.21872E-02 93056   0.872E-01    0.820E-01
DAV:  23    -0.933007545969E+02   -0.49196E-02   -0.12597E-02 90400   0.673E-01    0.349E-01
DAV:  24    -0.933020039324E+02   -0.12493E-02   -0.10028E-02 90496   0.653E-01    0.518E-01
DAV:  25    -0.933012635776E+02    0.74035E-03   -0.64559E-03 90464   0.508E-01    0.226E-01
DAV:  26    -0.933011698665E+02    0.93711E-04   -0.56710E-04 92096   0.144E-01    0.118E-01
DAV:  27    -0.933011612146E+02    0.86520E-05   -0.31173E-04 90336   0.806E-02    0.477E-02
DAV:  28    -0.933011672404E+02   -0.60258E-05   -0.63678E-05 90432   0.346E-02    0.326E-02
DAV:  29    -0.933011627854E+02    0.44549E-05   -0.13422E-05 87680   0.205E-02    0.194E-02
DAV:  30    -0.933011619946E+02    0.79088E-06   -0.58846E-06 61888   0.137E-02
   1 F= -.93301162E+02 E0= -.93301162E+02  d E =0.000000E+00  mag=    14.0299
