 vasp.6.4.3 19Mar24 (build Mar 26 2024 14:05:37) complex                        
  
 executed on             LinuxIFC date 2024.12.17  10:23:36
 running  128 mpi-ranks, on    1 nodes
 distrk:  each k-point on   32 cores,    4 groups
 distr:  one band on NCORE=   1 cores,   32 groups


--------------------------------------------------------------------------------------------------------


 INCAR:
   ALGO = Normal
   EDIFF = 1e-06
   EDIFFG = -0.01
   ENCUT = 520
   GGA = Pe
   IBRION = -1
   ISIF = 4
   ISMEAR = -5
   ISPIN = 2
   KPAR = 4
   LCHARG = True
   LORBIT = 11
   LREAL = False
   LWAVE = False
   MAGMOM = 1*-2.387 1*2.617 1*2.618 1*2.542 1*2.541 1*2.729 1*-2.387 1*2.618 1*2.619 2*0.052 1*0.293
   NELM = 200
   NSW = 0
   PREC = Accurate
   SIGMA = 0.2

 POTCAR:    PAW_PBE Fe_pv 02Aug2007               
 POTCAR:    PAW_PBE Pt 04Feb2005                  
 -----------------------------------------------------------------------------
|                                                                             |
|           W    W    AA    RRRRR   N    N  II  N    N   GGGG   !!!           |
|           W    W   A  A   R    R  NN   N  II  NN   N  G    G  !!!           |
|           W    W  A    A  R    R  N N  N  II  N N  N  G       !!!           |
|           W WW W  AAAAAA  RRRRR   N  N N  II  N  N N  G  GGG   !            |
|           WW  WW  A    A  R   R   N   NN  II  N   NN  G    G                |
|           W    W  A    A  R    R  N    N  II  N    N   GGGG   !!!           |
|                                                                             |
|     For optimal performance we recommend to set                             |
|       NCORE = 2 up to number-of-cores-per-socket                            |
|     NCORE specifies how many cores store one orbital (NPAR=cpu/NCORE).      |
|     This setting can greatly improve the performance of VASP for DFT.       |
|     The default, NCORE=1 might be grossly inefficient on modern             |
|     multi-core architectures or massively parallel machines. Do your        |
|     own testing! More info at https://www.vasp.at/wiki/index.php/NCORE      |
|     Unfortunately you need to use the default for GW and RPA                |
|     calculations (for HF NCORE is supported but not extensively tested      |
|     yet).                                                                   |
|                                                                             |
 -----------------------------------------------------------------------------

 POTCAR:    PAW_PBE Fe_pv 02Aug2007               
   SHA256 =  5d22e414b1f82158bf2c7ecb8b97b28fd0923e48cadc1c3bf74d524558f5dd32 Fe_pv/POTCAR          
   COPYR  = (c) Copyright 02Aug2007 Georg Kresse                                                    
   COPYR  = This file is part of the software VASP. Any use, copying, and all other rights are regul
   COPYR  = If you do not have a valid VASP license, you may not use, copy or distribute this file. 
   VRHFIN =Fe:  3pd7s1                                                                              
   LEXCH  = PE                                                                                      
   EATOM  =  2457.4239 eV,  180.6156 Ry                                                             
                                                                                                    
   TITEL  = PAW_PBE Fe_pv 02Aug2007                                                                 
   LULTRA =        F    use ultrasoft PP ?                                                          
   IUNSCR =        1    unscreen: 0-lin 1-nonlin 2-no                                               
   RPACOR =    1.750    partial core radius                                                         
   POMASS =   55.847; ZVAL   =   14.000    mass and valenz                                          
   RCORE  =    2.200    outmost cutoff radius                                                       
   RWIGS  =    2.200; RWIGS  =    1.164    wigner-seitz radius (au A)                               
   ENMAX  =  293.238; ENMIN  =  219.928 eV                                                          
   ICORE  =        3    local potential                                                             
   LCOR   =        T    correct aug charges                                                         
   LPAW   =        T    paw PP                                                                      
   EAUG   =  578.342                                                                                
   DEXC   =    0.000                                                                                
   RMAX   =    2.249    core radius for proj-oper                                                   
   RAUG   =    1.300    factor for augmentation sphere                                              
   RDEP   =    2.296    radius for radial grids                                                     
   RDEPT  =    1.766    core radius for aug-charge                                                  
                                                                                                    
   Atomic configuration                                                                             
    8 entries                                                                                       
     n  l   j            E        occ.                                                              
     1  0  0.50     -6993.8440   2.0000                                                             
     2  0  0.50      -814.6047   2.0000                                                             
     2  1  1.50      -693.3689   6.0000                                                             
     3  0  0.50       -89.4732   2.0000                                                             
     3  1  1.50       -55.6373   6.0000                                                             
     3  2  2.50        -3.8151   7.0000                                                             
     4  0  0.50        -4.2551   1.0000                                                             
     4  3  2.50        -1.3606   0.0000                                                             
   Description                                                                                      
     l       E           TYP  RCUT    TYP  RCUT                                                     
     1    -55.6372668     23  2.000                                                                 
     1     -5.4423304     23  2.000                                                                 
     2     -3.8151096     23  2.200                                                                 
     2     -5.1756922     23  2.200                                                                 
     0     -4.2550951     23  2.200                                                                 
     0     27.2116520     23  2.200                                                                 
     3     -1.3605826     23  2.200                                                                 
  local pseudopotential read in
  partial core-charges read in
  partial kinetic energy density read in
  atomic valenz-charges read in
  non local Contribution for L=           1  read in
    real space projection operators read in
  non local Contribution for L=           1  read in
    real space projection operators read in
  non local Contribution for L=           2  read in
    real space projection operators read in
  non local Contribution for L=           2  read in
    real space projection operators read in
  non local Contribution for L=           0  read in
    real space projection operators read in
  non local Contribution for L=           0  read in
    real space projection operators read in
    PAW grid and wavefunctions read in
 
   number of l-projection  operators is LMAX  =           6
   number of lm-projection operators is LMMAX =          18
 
 POTCAR:    PAW_PBE Pt 04Feb2005                  
   SHA256 =  3ed90460adef76debcff1cfb73ee1349b515b1a3db03439735b44de3a8db7dc8 Pt/POTCAR             
   COPYR  = (c) Copyright 04Feb2005 Georg Kresse                                                    
   COPYR  = This file is part of the software VASP. Any use, copying, and all other rights are regul
   COPYR  = If you do not have a valid VASP license, you may not use, copy or distribute this file. 
   VRHFIN =Pt: s1d9                                                                                 
   LEXCH  = PE                                                                                      
   EATOM  =   729.1176 eV,   53.5886 Ry                                                             
                                                                                                    
   TITEL  = PAW_PBE Pt 04Feb2005                                                                    
   LULTRA =        F    use ultrasoft PP ?                                                          
   IUNSCR =        1    unscreen: 0-lin 1-nonlin 2-no                                               
   RPACOR =    2.330    partial core radius                                                         
   POMASS =  195.080; ZVAL   =   10.000    mass and valenz                                          
   RCORE  =    2.600    outmost cutoff radius                                                       
   RWIGS  =    2.750; RWIGS  =    1.455    wigner-seitz radius (au A)                               
   ENMAX  =  230.283; ENMIN  =  172.712 eV                                                          
   ICORE  =        3    local potential                                                             
   LCOR   =        T    correct aug charges                                                         
   LPAW   =        T    paw PP                                                                      
   EAUG   =  358.966                                                                                
   DEXC   =    0.000                                                                                
   RMAX   =    2.658    core radius for proj-oper                                                   
   RAUG   =    1.300    factor for augmentation sphere                                              
   RDEP   =    2.761    radius for radial grids                                                     
   RDEPT  =    2.203    core radius for aug-charge                                                  
                                                                                                    
   Atomic configuration                                                                             
   16 entries                                                                                       
     n  l   j            E        occ.                                                              
     1  0  0.50    -78401.1885   2.0000                                                             
     2  0  0.50    -13770.7750   2.0000                                                             
     2  1  1.50    -11931.0468   6.0000                                                             
     3  0  0.50     -3234.7234   2.0000                                                             
     3  1  1.50     -2699.2216   6.0000                                                             
     3  2  2.50     -2119.5714  10.0000                                                             
     4  0  0.50      -695.1528   2.0000                                                             
     4  1  1.50      -519.6034   6.0000                                                             
     4  2  2.50      -306.6786  10.0000                                                             
     4  3  3.50       -70.1041  14.0000                                                             
     5  0  0.50      -101.7747   2.0000                                                             
     5  1  1.50       -55.9873   6.0000                                                             
     5  2  2.50        -6.1423   9.0000                                                             
     6  0  0.50        -5.6573   1.0000                                                             
     6  1  1.50        -6.8029   0.0000                                                             
     5  3  2.50        -1.3606   0.0000                                                             
   Description                                                                                      
     l       E           TYP  RCUT    TYP  RCUT                                                     
     2     -6.1423404     23  2.500                                                                 
     2     -7.5029230     23  2.500                                                                 
     0     -5.6573207     23  2.500                                                                 
     0      0.7416693     23  2.500                                                                 
     1     -2.7211652     23  2.600                                                                 
     1     20.4087390     23  2.600                                                                 
     3     -1.3605826     23  2.500                                                                 
  local pseudopotential read in
  partial core-charges read in
  partial kinetic energy density read in
  atomic valenz-charges read in
  non local Contribution for L=           2  read in
    real space projection operators read in
  non local Contribution for L=           2  read in
    real space projection operators read in
  non local Contribution for L=           0  read in
    real space projection operators read in
  non local Contribution for L=           0  read in
    real space projection operators read in
  non local Contribution for L=           1  read in
    real space projection operators read in
  non local Contribution for L=           1  read in
    real space projection operators read in
    PAW grid and wavefunctions read in
 
   number of l-projection  operators is LMAX  =           6
   number of lm-projection operators is LMMAX =          18
 
  PAW_PBE Fe_pv 02Aug2007               :
 energy of atom  1       EATOM=-2457.4239
 kinetic energy error for atom=    0.0062 (will be added to EATOM!!)
  PAW_PBE Pt 04Feb2005                  :
 energy of atom  2       EATOM= -729.1176
 kinetic energy error for atom=    0.0032 (will be added to EATOM!!)
 
 
 POSCAR: Fe9 Pt3
  positions in direct lattice
  velocities in cartesian coordinates


 exchange-correlation table for PE
   RHO(1)=    0.500       N(1)  =     2000
   RHO(2)=  100.500       N(2)  =     4000
 


--------------------------------------------------------------------------------------------------------


 ion  position               nearest neighbor table
   1  0.000  0.500  0.167-  11 2.59  11 2.59  10 2.59  10 2.59   7 2.62   7 2.62   7 2.62   7 2.62
                             5 2.69   5 2.69   4 2.69   4 2.69
   2  0.000  0.500  0.500-   5 2.57   5 2.57   8 2.62   8 2.62   8 2.62   8 2.62   6 2.63   6 2.63
                            12 2.63  12 2.63  11 2.67  11 2.67
   3  0.000  0.500  0.834-   4 2.57   4 2.57   9 2.62   9 2.62   9 2.62   9 2.62  12 2.63  12 2.63
                             6 2.63   6 2.63  10 2.67  10 2.67
   4  0.500  0.500  0.993-   3 2.57   3 2.57   9 2.57   9 2.57  10 2.63  10 2.63  10 2.63  10 2.63
                             7 2.69   7 2.69   1 2.69   1 2.69
   5  0.500  0.500  0.341-   2 2.57   2 2.57   8 2.57   8 2.57  11 2.63  11 2.63  11 2.63  11 2.63
                             7 2.69   7 2.69   1 2.69   1 2.69
   6  0.500  0.500  0.667-  12 2.62  12 2.62  12 2.62  12 2.62   8 2.63   8 2.63   2 2.63   2 2.63
                             9 2.63   9 2.63   3 2.63   3 2.63
   7  0.500  0.000  0.167-  11 2.59  11 2.59  10 2.59  10 2.59   1 2.62   1 2.62   1 2.62   1 2.62
                             4 2.69   4 2.69   5 2.69   5 2.69
   8  0.500  0.000  0.500-   5 2.57   5 2.57   2 2.62   2 2.62   2 2.62   2 2.62   6 2.63   6 2.63
                            12 2.63  12 2.63  11 2.67  11 2.67
   9  0.500  0.000  0.833-   4 2.57   4 2.57   3 2.62   3 2.62   3 2.62   3 2.62  12 2.63  12 2.63
                             6 2.63   6 2.63  10 2.67  10 2.67
  10  0.000  0.000  0.005-   1 2.59   1 2.59   7 2.59   7 2.59   4 2.63   4 2.63   4 2.63   4 2.63
                             3 2.67   3 2.67   9 2.67   9 2.67
  11  0.000  0.000  0.329-   1 2.59   1 2.59   7 2.59   7 2.59   5 2.63   5 2.63   5 2.63   5 2.63
                             2 2.67   2 2.67   8 2.67   8 2.67
  12  0.000  0.000  0.667-   6 2.62   6 2.62   6 2.62   6 2.62   8 2.63   8 2.63   9 2.63   9 2.63
                             2 2.63   2 2.63   3 2.63   3 2.63
 
  LATTYP: Found a simple orthorhombic cell.
 ALAT       =     3.7076717652
 B/A-ratio  =     1.0000986967
 C/A-ratio  =     3.0211620475
  
  Lattice vectors:
  
 A1 = (   0.0000000000,  -3.7076717652,   0.0000000000)
 A2 = (   3.7080377003,   0.0000000000,   0.0000000000)
 A3 = (   0.0000000000,   0.0000000000,  11.2014772217)


Analysis of symmetry for initial positions (statically):
=====================================================================
 Subroutine PRICEL returns:
 Original cell was already a primitive cell.
 

 Routine SETGRP: Setting up the symmetry group for a 
 simple orthorhombic supercell.


 Subroutine GETGRP returns: Found  4 space group operations
 (whereof  4 operations were pure point group operations)
 out of a pool of  8 trial point group operations.


The static configuration has the point symmetry C_2v.


Analysis of symmetry for dynamics (positions and initial velocities):
=====================================================================
 Subroutine PRICEL returns:
 Original cell was already a primitive cell.
 

 Routine SETGRP: Setting up the symmetry group for a 
 simple orthorhombic supercell.


 Subroutine GETGRP returns: Found  4 space group operations
 (whereof  4 operations were pure point group operations)
 out of a pool of  8 trial point group operations.


The dynamic configuration has the point symmetry C_2v.


Analysis of structural, dynamic, and magnetic symmetry:
=====================================================================
 Subroutine PRICEL returns:
 Original cell was already a primitive cell.
 

 Routine SETGRP: Setting up the symmetry group for a 
 simple orthorhombic supercell.


 Subroutine GETGRP returns: Found  4 space group operations
 (whereof  4 operations were pure point group operations)
 out of a pool of  8 trial point group operations.


The overall configuration has the point symmetry C_2v.


 Subroutine INISYM returns: Found  4 space group operations
 (whereof  4 operations are pure point group operations),
 and found     1 'primitive' translations


----------------------------------------------------------------------------------------

                                     Primitive cell                                     

  volume of cell :     154.0000

  direct lattice vectors                    reciprocal lattice vectors
     3.708037700  0.000000000  0.000000000     0.269684421  0.000000000  0.000000000
     0.000000000  3.707671765  0.000000000     0.000000000  0.269711038  0.000000000
     0.000000000  0.000000000 11.201477222     0.000000000  0.000000000  0.089273940

  length of vectors
     3.708037700  3.707671765 11.201477222     0.269684421  0.269711038  0.089273940

  position of ions in fractional coordinates (direct lattice)
     0.000000000  0.500000000  0.166690398
     0.000000000  0.500000000  0.499741454
     0.000000000  0.500000000  0.833576988
     0.500000000  0.500000000  0.992823580
     0.500000000  0.500000000  0.340556889
     0.500000000  0.500000000  0.666606907
     0.500000000  0.000000000  0.166690218
     0.500000000  0.000000000  0.499822471
     0.500000000  0.000000000  0.833495209
     0.000000000  0.000000000  0.004760793
     0.000000000  0.000000000  0.328588644
     0.000000000  0.000000000  0.666646448

  ion indices of the primitive-cell ions
   primitive index   ion index
                 1           1
                 2           2
                 3           3
                 4           4
                 5           5
                 6           6
                 7           7
                 8           8
                 9           9
                10          10
                11          11
                12          12

----------------------------------------------------------------------------------------

 
 
 KPOINTS: pymatgen with grid density = 8800 / numb

Automatic generation of k-mesh.
 Grid dimensions read from file:
 generate k-points for:   13   13    4

 Generating k-lattice:

  Cartesian coordinates                     Fractional coordinates (reciprocal lattice)
     0.020744955  0.000000000  0.000000000     0.076923077  0.000000000  0.000000000
     0.000000000  0.020747003  0.000000000     0.000000000  0.076923077  0.000000000
     0.000000000  0.000000000  0.022318485     0.000000000  0.000000000  0.250000000

  Length of vectors
     0.020744955  0.020747003  0.022318485

  Shift w.r.t. Gamma in fractional coordinates (k-lattice)
     0.000000000  0.000000000  0.000000000

 TETIRR: Found   2022 inequivalent tetrahedra from     4056
 
 Subroutine IBZKPT returns following result:
 ===========================================
 
 Found    147 irreducible k-points:
 
 Following reciprocal coordinates:
            Coordinates               Weight
  0.000000  0.000000  0.000000      1.000000
  0.076923  0.000000  0.000000      2.000000
  0.153846  0.000000  0.000000      2.000000
  0.230769  0.000000  0.000000      2.000000
  0.307692  0.000000  0.000000      2.000000
  0.384615  0.000000  0.000000      2.000000
  0.461538  0.000000  0.000000      2.000000
  0.000000  0.076923  0.000000      2.000000
  0.076923  0.076923  0.000000      4.000000
  0.153846  0.076923  0.000000      4.000000
  0.230769  0.076923  0.000000      4.000000
  0.307692  0.076923  0.000000      4.000000
  0.384615  0.076923  0.000000      4.000000
  0.461538  0.076923  0.000000      4.000000
  0.000000  0.153846  0.000000      2.000000
  0.076923  0.153846  0.000000      4.000000
  0.153846  0.153846  0.000000      4.000000
  0.230769  0.153846  0.000000      4.000000
  0.307692  0.153846  0.000000      4.000000
  0.384615  0.153846  0.000000      4.000000
  0.461538  0.153846  0.000000      4.000000
  0.000000  0.230769  0.000000      2.000000
  0.076923  0.230769  0.000000      4.000000
  0.153846  0.230769  0.000000      4.000000
  0.230769  0.230769  0.000000      4.000000
  0.307692  0.230769  0.000000      4.000000
  0.384615  0.230769  0.000000      4.000000
  0.461538  0.230769  0.000000      4.000000
  0.000000  0.307692  0.000000      2.000000
  0.076923  0.307692  0.000000      4.000000
  0.153846  0.307692  0.000000      4.000000
  0.230769  0.307692  0.000000      4.000000
  0.307692  0.307692  0.000000      4.000000
  0.384615  0.307692  0.000000      4.000000
  0.461538  0.307692  0.000000      4.000000
  0.000000  0.384615  0.000000      2.000000
  0.076923  0.384615  0.000000      4.000000
  0.153846  0.384615  0.000000      4.000000
  0.230769  0.384615  0.000000      4.000000
  0.307692  0.384615  0.000000      4.000000
  0.384615  0.384615  0.000000      4.000000
  0.461538  0.384615  0.000000      4.000000
  0.000000  0.461538  0.000000      2.000000
  0.076923  0.461538  0.000000      4.000000
  0.153846  0.461538  0.000000      4.000000
  0.230769  0.461538  0.000000      4.000000
  0.307692  0.461538  0.000000      4.000000
  0.384615  0.461538  0.000000      4.000000
  0.461538  0.461538  0.000000      4.000000
  0.000000  0.000000  0.250000      2.000000
  0.076923  0.000000  0.250000      4.000000
  0.153846  0.000000  0.250000      4.000000
  0.230769  0.000000  0.250000      4.000000
  0.307692  0.000000  0.250000      4.000000
  0.384615  0.000000  0.250000      4.000000
  0.461538  0.000000  0.250000      4.000000
  0.000000  0.076923  0.250000      4.000000
  0.076923  0.076923  0.250000      8.000000
  0.153846  0.076923  0.250000      8.000000
  0.230769  0.076923  0.250000      8.000000
  0.307692  0.076923  0.250000      8.000000
  0.384615  0.076923  0.250000      8.000000
  0.461538  0.076923  0.250000      8.000000
  0.000000  0.153846  0.250000      4.000000
  0.076923  0.153846  0.250000      8.000000
  0.153846  0.153846  0.250000      8.000000
  0.230769  0.153846  0.250000      8.000000
  0.307692  0.153846  0.250000      8.000000
  0.384615  0.153846  0.250000      8.000000
  0.461538  0.153846  0.250000      8.000000
  0.000000  0.230769  0.250000      4.000000
  0.076923  0.230769  0.250000      8.000000
  0.153846  0.230769  0.250000      8.000000
  0.230769  0.230769  0.250000      8.000000
  0.307692  0.230769  0.250000      8.000000
  0.384615  0.230769  0.250000      8.000000
  0.461538  0.230769  0.250000      8.000000
  0.000000  0.307692  0.250000      4.000000
  0.076923  0.307692  0.250000      8.000000
  0.153846  0.307692  0.250000      8.000000
  0.230769  0.307692  0.250000      8.000000
  0.307692  0.307692  0.250000      8.000000
  0.384615  0.307692  0.250000      8.000000
  0.461538  0.307692  0.250000      8.000000
  0.000000  0.384615  0.250000      4.000000
  0.076923  0.384615  0.250000      8.000000
  0.153846  0.384615  0.250000      8.000000
  0.230769  0.384615  0.250000      8.000000
  0.307692  0.384615  0.250000      8.000000
  0.384615  0.384615  0.250000      8.000000
  0.461538  0.384615  0.250000      8.000000
  0.000000  0.461538  0.250000      4.000000
  0.076923  0.461538  0.250000      8.000000
  0.153846  0.461538  0.250000      8.000000
  0.230769  0.461538  0.250000      8.000000
  0.307692  0.461538  0.250000      8.000000
  0.384615  0.461538  0.250000      8.000000
  0.461538  0.461538  0.250000      8.000000
  0.000000  0.000000  0.500000      1.000000
  0.076923  0.000000  0.500000      2.000000
  0.153846  0.000000  0.500000      2.000000
  0.230769  0.000000  0.500000      2.000000
  0.307692  0.000000  0.500000      2.000000
  0.384615  0.000000  0.500000      2.000000
  0.461538  0.000000  0.500000      2.000000
  0.000000  0.076923  0.500000      2.000000
  0.076923  0.076923  0.500000      4.000000
  0.153846  0.076923  0.500000      4.000000
  0.230769  0.076923  0.500000      4.000000
  0.307692  0.076923  0.500000      4.000000
  0.384615  0.076923  0.500000      4.000000
  0.461538  0.076923  0.500000      4.000000
  0.000000  0.153846  0.500000      2.000000
  0.076923  0.153846  0.500000      4.000000
  0.153846  0.153846  0.500000      4.000000
  0.230769  0.153846  0.500000      4.000000
  0.307692  0.153846  0.500000      4.000000
  0.384615  0.153846  0.500000      4.000000
  0.461538  0.153846  0.500000      4.000000
  0.000000  0.230769  0.500000      2.000000
  0.076923  0.230769  0.500000      4.000000
  0.153846  0.230769  0.500000      4.000000
  0.230769  0.230769  0.500000      4.000000
  0.307692  0.230769  0.500000      4.000000
  0.384615  0.230769  0.500000      4.000000
  0.461538  0.230769  0.500000      4.000000
  0.000000  0.307692  0.500000      2.000000
  0.076923  0.307692  0.500000      4.000000
  0.153846  0.307692  0.500000      4.000000
  0.230769  0.307692  0.500000      4.000000
  0.307692  0.307692  0.500000      4.000000
  0.384615  0.307692  0.500000      4.000000
  0.461538  0.307692  0.500000      4.000000
  0.000000  0.384615  0.500000      2.000000
  0.076923  0.384615  0.500000      4.000000
  0.153846  0.384615  0.500000      4.000000
  0.230769  0.384615  0.500000      4.000000
  0.307692  0.384615  0.500000      4.000000
  0.384615  0.384615  0.500000      4.000000
  0.461538  0.384615  0.500000      4.000000
  0.000000  0.461538  0.500000      2.000000
  0.076923  0.461538  0.500000      4.000000
  0.153846  0.461538  0.500000      4.000000
  0.230769  0.461538  0.500000      4.000000
  0.307692  0.461538  0.500000      4.000000
  0.384615  0.461538  0.500000      4.000000
  0.461538  0.461538  0.500000      4.000000
 
 Following cartesian coordinates:
            Coordinates               Weight
  0.000000  0.000000  0.000000      1.000000
  0.020745  0.000000  0.000000      2.000000
  0.041490  0.000000  0.000000      2.000000
  0.062235  0.000000  0.000000      2.000000
  0.082980  0.000000  0.000000      2.000000
  0.103725  0.000000  0.000000      2.000000
  0.124470  0.000000  0.000000      2.000000
  0.000000  0.020747  0.000000      2.000000
  0.020745  0.020747  0.000000      4.000000
  0.041490  0.020747  0.000000      4.000000
  0.062235  0.020747  0.000000      4.000000
  0.082980  0.020747  0.000000      4.000000
  0.103725  0.020747  0.000000      4.000000
  0.124470  0.020747  0.000000      4.000000
  0.000000  0.041494  0.000000      2.000000
  0.020745  0.041494  0.000000      4.000000
  0.041490  0.041494  0.000000      4.000000
  0.062235  0.041494  0.000000      4.000000
  0.082980  0.041494  0.000000      4.000000
  0.103725  0.041494  0.000000      4.000000
  0.124470  0.041494  0.000000      4.000000
  0.000000  0.062241  0.000000      2.000000
  0.020745  0.062241  0.000000      4.000000
  0.041490  0.062241  0.000000      4.000000
  0.062235  0.062241  0.000000      4.000000
  0.082980  0.062241  0.000000      4.000000
  0.103725  0.062241  0.000000      4.000000
  0.124470  0.062241  0.000000      4.000000
  0.000000  0.082988  0.000000      2.000000
  0.020745  0.082988  0.000000      4.000000
  0.041490  0.082988  0.000000      4.000000
  0.062235  0.082988  0.000000      4.000000
  0.082980  0.082988  0.000000      4.000000
  0.103725  0.082988  0.000000      4.000000
  0.124470  0.082988  0.000000      4.000000
  0.000000  0.103735  0.000000      2.000000
  0.020745  0.103735  0.000000      4.000000
  0.041490  0.103735  0.000000      4.000000
  0.062235  0.103735  0.000000      4.000000
  0.082980  0.103735  0.000000      4.000000
  0.103725  0.103735  0.000000      4.000000
  0.124470  0.103735  0.000000      4.000000
  0.000000  0.124482  0.000000      2.000000
  0.020745  0.124482  0.000000      4.000000
  0.041490  0.124482  0.000000      4.000000
  0.062235  0.124482  0.000000      4.000000
  0.082980  0.124482  0.000000      4.000000
  0.103725  0.124482  0.000000      4.000000
  0.124470  0.124482  0.000000      4.000000
  0.000000  0.000000  0.022318      2.000000
  0.020745  0.000000  0.022318      4.000000
  0.041490  0.000000  0.022318      4.000000
  0.062235  0.000000  0.022318      4.000000
  0.082980  0.000000  0.022318      4.000000
  0.103725  0.000000  0.022318      4.000000
  0.124470  0.000000  0.022318      4.000000
  0.000000  0.020747  0.022318      4.000000
  0.020745  0.020747  0.022318      8.000000
  0.041490  0.020747  0.022318      8.000000
  0.062235  0.020747  0.022318      8.000000
  0.082980  0.020747  0.022318      8.000000
  0.103725  0.020747  0.022318      8.000000
  0.124470  0.020747  0.022318      8.000000
  0.000000  0.041494  0.022318      4.000000
  0.020745  0.041494  0.022318      8.000000
  0.041490  0.041494  0.022318      8.000000
  0.062235  0.041494  0.022318      8.000000
  0.082980  0.041494  0.022318      8.000000
  0.103725  0.041494  0.022318      8.000000
  0.124470  0.041494  0.022318      8.000000
  0.000000  0.062241  0.022318      4.000000
  0.020745  0.062241  0.022318      8.000000
  0.041490  0.062241  0.022318      8.000000
  0.062235  0.062241  0.022318      8.000000
  0.082980  0.062241  0.022318      8.000000
  0.103725  0.062241  0.022318      8.000000
  0.124470  0.062241  0.022318      8.000000
  0.000000  0.082988  0.022318      4.000000
  0.020745  0.082988  0.022318      8.000000
  0.041490  0.082988  0.022318      8.000000
  0.062235  0.082988  0.022318      8.000000
  0.082980  0.082988  0.022318      8.000000
  0.103725  0.082988  0.022318      8.000000
  0.124470  0.082988  0.022318      8.000000
  0.000000  0.103735  0.022318      4.000000
  0.020745  0.103735  0.022318      8.000000
  0.041490  0.103735  0.022318      8.000000
  0.062235  0.103735  0.022318      8.000000
  0.082980  0.103735  0.022318      8.000000
  0.103725  0.103735  0.022318      8.000000
  0.124470  0.103735  0.022318      8.000000
  0.000000  0.124482  0.022318      4.000000
  0.020745  0.124482  0.022318      8.000000
  0.041490  0.124482  0.022318      8.000000
  0.062235  0.124482  0.022318      8.000000
  0.082980  0.124482  0.022318      8.000000
  0.103725  0.124482  0.022318      8.000000
  0.124470  0.124482  0.022318      8.000000
  0.000000  0.000000  0.044637      1.000000
  0.020745  0.000000  0.044637      2.000000
  0.041490  0.000000  0.044637      2.000000
  0.062235  0.000000  0.044637      2.000000
  0.082980  0.000000  0.044637      2.000000
  0.103725  0.000000  0.044637      2.000000
  0.124470  0.000000  0.044637      2.000000
  0.000000  0.020747  0.044637      2.000000
  0.020745  0.020747  0.044637      4.000000
  0.041490  0.020747  0.044637      4.000000
  0.062235  0.020747  0.044637      4.000000
  0.082980  0.020747  0.044637      4.000000
  0.103725  0.020747  0.044637      4.000000
  0.124470  0.020747  0.044637      4.000000
  0.000000  0.041494  0.044637      2.000000
  0.020745  0.041494  0.044637      4.000000
  0.041490  0.041494  0.044637      4.000000
  0.062235  0.041494  0.044637      4.000000
  0.082980  0.041494  0.044637      4.000000
  0.103725  0.041494  0.044637      4.000000
  0.124470  0.041494  0.044637      4.000000
  0.000000  0.062241  0.044637      2.000000
  0.020745  0.062241  0.044637      4.000000
  0.041490  0.062241  0.044637      4.000000
  0.062235  0.062241  0.044637      4.000000
  0.082980  0.062241  0.044637      4.000000
  0.103725  0.062241  0.044637      4.000000
  0.124470  0.062241  0.044637      4.000000
  0.000000  0.082988  0.044637      2.000000
  0.020745  0.082988  0.044637      4.000000
  0.041490  0.082988  0.044637      4.000000
  0.062235  0.082988  0.044637      4.000000
  0.082980  0.082988  0.044637      4.000000
  0.103725  0.082988  0.044637      4.000000
  0.124470  0.082988  0.044637      4.000000
  0.000000  0.103735  0.044637      2.000000
  0.020745  0.103735  0.044637      4.000000
  0.041490  0.103735  0.044637      4.000000
  0.062235  0.103735  0.044637      4.000000
  0.082980  0.103735  0.044637      4.000000
  0.103725  0.103735  0.044637      4.000000
  0.124470  0.103735  0.044637      4.000000
  0.000000  0.124482  0.044637      2.000000
  0.020745  0.124482  0.044637      4.000000
  0.041490  0.124482  0.044637      4.000000
  0.062235  0.124482  0.044637      4.000000
  0.082980  0.124482  0.044637      4.000000
  0.103725  0.124482  0.044637      4.000000
  0.124470  0.124482  0.044637      4.000000
 


--------------------------------------------------------------------------------------------------------




 Dimension of arrays:
   k-points           NKPTS =    147   k-points in BZ     NKDIM =    147   number of bands    NBANDS=    128
   number of dos      NEDOS =    301   number of ions     NIONS =     12
   non local maximal  LDIM  =      6   non local SUM 2l+1 LMDIM =     18
   total plane-waves  NPLWV =  65856
   max r-space proj   IRMAX =      1   max aug-charges    IRDMAX=  26097
   dimension x,y,z NGX =    28 NGY =   28 NGZ =   84
   dimension x,y,z NGXF=    56 NGYF=   56 NGZF=  168
   support grid    NGXF=    56 NGYF=   56 NGZF=  168
   ions per type =               9   3
   NGX,Y,Z   is equivalent  to a cutoff of  12.55, 12.55, 12.47 a.u.
   NGXF,Y,Z  is equivalent  to a cutoff of  25.11, 25.11, 24.93 a.u.

 SYSTEM =  unknown system                          
 POSCAR =  Fe9 Pt3                                 

 Startparameter for this run:
   NWRITE =      2    write-flag & timer
   PREC   = accura    normal or accurate (medium, high low for compatibility)
   ISTART =      0    job   : 0-new  1-cont  2-samecut
   ICHARG =      2    charge: 1-file 2-atom 10-const
   ISPIN  =      2    spin polarized calculation?
   LNONCOLLINEAR =      F non collinear calculations
   LSORBIT =      F    spin-orbit coupling
   INIWAV =      1    electr: 0-lowe 1-rand  2-diag
   LASPH  =      F    aspherical Exc in radial PAW
 Electronic Relaxation 1
   ENCUT  =  520.0 eV  38.22 Ry    6.18 a.u.   6.89  6.89 20.83*2*pi/ulx,y,z
   ENINI  =  520.0     initial cutoff
   ENAUG  =  578.3 eV  augmentation charge cutoff
   NELM   =    200;   NELMIN=  2; NELMDL=  0     # of ELM steps 
   EDIFF  = 0.1E-05   stopping-criterion for ELM
   LREAL  =      F    real-space projection
   NLSPLINE    = F    spline interpolate recip. space projectors
   LCOMPAT=      F    compatible to vasp.4.4
   GGA_COMPAT  = T    GGA compatible to vasp.4.4-vasp.4.6
   LMAXPAW     = -100 max onsite density
   LMAXMIX     =    2 max onsite mixed and CHGCAR
   VOSKOWN=      0    Vosko Wilk Nusair interpolation
   ROPT   =    0.00000   0.00000
 Ionic relaxation
   EDIFFG = -.1E-01   stopping-criterion for IOM
   NSW    =      0    number of steps for IOM
   NBLOCK =      1;   KBLOCK =      1    inner block; outer block 
   IBRION =     -1    ionic relax: 0-MD 1-quasi-New 2-CG
   NFREE  =      0    steps in history (QN), initial steepest desc. (CG)
   ISIF   =      4    stress and relaxation
   IWAVPR =     10    prediction:  0-non 1-charg 2-wave 3-comb
   ISYM   =      2    0-nonsym 1-usesym 2-fastsym
   LCORR  =      T    Harris-Foulkes like correction to forces

   POTIM  = 0.5000    time-step for ionic-motion
   TEIN   =    0.0    initial temperature
   TEBEG  =    0.0;   TEEND  =   0.0 temperature during run
   SMASS  =  -3.00    Nose mass-parameter (am)
   estimated Nose-frequenzy (Omega)   =  0.10E-29 period in steps = 0.13E+47 mass=  -0.314E-27a.u.
   SCALEE = 1.0000    scale energy and forces
   NPACO  =    256;   APACO  = 10.0  distance and # of slots for P.C.
   PSTRESS=    0.0 pullay stress

  Mass of Ions in am
   POMASS =  55.85195.08
  Ionic Valenz
   ZVAL   =  14.00 10.00
  Atomic Wigner-Seitz radii
   RWIGS  =  -1.00 -1.00
  virtual crystal weights 
   VCA    =   1.00  1.00
   NELECT =     156.0000    total number of electrons
   NUPDOWN=      -1.0000    fix difference up-down

 DOS related values:
   EMIN   =  10.00;   EMAX   =-10.00  energy-range for DOS
   EFERMI =   0.00;   METHOD = LEGACY      
   ISMEAR =    -5;   SIGMA  =   0.20  broadening in eV -4-tet -1-fermi 0-gaus

 Electronic relaxation 2 (details)
   IALGO  =     38    algorithm
   LDIAG  =      T    sub-space diagonalisation (order eigenvalues)
   LSUBROT=      F    optimize rotation matrix (better conditioning)
   TURBO    =      0    0=normal 1=particle mesh
   IRESTART =      0    0=no restart 2=restart with 2 vectors
   NREBOOT  =      0    no. of reboots
   NMIN     =      0    reboot dimension
   EREF     =   0.00    reference energy to select bands
   IMIX   =      4    mixing-type and parameters
     AMIX     =   0.40;   BMIX     =  1.00
     AMIX_MAG =   1.60;   BMIX_MAG =  1.00
     AMIN     =   0.10
     WC   =   100.;   INIMIX=   1;  MIXPRE=   1;  MAXMIX= -45

 Intra band minimization:
   WEIMIN = 0.0000     energy-eigenvalue tresh-hold
   EBREAK =  0.20E-08  absolut break condition
   DEPER  =   0.30     relativ break condition  

   TIME   =   0.40     timestep for ELM

  volume/ion in A,a.u.               =      12.83        86.60
  Fermi-wavevector in a.u.,A,eV,Ry     =   1.644155  3.107003 36.779896  2.703246
  Thomas-Fermi vector in A             =   2.734169
 
 Write flags
   LWAVE        =      F    write WAVECAR
   LDOWNSAMPLE  =      F    k-point downsampling of WAVECAR
   LCHARG       =      T    write CHGCAR
   LVTOT        =      F    write LOCPOT, total local potential
   LVHAR        =      F    write LOCPOT, Hartree potential only
   WRT_POTENTIAL= false  ! write potential to hdf5 file
   LELF         =      F    write electronic localiz. function (ELF)
   LORBIT       =     11    0 simple, 1 ext, 2 COOP (PROOUT), +10 PAW based schemes


 Dipole corrections
   LMONO      =      F    monopole corrections only (constant potential shift)
   LDIPOL     =      F    correct potential (dipole corrections)
   IDIPOL     =      0    1-x, 2-y, 3-z, 4-all directions 
   EPSILON    =  1.0000000 bulk dielectric constant
   LVACPOTAV  =      F  vacuum potentials using an averaging scheme for the charge density
   VACPOTFLAT =  0.1000000 required flatness to determine vacuum potential
 Exchange correlation treatment:
   GGA     = PE    functional components
   XC_C    = 1    coefficients multiplying the functional components
   LIBXC   =     F    Libxc                    
   VOSKOWN =     0    Vosko Wilk Nusair interpolation
   LHFCALC =     F    Hartree Fock is set to
   LHFONE  =     F    Hartree Fock one center treatment
   AEXX    =    0.0000 exact exchange contribution

 Parameters of functionals:
   PE:
     No parameter
 
 Van der Waals corrections
   IVDW    =     0    specifies the selected vdW correction

 Linear response parameters
   LEPSILON=     F    determine dielectric tensor
   LRPA    =     F    only Hartree local field effects (RPA)
   LNABLA  =     F    use nabla operator in PAW spheres
   LVEL    =     F    velocity operator in full k-point grid
   CSHIFT  =0.1000    complex shift for real part using Kramers Kronig
   OMEGAMAX=  -1.0    maximum frequency
   DEG_THRESHOLD= 0.2000000E-02 threshold for treating states as degnerate
   RTIME   =   -0.100 relaxation time in fs
  (WPLASMAI=    0.000 imaginary part of plasma frequency in eV, 0.658/RTIME)
   DFIELD  = 0.0000000 0.0000000 0.0000000 field for delta impulse in time
 
  Optional k-point grid parameters
   LKPOINTS_OPT  =     F    use optional k-point grid
   KPOINTS_OPT_MODE=     1    mode for optional k-point grid
 
 Orbital magnetization related:
   ORBITALMAG=     F  switch on orbital magnetization
   LCHIMAG   =     F  perturbation theory with respect to B field
   DQ        =  0.001000  dq finite difference perturbation B field
   LLRAUG    =     F  two centre corrections for induced B field
   LBONE     =     F  B-component reconstruction in AE one-centre
   LVGVCALC  =     T  calculate vGv susceptibility
   LVGVAPPL  =     F  apply vGv susceptibility instead of pGv for G=0

 Random number generation:
   RANDOM_GENERATOR = DEFAULT
   PCG_SEED         = not used


--------------------------------------------------------------------------------------------------------


 Static calculation
 charge density and potential will be updated during run
 spin polarized calculation
 Variant of blocked Davidson
 Davidson routine will perform the subspace rotation
 perform sub-space diagonalisation
    after iterative eigenvector-optimisation
 modified Broyden-mixing scheme, WC =      100.0
 initial mixing is a Kerker type mixing with AMIX =  0.4000 and BMIX =      1.0000
 Hartree-type preconditioning will be used
 using additional bands           50
 reciprocal scheme for non local part
 use partial core corrections
 calculate Harris-corrections to forces 
   (improved forces if not selfconsistent)
 use gradient corrections 
 use of overlap-Matrix (Vanderbilt PP)
 Fermi weights with tetrahedron method with Bloechl corrections


--------------------------------------------------------------------------------------------------------


  energy-cutoff  :      520.00
  volume of cell :      154.00
      direct lattice vectors                 reciprocal lattice vectors
     3.708037700  0.000000000  0.000000000     0.269684421  0.000000000  0.000000000
     0.000000000  3.707671765  0.000000000     0.000000000  0.269711038  0.000000000
     0.000000000  0.000000000 11.201477222     0.000000000  0.000000000  0.089273940

  length of vectors
     3.708037700  3.707671765 11.201477222     0.269684421  0.269711038  0.089273940


 
 k-points in units of 2pi/SCALE and weight: pymatgen with grid density = 8800 / numb
   0.00000000  0.00000000  0.00000000       0.001
   0.02074496  0.00000000  0.00000000       0.003
   0.04148991  0.00000000  0.00000000       0.003
   0.06223487  0.00000000  0.00000000       0.003
   0.08297982  0.00000000  0.00000000       0.003
   0.10372478  0.00000000  0.00000000       0.003
   0.12446973  0.00000000  0.00000000       0.003
   0.00000000  0.02074700  0.00000000       0.003
   0.02074496  0.02074700  0.00000000       0.006
   0.04148991  0.02074700  0.00000000       0.006
   0.06223487  0.02074700  0.00000000       0.006
   0.08297982  0.02074700  0.00000000       0.006
   0.10372478  0.02074700  0.00000000       0.006
   0.12446973  0.02074700  0.00000000       0.006
   0.00000000  0.04149401  0.00000000       0.003
   0.02074496  0.04149401  0.00000000       0.006
   0.04148991  0.04149401  0.00000000       0.006
   0.06223487  0.04149401  0.00000000       0.006
   0.08297982  0.04149401  0.00000000       0.006
   0.10372478  0.04149401  0.00000000       0.006
   0.12446973  0.04149401  0.00000000       0.006
   0.00000000  0.06224101  0.00000000       0.003
   0.02074496  0.06224101  0.00000000       0.006
   0.04148991  0.06224101  0.00000000       0.006
   0.06223487  0.06224101  0.00000000       0.006
   0.08297982  0.06224101  0.00000000       0.006
   0.10372478  0.06224101  0.00000000       0.006
   0.12446973  0.06224101  0.00000000       0.006
   0.00000000  0.08298801  0.00000000       0.003
   0.02074496  0.08298801  0.00000000       0.006
   0.04148991  0.08298801  0.00000000       0.006
   0.06223487  0.08298801  0.00000000       0.006
   0.08297982  0.08298801  0.00000000       0.006
   0.10372478  0.08298801  0.00000000       0.006
   0.12446973  0.08298801  0.00000000       0.006
   0.00000000  0.10373501  0.00000000       0.003
   0.02074496  0.10373501  0.00000000       0.006
   0.04148991  0.10373501  0.00000000       0.006
   0.06223487  0.10373501  0.00000000       0.006
   0.08297982  0.10373501  0.00000000       0.006
   0.10372478  0.10373501  0.00000000       0.006
   0.12446973  0.10373501  0.00000000       0.006
   0.00000000  0.12448202  0.00000000       0.003
   0.02074496  0.12448202  0.00000000       0.006
   0.04148991  0.12448202  0.00000000       0.006
   0.06223487  0.12448202  0.00000000       0.006
   0.08297982  0.12448202  0.00000000       0.006
   0.10372478  0.12448202  0.00000000       0.006
   0.12446973  0.12448202  0.00000000       0.006
   0.00000000  0.00000000  0.02231848       0.003
   0.02074496  0.00000000  0.02231848       0.006
   0.04148991  0.00000000  0.02231848       0.006
   0.06223487  0.00000000  0.02231848       0.006
   0.08297982  0.00000000  0.02231848       0.006
   0.10372478  0.00000000  0.02231848       0.006
   0.12446973  0.00000000  0.02231848       0.006
   0.00000000  0.02074700  0.02231848       0.006
   0.02074496  0.02074700  0.02231848       0.012
   0.04148991  0.02074700  0.02231848       0.012
   0.06223487  0.02074700  0.02231848       0.012
   0.08297982  0.02074700  0.02231848       0.012
   0.10372478  0.02074700  0.02231848       0.012
   0.12446973  0.02074700  0.02231848       0.012
   0.00000000  0.04149401  0.02231848       0.006
   0.02074496  0.04149401  0.02231848       0.012
   0.04148991  0.04149401  0.02231848       0.012
   0.06223487  0.04149401  0.02231848       0.012
   0.08297982  0.04149401  0.02231848       0.012
   0.10372478  0.04149401  0.02231848       0.012
   0.12446973  0.04149401  0.02231848       0.012
   0.00000000  0.06224101  0.02231848       0.006
   0.02074496  0.06224101  0.02231848       0.012
   0.04148991  0.06224101  0.02231848       0.012
   0.06223487  0.06224101  0.02231848       0.012
   0.08297982  0.06224101  0.02231848       0.012
   0.10372478  0.06224101  0.02231848       0.012
   0.12446973  0.06224101  0.02231848       0.012
   0.00000000  0.08298801  0.02231848       0.006
   0.02074496  0.08298801  0.02231848       0.012
   0.04148991  0.08298801  0.02231848       0.012
   0.06223487  0.08298801  0.02231848       0.012
   0.08297982  0.08298801  0.02231848       0.012
   0.10372478  0.08298801  0.02231848       0.012
   0.12446973  0.08298801  0.02231848       0.012
   0.00000000  0.10373501  0.02231848       0.006
   0.02074496  0.10373501  0.02231848       0.012
   0.04148991  0.10373501  0.02231848       0.012
   0.06223487  0.10373501  0.02231848       0.012
   0.08297982  0.10373501  0.02231848       0.012
   0.10372478  0.10373501  0.02231848       0.012
   0.12446973  0.10373501  0.02231848       0.012
   0.00000000  0.12448202  0.02231848       0.006
   0.02074496  0.12448202  0.02231848       0.012
   0.04148991  0.12448202  0.02231848       0.012
   0.06223487  0.12448202  0.02231848       0.012
   0.08297982  0.12448202  0.02231848       0.012
   0.10372478  0.12448202  0.02231848       0.012
   0.12446973  0.12448202  0.02231848       0.012
   0.00000000  0.00000000  0.04463697       0.001
   0.02074496  0.00000000  0.04463697       0.003
   0.04148991  0.00000000  0.04463697       0.003
   0.06223487  0.00000000  0.04463697       0.003
   0.08297982  0.00000000  0.04463697       0.003
   0.10372478  0.00000000  0.04463697       0.003
   0.12446973  0.00000000  0.04463697       0.003
   0.00000000  0.02074700  0.04463697       0.003
   0.02074496  0.02074700  0.04463697       0.006
   0.04148991  0.02074700  0.04463697       0.006
   0.06223487  0.02074700  0.04463697       0.006
   0.08297982  0.02074700  0.04463697       0.006
   0.10372478  0.02074700  0.04463697       0.006
   0.12446973  0.02074700  0.04463697       0.006
   0.00000000  0.04149401  0.04463697       0.003
   0.02074496  0.04149401  0.04463697       0.006
   0.04148991  0.04149401  0.04463697       0.006
   0.06223487  0.04149401  0.04463697       0.006
   0.08297982  0.04149401  0.04463697       0.006
   0.10372478  0.04149401  0.04463697       0.006
   0.12446973  0.04149401  0.04463697       0.006
   0.00000000  0.06224101  0.04463697       0.003
   0.02074496  0.06224101  0.04463697       0.006
   0.04148991  0.06224101  0.04463697       0.006
   0.06223487  0.06224101  0.04463697       0.006
   0.08297982  0.06224101  0.04463697       0.006
   0.10372478  0.06224101  0.04463697       0.006
   0.12446973  0.06224101  0.04463697       0.006
   0.00000000  0.08298801  0.04463697       0.003
   0.02074496  0.08298801  0.04463697       0.006
   0.04148991  0.08298801  0.04463697       0.006
   0.06223487  0.08298801  0.04463697       0.006
   0.08297982  0.08298801  0.04463697       0.006
   0.10372478  0.08298801  0.04463697       0.006
   0.12446973  0.08298801  0.04463697       0.006
   0.00000000  0.10373501  0.04463697       0.003
   0.02074496  0.10373501  0.04463697       0.006
   0.04148991  0.10373501  0.04463697       0.006
   0.06223487  0.10373501  0.04463697       0.006
   0.08297982  0.10373501  0.04463697       0.006
   0.10372478  0.10373501  0.04463697       0.006
   0.12446973  0.10373501  0.04463697       0.006
   0.00000000  0.12448202  0.04463697       0.003
   0.02074496  0.12448202  0.04463697       0.006
   0.04148991  0.12448202  0.04463697       0.006
   0.06223487  0.12448202  0.04463697       0.006
   0.08297982  0.12448202  0.04463697       0.006
   0.10372478  0.12448202  0.04463697       0.006
   0.12446973  0.12448202  0.04463697       0.006
 
 k-points in reciprocal lattice and weights: pymatgen with grid density = 8800 / numb
   0.00000000  0.00000000  0.00000000       0.001
   0.07692308  0.00000000  0.00000000       0.003
   0.15384615  0.00000000  0.00000000       0.003
   0.23076923  0.00000000  0.00000000       0.003
   0.30769231  0.00000000  0.00000000       0.003
   0.38461538  0.00000000  0.00000000       0.003
   0.46153846  0.00000000  0.00000000       0.003
   0.00000000  0.07692308  0.00000000       0.003
   0.07692308  0.07692308  0.00000000       0.006
   0.15384615  0.07692308  0.00000000       0.006
   0.23076923  0.07692308  0.00000000       0.006
   0.30769231  0.07692308  0.00000000       0.006
   0.38461538  0.07692308  0.00000000       0.006
   0.46153846  0.07692308  0.00000000       0.006
   0.00000000  0.15384615  0.00000000       0.003
   0.07692308  0.15384615  0.00000000       0.006
   0.15384615  0.15384615  0.00000000       0.006
   0.23076923  0.15384615  0.00000000       0.006
   0.30769231  0.15384615  0.00000000       0.006
   0.38461538  0.15384615  0.00000000       0.006
   0.46153846  0.15384615  0.00000000       0.006
   0.00000000  0.23076923  0.00000000       0.003
   0.07692308  0.23076923  0.00000000       0.006
   0.15384615  0.23076923  0.00000000       0.006
   0.23076923  0.23076923  0.00000000       0.006
   0.30769231  0.23076923  0.00000000       0.006
   0.38461538  0.23076923  0.00000000       0.006
   0.46153846  0.23076923  0.00000000       0.006
   0.00000000  0.30769231  0.00000000       0.003
   0.07692308  0.30769231  0.00000000       0.006
   0.15384615  0.30769231  0.00000000       0.006
   0.23076923  0.30769231  0.00000000       0.006
   0.30769231  0.30769231  0.00000000       0.006
   0.38461538  0.30769231  0.00000000       0.006
   0.46153846  0.30769231  0.00000000       0.006
   0.00000000  0.38461538  0.00000000       0.003
   0.07692308  0.38461538  0.00000000       0.006
   0.15384615  0.38461538  0.00000000       0.006
   0.23076923  0.38461538  0.00000000       0.006
   0.30769231  0.38461538  0.00000000       0.006
   0.38461538  0.38461538  0.00000000       0.006
   0.46153846  0.38461538  0.00000000       0.006
   0.00000000  0.46153846  0.00000000       0.003
   0.07692308  0.46153846  0.00000000       0.006
   0.15384615  0.46153846  0.00000000       0.006
   0.23076923  0.46153846  0.00000000       0.006
   0.30769231  0.46153846  0.00000000       0.006
   0.38461538  0.46153846  0.00000000       0.006
   0.46153846  0.46153846  0.00000000       0.006
   0.00000000  0.00000000  0.25000000       0.003
   0.07692308  0.00000000  0.25000000       0.006
   0.15384615  0.00000000  0.25000000       0.006
   0.23076923  0.00000000  0.25000000       0.006
   0.30769231  0.00000000  0.25000000       0.006
   0.38461538  0.00000000  0.25000000       0.006
   0.46153846  0.00000000  0.25000000       0.006
   0.00000000  0.07692308  0.25000000       0.006
   0.07692308  0.07692308  0.25000000       0.012
   0.15384615  0.07692308  0.25000000       0.012
   0.23076923  0.07692308  0.25000000       0.012
   0.30769231  0.07692308  0.25000000       0.012
   0.38461538  0.07692308  0.25000000       0.012
   0.46153846  0.07692308  0.25000000       0.012
   0.00000000  0.15384615  0.25000000       0.006
   0.07692308  0.15384615  0.25000000       0.012
   0.15384615  0.15384615  0.25000000       0.012
   0.23076923  0.15384615  0.25000000       0.012
   0.30769231  0.15384615  0.25000000       0.012
   0.38461538  0.15384615  0.25000000       0.012
   0.46153846  0.15384615  0.25000000       0.012
   0.00000000  0.23076923  0.25000000       0.006
   0.07692308  0.23076923  0.25000000       0.012
   0.15384615  0.23076923  0.25000000       0.012
   0.23076923  0.23076923  0.25000000       0.012
   0.30769231  0.23076923  0.25000000       0.012
   0.38461538  0.23076923  0.25000000       0.012
   0.46153846  0.23076923  0.25000000       0.012
   0.00000000  0.30769231  0.25000000       0.006
   0.07692308  0.30769231  0.25000000       0.012
   0.15384615  0.30769231  0.25000000       0.012
   0.23076923  0.30769231  0.25000000       0.012
   0.30769231  0.30769231  0.25000000       0.012
   0.38461538  0.30769231  0.25000000       0.012
   0.46153846  0.30769231  0.25000000       0.012
   0.00000000  0.38461538  0.25000000       0.006
   0.07692308  0.38461538  0.25000000       0.012
   0.15384615  0.38461538  0.25000000       0.012
   0.23076923  0.38461538  0.25000000       0.012
   0.30769231  0.38461538  0.25000000       0.012
   0.38461538  0.38461538  0.25000000       0.012
   0.46153846  0.38461538  0.25000000       0.012
   0.00000000  0.46153846  0.25000000       0.006
   0.07692308  0.46153846  0.25000000       0.012
   0.15384615  0.46153846  0.25000000       0.012
   0.23076923  0.46153846  0.25000000       0.012
   0.30769231  0.46153846  0.25000000       0.012
   0.38461538  0.46153846  0.25000000       0.012
   0.46153846  0.46153846  0.25000000       0.012
   0.00000000  0.00000000  0.50000000       0.001
   0.07692308  0.00000000  0.50000000       0.003
   0.15384615  0.00000000  0.50000000       0.003
   0.23076923  0.00000000  0.50000000       0.003
   0.30769231  0.00000000  0.50000000       0.003
   0.38461538  0.00000000  0.50000000       0.003
   0.46153846  0.00000000  0.50000000       0.003
   0.00000000  0.07692308  0.50000000       0.003
   0.07692308  0.07692308  0.50000000       0.006
   0.15384615  0.07692308  0.50000000       0.006
   0.23076923  0.07692308  0.50000000       0.006
   0.30769231  0.07692308  0.50000000       0.006
   0.38461538  0.07692308  0.50000000       0.006
   0.46153846  0.07692308  0.50000000       0.006
   0.00000000  0.15384615  0.50000000       0.003
   0.07692308  0.15384615  0.50000000       0.006
   0.15384615  0.15384615  0.50000000       0.006
   0.23076923  0.15384615  0.50000000       0.006
   0.30769231  0.15384615  0.50000000       0.006
   0.38461538  0.15384615  0.50000000       0.006
   0.46153846  0.15384615  0.50000000       0.006
   0.00000000  0.23076923  0.50000000       0.003
   0.07692308  0.23076923  0.50000000       0.006
   0.15384615  0.23076923  0.50000000       0.006
   0.23076923  0.23076923  0.50000000       0.006
   0.30769231  0.23076923  0.50000000       0.006
   0.38461538  0.23076923  0.50000000       0.006
   0.46153846  0.23076923  0.50000000       0.006
   0.00000000  0.30769231  0.50000000       0.003
   0.07692308  0.30769231  0.50000000       0.006
   0.15384615  0.30769231  0.50000000       0.006
   0.23076923  0.30769231  0.50000000       0.006
   0.30769231  0.30769231  0.50000000       0.006
   0.38461538  0.30769231  0.50000000       0.006
   0.46153846  0.30769231  0.50000000       0.006
   0.00000000  0.38461538  0.50000000       0.003
   0.07692308  0.38461538  0.50000000       0.006
   0.15384615  0.38461538  0.50000000       0.006
   0.23076923  0.38461538  0.50000000       0.006
   0.30769231  0.38461538  0.50000000       0.006
   0.38461538  0.38461538  0.50000000       0.006
   0.46153846  0.38461538  0.50000000       0.006
   0.00000000  0.46153846  0.50000000       0.003
   0.07692308  0.46153846  0.50000000       0.006
   0.15384615  0.46153846  0.50000000       0.006
   0.23076923  0.46153846  0.50000000       0.006
   0.30769231  0.46153846  0.50000000       0.006
   0.38461538  0.46153846  0.50000000       0.006
   0.46153846  0.46153846  0.50000000       0.006
 
 position of ions in fractional coordinates (direct lattice) 
   0.00000000  0.50000000  0.16669040
   0.00000000  0.50000000  0.49974145
   0.00000000  0.50000000  0.83357699
   0.50000000  0.50000000  0.99282358
   0.50000000  0.50000000  0.34055689
   0.50000000  0.50000000  0.66660691
   0.50000000  0.00000000  0.16669022
   0.50000000  0.00000000  0.49982247
   0.50000000  0.00000000  0.83349521
   0.00000000  0.00000000  0.00476079
   0.00000000  0.00000000  0.32858864
   0.00000000  0.00000000  0.66664645
 
 position of ions in cartesian coordinates  (Angst):
   0.00000000  1.85383588  1.86717870
   0.00000000  1.85383588  5.59784251
   0.00000000  1.85383588  9.33729364
   1.85401885  1.85383588 11.12109071
   1.85401885  1.85383588  3.81474024
   1.85401885  1.85383588  7.46698209
   1.85401885  0.00000000  1.86717668
   1.85401885  0.00000000  5.59875003
   1.85401885  0.00000000  9.33637759
   0.00000000  0.00000000  0.05332792
   0.00000000  0.00000000  3.68067821
   0.00000000  0.00000000  7.46742501
 


--------------------------------------------------------------------------------------------------------


 k-point     1 :   0.0000 0.0000 0.0000  plane waves:    4121
 k-point     2 :   0.0769 0.0000 0.0000  plane waves:    4123
 k-point     3 :   0.1538 0.0000 0.0000  plane waves:    4116
 k-point     4 :   0.2308 0.0000 0.0000  plane waves:    4120
 k-point     5 :   0.3077 0.0000 0.0000  plane waves:    4138
 k-point     6 :   0.3846 0.0000 0.0000  plane waves:    4150
 k-point     7 :   0.4615 0.0000 0.0000  plane waves:    4158
 k-point     8 :   0.0000 0.0769 0.0000  plane waves:    4123
 k-point     9 :   0.0769 0.0769 0.0000  plane waves:    4105
 k-point    10 :   0.1538 0.0769 0.0000  plane waves:    4124
 k-point    11 :   0.2308 0.0769 0.0000  plane waves:    4136
 k-point    12 :   0.3077 0.0769 0.0000  plane waves:    4128
 k-point    13 :   0.3846 0.0769 0.0000  plane waves:    4143
 k-point    14 :   0.4615 0.0769 0.0000  plane waves:    4153
 k-point    15 :   0.0000 0.1538 0.0000  plane waves:    4116
 k-point    16 :   0.0769 0.1538 0.0000  plane waves:    4124
 k-point    17 :   0.1538 0.1538 0.0000  plane waves:    4118
 k-point    18 :   0.2308 0.1538 0.0000  plane waves:    4151
 k-point    19 :   0.3077 0.1538 0.0000  plane waves:    4151
 k-point    20 :   0.3846 0.1538 0.0000  plane waves:    4149
 k-point    21 :   0.4615 0.1538 0.0000  plane waves:    4159
 k-point    22 :   0.0000 0.2308 0.0000  plane waves:    4120
 k-point    23 :   0.0769 0.2308 0.0000  plane waves:    4136
 k-point    24 :   0.1538 0.2308 0.0000  plane waves:    4151
 k-point    25 :   0.2308 0.2308 0.0000  plane waves:    4162
 k-point    26 :   0.3077 0.2308 0.0000  plane waves:    4161
 k-point    27 :   0.3846 0.2308 0.0000  plane waves:    4157
 k-point    28 :   0.4615 0.2308 0.0000  plane waves:    4146
 k-point    29 :   0.0000 0.3077 0.0000  plane waves:    4136
 k-point    30 :   0.0769 0.3077 0.0000  plane waves:    4126
 k-point    31 :   0.1538 0.3077 0.0000  plane waves:    4153
 k-point    32 :   0.2308 0.3077 0.0000  plane waves:    4162
 k-point    33 :   0.3077 0.3077 0.0000  plane waves:    4168
 k-point    34 :   0.3846 0.3077 0.0000  plane waves:    4158
 k-point    35 :   0.4615 0.3077 0.0000  plane waves:    4171
 k-point    36 :   0.0000 0.3846 0.0000  plane waves:    4150
 k-point    37 :   0.0769 0.3846 0.0000  plane waves:    4143
 k-point    38 :   0.1538 0.3846 0.0000  plane waves:    4149
 k-point    39 :   0.2308 0.3846 0.0000  plane waves:    4157
 k-point    40 :   0.3077 0.3846 0.0000  plane waves:    4158
 k-point    41 :   0.3846 0.3846 0.0000  plane waves:    4164
 k-point    42 :   0.4615 0.3846 0.0000  plane waves:    4165
 k-point    43 :   0.0000 0.4615 0.0000  plane waves:    4158
 k-point    44 :   0.0769 0.4615 0.0000  plane waves:    4153
 k-point    45 :   0.1538 0.4615 0.0000  plane waves:    4159
 k-point    46 :   0.2308 0.4615 0.0000  plane waves:    4146
 k-point    47 :   0.3077 0.4615 0.0000  plane waves:    4171
 k-point    48 :   0.3846 0.4615 0.0000  plane waves:    4165
 k-point    49 :   0.4615 0.4615 0.0000  plane waves:    4142
 k-point    50 :   0.0000 0.0000 0.2500  plane waves:    4150
 k-point    51 :   0.0769 0.0000 0.2500  plane waves:    4137
 k-point    52 :   0.1538 0.0000 0.2500  plane waves:    4129
 k-point    53 :   0.2308 0.0000 0.2500  plane waves:    4128
 k-point    54 :   0.3077 0.0000 0.2500  plane waves:    4145
 k-point    55 :   0.3846 0.0000 0.2500  plane waves:    4136
 k-point    56 :   0.4615 0.0000 0.2500  plane waves:    4151
 k-point    57 :   0.0000 0.0769 0.2500  plane waves:    4137
 k-point    58 :   0.0769 0.0769 0.2500  plane waves:    4133
 k-point    59 :   0.1538 0.0769 0.2500  plane waves:    4135
 k-point    60 :   0.2308 0.0769 0.2500  plane waves:    4136
 k-point    61 :   0.3077 0.0769 0.2500  plane waves:    4133
 k-point    62 :   0.3846 0.0769 0.2500  plane waves:    4141
 k-point    63 :   0.4615 0.0769 0.2500  plane waves:    4148
 k-point    64 :   0.0000 0.1538 0.2500  plane waves:    4129
 k-point    65 :   0.0769 0.1538 0.2500  plane waves:    4135
 k-point    66 :   0.1538 0.1538 0.2500  plane waves:    4136
 k-point    67 :   0.2308 0.1538 0.2500  plane waves:    4139
 k-point    68 :   0.3077 0.1538 0.2500  plane waves:    4152
 k-point    69 :   0.3846 0.1538 0.2500  plane waves:    4151
 k-point    70 :   0.4615 0.1538 0.2500  plane waves:    4153
 k-point    71 :   0.0000 0.2308 0.2500  plane waves:    4128
 k-point    72 :   0.0769 0.2308 0.2500  plane waves:    4136
 k-point    73 :   0.1538 0.2308 0.2500  plane waves:    4139
 k-point    74 :   0.2308 0.2308 0.2500  plane waves:    4152
 k-point    75 :   0.3077 0.2308 0.2500  plane waves:    4156
 k-point    76 :   0.3846 0.2308 0.2500  plane waves:    4162
 k-point    77 :   0.4615 0.2308 0.2500  plane waves:    4152
 k-point    78 :   0.0000 0.3077 0.2500  plane waves:    4146
 k-point    79 :   0.0769 0.3077 0.2500  plane waves:    4131
 k-point    80 :   0.1538 0.3077 0.2500  plane waves:    4151
 k-point    81 :   0.2308 0.3077 0.2500  plane waves:    4155
 k-point    82 :   0.3077 0.3077 0.2500  plane waves:    4156
 k-point    83 :   0.3846 0.3077 0.2500  plane waves:    4157
 k-point    84 :   0.4615 0.3077 0.2500  plane waves:    4157
 k-point    85 :   0.0000 0.3846 0.2500  plane waves:    4136
 k-point    86 :   0.0769 0.3846 0.2500  plane waves:    4141
 k-point    87 :   0.1538 0.3846 0.2500  plane waves:    4150
 k-point    88 :   0.2308 0.3846 0.2500  plane waves:    4164
 k-point    89 :   0.3077 0.3846 0.2500  plane waves:    4158
 k-point    90 :   0.3846 0.3846 0.2500  plane waves:    4155
 k-point    91 :   0.4615 0.3846 0.2500  plane waves:    4159
 k-point    92 :   0.0000 0.4615 0.2500  plane waves:    4151
 k-point    93 :   0.0769 0.4615 0.2500  plane waves:    4148
 k-point    94 :   0.1538 0.4615 0.2500  plane waves:    4153
 k-point    95 :   0.2308 0.4615 0.2500  plane waves:    4151
 k-point    96 :   0.3077 0.4615 0.2500  plane waves:    4157
 k-point    97 :   0.3846 0.4615 0.2500  plane waves:    4159
 k-point    98 :   0.4615 0.4615 0.2500  plane waves:    4170
 k-point    99 :   0.0000 0.0000 0.5000  plane waves:    4154
 k-point   100 :   0.0769 0.0000 0.5000  plane waves:    4146
 k-point   101 :   0.1538 0.0000 0.5000  plane waves:    4148
 k-point   102 :   0.2308 0.0000 0.5000  plane waves:    4138
 k-point   103 :   0.3077 0.0000 0.5000  plane waves:    4136
 k-point   104 :   0.3846 0.0000 0.5000  plane waves:    4126
 k-point   105 :   0.4615 0.0000 0.5000  plane waves:    4142
 k-point   106 :   0.0000 0.0769 0.5000  plane waves:    4146
 k-point   107 :   0.0769 0.0769 0.5000  plane waves:    4146
 k-point   108 :   0.1538 0.0769 0.5000  plane waves:    4130
 k-point   109 :   0.2308 0.0769 0.5000  plane waves:    4132
 k-point   110 :   0.3077 0.0769 0.5000  plane waves:    4138
 k-point   111 :   0.3846 0.0769 0.5000  plane waves:    4144
 k-point   112 :   0.4615 0.0769 0.5000  plane waves:    4156
 k-point   113 :   0.0000 0.1538 0.5000  plane waves:    4144
 k-point   114 :   0.0769 0.1538 0.5000  plane waves:    4130
 k-point   115 :   0.1538 0.1538 0.5000  plane waves:    4138
 k-point   116 :   0.2308 0.1538 0.5000  plane waves:    4134
 k-point   117 :   0.3077 0.1538 0.5000  plane waves:    4136
 k-point   118 :   0.3846 0.1538 0.5000  plane waves:    4152
 k-point   119 :   0.4615 0.1538 0.5000  plane waves:    4158
 k-point   120 :   0.0000 0.2308 0.5000  plane waves:    4142
 k-point   121 :   0.0769 0.2308 0.5000  plane waves:    4132
 k-point   122 :   0.1538 0.2308 0.5000  plane waves:    4134
 k-point   123 :   0.2308 0.2308 0.5000  plane waves:    4136
 k-point   124 :   0.3077 0.2308 0.5000  plane waves:    4144
 k-point   125 :   0.3846 0.2308 0.5000  plane waves:    4156
 k-point   126 :   0.4615 0.2308 0.5000  plane waves:    4158
 k-point   127 :   0.0000 0.3077 0.5000  plane waves:    4136
 k-point   128 :   0.0769 0.3077 0.5000  plane waves:    4136
 k-point   129 :   0.1538 0.3077 0.5000  plane waves:    4136
 k-point   130 :   0.2308 0.3077 0.5000  plane waves:    4144
 k-point   131 :   0.3077 0.3077 0.5000  plane waves:    4164
 k-point   132 :   0.3846 0.3077 0.5000  plane waves:    4166
 k-point   133 :   0.4615 0.3077 0.5000  plane waves:    4162
 k-point   134 :   0.0000 0.3846 0.5000  plane waves:    4126
 k-point   135 :   0.0769 0.3846 0.5000  plane waves:    4144
 k-point   136 :   0.1538 0.3846 0.5000  plane waves:    4152
 k-point   137 :   0.2308 0.3846 0.5000  plane waves:    4156
 k-point   138 :   0.3077 0.3846 0.5000  plane waves:    4166
 k-point   139 :   0.3846 0.3846 0.5000  plane waves:    4158
 k-point   140 :   0.4615 0.3846 0.5000  plane waves:    4166
 k-point   141 :   0.0000 0.4615 0.5000  plane waves:    4142
 k-point   142 :   0.0769 0.4615 0.5000  plane waves:    4156
 k-point   143 :   0.1538 0.4615 0.5000  plane waves:    4158
 k-point   144 :   0.2308 0.4615 0.5000  plane waves:    4158
 k-point   145 :   0.3077 0.4615 0.5000  plane waves:    4162
 k-point   146 :   0.3846 0.4615 0.5000  plane waves:    4164
 k-point   147 :   0.4615 0.4615 0.5000  plane waves:    4150

 maximum and minimum number of plane-waves per node :      4171     4105

 maximum number of plane-waves:      4171
 maximum index in each direction: 
   IXMAX=    6   IYMAX=    6   IZMAX=   20
   IXMIN=   -7   IYMIN=   -7   IZMIN=  -21


 serial   3D FFT for wavefunctions
 parallel 3D FFT for charge:
    minimum data exchange during FFTs selected (reduces bandwidth)


 total amount of memory used by VASP MPI-rank0   299442. kBytes
=======================================================================

   base      :      30000. kBytes
   nonl-proj :     178277. kBytes
   fftplans  :        888. kBytes
   grid      :       6813. kBytes
   one-center:        373. kBytes
   wavefun   :      83091. kBytes
 
     INWAV:  cpu time      0.0001: real time      0.0001
 Broyden mixing: mesh for mixing (old mesh)
   NGX = 13   NGY = 13   NGZ = 41
  (NGX  = 56   NGY  = 56   NGZ  =168)
  gives a total of   6929 points

 initial charge density was supplied:
 charge density of overlapping atoms calculated
 number of electron     156.0000000 magnetization      13.9070000
 keeping initial charge density in first step


--------------------------------------------------------------------------------------------------------


 Maximum index for augmentation-charges         1037 (set IRDMAX)


--------------------------------------------------------------------------------------------------------


 First call to EWALD:  gamma=   0.331
 Maximum number of real-space cells 4x 4x 2
 Maximum number of reciprocal cells 2x 2x 5

    FEWALD:  cpu time      0.0042: real time      0.0043


--------------------------------------- Ionic step        1  -------------------------------------------




--------------------------------------- Iteration      1(   1)  ---------------------------------------


    POTLOK:  cpu time      0.0267: real time      0.0387
    SETDIJ:  cpu time      0.0100: real time      0.0103
     EDDAV:  cpu time     10.3260: real time     10.4175
 BZINTS: Fermi energy:   23.386517;  156.000000 electrons
         Band energy: 0.546727E+03;  BLOECHL correction:   -0.054417
       DOS:  cpu time      0.2334: real time      0.2359
    --------------------------------------------
      LOOP:  cpu time     10.5962: real time     10.7024

 eigenvalue-minimisations  : 75392
 total energy-change (2. order) : 0.1767131E+04  (-0.8458920E+04)
 number of electron     156.0000000 magnetization      13.9070000
 augmentation part      156.0000000 magnetization      13.9070000

 Free energy of the ion-electron system (eV)
  ---------------------------------------------------
  alpha Z        PSCENC =      1105.13071145
  Ewald energy   TEWEN  =    -18163.53897820
  -Hartree energ DENC   =     -5958.44773700
  -exchange      EXHF   =         0.00000000
  -V(xc)+E(xc)   XCENC  =       657.13769509
  PAW double counting   =     20094.54590986   -20818.52619831
  entropy T*S    EENTRO =         0.00000000
  eigenvalues    EBANDS =       546.72711571
  atomic energy  EATOM  =     24304.10294433
  Solvation  Ediel_sol  =         0.00000000
  ---------------------------------------------------
  free energy    TOTEN  =      1767.13146292 eV

  energy without entropy =     1767.13146292  energy(sigma->0) =     1767.13146292


--------------------------------------------------------------------------------------------------------




--------------------------------------- Iteration      1(   2)  ---------------------------------------


     EDDAV:  cpu time     10.2289: real time     10.3208
 BZINTS: Fermi energy:   12.431089;  156.000000 electrons
         Band energy:-0.121479E+04;  BLOECHL correction:   -0.024440
       DOS:  cpu time      0.2300: real time      0.2331
    --------------------------------------------
      LOOP:  cpu time     10.4590: real time     10.5539

 eigenvalue-minimisations  : 75264
 total energy-change (2. order) :-0.1761515E+04  (-0.1671452E+04)
 number of electron     156.0000000 magnetization      13.9070000
 augmentation part      156.0000000 magnetization      13.9070000

 Free energy of the ion-electron system (eV)
  ---------------------------------------------------
  alpha Z        PSCENC =      1105.13071145
  Ewald energy   TEWEN  =    -18163.53897820
  -Hartree energ DENC   =     -5958.44773700
  -exchange      EXHF   =         0.00000000
  -V(xc)+E(xc)   XCENC  =       657.13769509
  PAW double counting   =     20094.54590986   -20818.52619831
  entropy T*S    EENTRO =         0.00000000
  eigenvalues    EBANDS =     -1214.78757417
  atomic energy  EATOM  =     24304.10294433
  Solvation  Ediel_sol  =         0.00000000
  ---------------------------------------------------
  free energy    TOTEN  =         5.61677304 eV

  energy without entropy =        5.61677304  energy(sigma->0) =        5.61677304


--------------------------------------------------------------------------------------------------------




--------------------------------------- Iteration      1(   3)  ---------------------------------------


     EDDAV:  cpu time     12.1928: real time     12.2961
 BZINTS: Fermi energy:   11.858823;  156.000000 electrons
         Band energy:-0.132391E+04;  BLOECHL correction:   -0.031979
       DOS:  cpu time      0.2322: real time      0.2342
    --------------------------------------------
      LOOP:  cpu time     12.4250: real time     12.5303

 eigenvalue-minimisations  : 88704
 total energy-change (2. order) :-0.1091237E+03  (-0.1077001E+03)
 number of electron     156.0000000 magnetization      13.9070000
 augmentation part      156.0000000 magnetization      13.9070000

 Free energy of the ion-electron system (eV)
  ---------------------------------------------------
  alpha Z        PSCENC =      1105.13071145
  Ewald energy   TEWEN  =    -18163.53897820
  -Hartree energ DENC   =     -5958.44773700
  -exchange      EXHF   =         0.00000000
  -V(xc)+E(xc)   XCENC  =       657.13769509
  PAW double counting   =     20094.54590986   -20818.52619831
  entropy T*S    EENTRO =         0.00000000
  eigenvalues    EBANDS =     -1323.91123329
  atomic energy  EATOM  =     24304.10294433
  Solvation  Ediel_sol  =         0.00000000
  ---------------------------------------------------
  free energy    TOTEN  =      -103.50688608 eV

  energy without entropy =     -103.50688608  energy(sigma->0) =     -103.50688608


--------------------------------------------------------------------------------------------------------




--------------------------------------- Iteration      1(   4)  ---------------------------------------


     EDDAV:  cpu time     10.8305: real time     10.9237
 BZINTS: Fermi energy:   11.853841;  156.000000 electrons
         Band energy:-0.132549E+04;  BLOECHL correction:   -0.031937
       DOS:  cpu time      0.2321: real time      0.2341
    --------------------------------------------
      LOOP:  cpu time     11.0626: real time     11.1578

 eigenvalue-minimisations  : 79552
 total energy-change (2. order) :-0.1575105E+01  (-0.1574810E+01)
 number of electron     156.0000000 magnetization      13.9070000
 augmentation part      156.0000000 magnetization      13.9070000

 Free energy of the ion-electron system (eV)
  ---------------------------------------------------
  alpha Z        PSCENC =      1105.13071145
  Ewald energy   TEWEN  =    -18163.53897820
  -Hartree energ DENC   =     -5958.44773700
  -exchange      EXHF   =         0.00000000
  -V(xc)+E(xc)   XCENC  =       657.13769509
  PAW double counting   =     20094.54590986   -20818.52619831
  entropy T*S    EENTRO =         0.00000000
  eigenvalues    EBANDS =     -1325.48633845
  atomic energy  EATOM  =     24304.10294433
  Solvation  Ediel_sol  =         0.00000000
  ---------------------------------------------------
  free energy    TOTEN  =      -105.08199124 eV

  energy without entropy =     -105.08199124  energy(sigma->0) =     -105.08199124


--------------------------------------------------------------------------------------------------------




--------------------------------------- Iteration      1(   5)  ---------------------------------------


     EDDAV:  cpu time     12.9155: real time     13.0250
 BZINTS: Fermi energy:   11.853793;  156.000000 electrons
         Band energy:-0.132552E+04;  BLOECHL correction:   -0.031936
       DOS:  cpu time      0.2291: real time      0.2336
    CHARGE:  cpu time      0.2413: real time      0.2430
    MIXING:  cpu time      0.0067: real time      0.0070
    --------------------------------------------
      LOOP:  cpu time     13.3927: real time     13.5086

 eigenvalue-minimisations  : 92864
 total energy-change (2. order) :-0.3021294E-01  (-0.3021261E-01)
 number of electron     156.0000308 magnetization      13.1526079
 augmentation part       79.2559507 magnetization       9.7933046

 Broyden mixing:
  rms(total) = 0.39133E+01    rms(broyden)= 0.39126E+01
  rms(prec ) = 0.44865E+01
  weight for this iteration     100.00

 Free energy of the ion-electron system (eV)
  ---------------------------------------------------
  alpha Z        PSCENC =      1105.13071145
  Ewald energy   TEWEN  =    -18163.53897820
  -Hartree energ DENC   =     -5958.44773700
  -exchange      EXHF   =         0.00000000
  -V(xc)+E(xc)   XCENC  =       657.13769509
  PAW double counting   =     20094.54590986   -20818.52619831
  entropy T*S    EENTRO =         0.00000000
  eigenvalues    EBANDS =     -1325.51655139
  atomic energy  EATOM  =     24304.10294433
  Solvation  Ediel_sol  =         0.00000000
  ---------------------------------------------------
  free energy    TOTEN  =      -105.11220418 eV

  energy without entropy =     -105.11220418  energy(sigma->0) =     -105.11220418


--------------------------------------------------------------------------------------------------------




--------------------------------------- Iteration      1(   6)  ---------------------------------------


    POTLOK:  cpu time      0.0363: real time      0.0446
    SETDIJ:  cpu time      0.0075: real time      0.0075
     EDDAV:  cpu time     13.0824: real time     13.1810
 BZINTS: Fermi energy:    9.383009;  156.000000 electrons
         Band energy:-0.176357E+04;  BLOECHL correction:   -0.020566
       DOS:  cpu time      0.2403: real time      0.2422
    CHARGE:  cpu time      0.2407: real time      0.2420
    MIXING:  cpu time      0.0035: real time      0.0047
    --------------------------------------------
      LOOP:  cpu time     13.6106: real time     13.7220

 eigenvalue-minimisations  : 93280
[...]
    113      24.6559      0.00000
    114      24.9977      0.00000
    115      25.0606      0.00000
    116      25.3499      0.00000
    117      25.5582      0.00000
    118      26.1246      0.00000
    119      26.4670      0.00000
    120      27.5437      0.00000
    121      27.5974      0.00000
    122      27.6077      0.00000
    123      28.0802      0.00000
    124      28.8575      0.00000
    125      29.0783      0.00000
    126      29.3488      0.00000
    127      29.4935      0.00000
    128      29.9880      0.00000


--------------------------------------------------------------------------------------------------------


 soft charge-density along one line, spin component           1
         0         1         2         3         4         5         6         7         8         9
 total charge-density along one line
 
 soft charge-density along one line, spin component           2
         0         1         2         3         4         5         6         7         8         9
 total charge-density along one line
 
 pseudopotential strength for first ion, spin component:           1
-43.037  -0.000  -0.000   6.800   0.000   0.000  -0.000  -0.000
 -0.000 -43.100  -0.000   0.000   6.826   0.000  -0.000   0.000
 -0.000  -0.000 -43.002   0.000   0.000   6.786   0.000  -0.000
  6.800   0.000   0.000   5.862   0.000   0.000   0.000   0.000
  0.000   6.826   0.000   0.000   5.854   0.000   0.000  -0.000
  0.000   0.000   6.786   0.000   0.000   5.864  -0.000   0.000
 -0.000  -0.000   0.000   0.000   0.000  -0.000  -0.551  -0.000
 -0.000   0.000  -0.000   0.000  -0.000   0.000  -0.000  -0.596
 -0.000  -0.000  -0.000   0.000   0.000  -0.000   0.000  -0.000
 -0.000  -0.000  -0.000   0.000   0.000   0.000  -0.000  -0.000
 -0.000   0.000  -0.000   0.000  -0.000   0.000   0.000   0.000
  0.000  -0.000   0.000   0.000   0.000  -0.000  -1.089  -0.000
 -0.000   0.000  -0.000   0.000  -0.000   0.000  -0.000  -1.133
 -0.000  -0.000   0.000   0.000   0.000  -0.000   0.000  -0.000
 -0.000   0.000  -0.000   0.000   0.000   0.000  -0.000  -0.000
 -0.000   0.000  -0.000   0.000  -0.000   0.000   0.000   0.000
 -0.000   0.000   0.000  -0.000  -0.000   0.000   0.000   0.000
 -0.000   0.000   0.000  -0.000  -0.000   0.000   0.000   0.000
 pseudopotential strength for first ion, spin component:           2
-45.022  -0.000  -0.000   7.636   0.000   0.000  -0.000  -0.000
 -0.000 -45.146  -0.000   0.000   7.684   0.000  -0.000   0.000
 -0.000  -0.000 -44.920   0.000   0.000   7.594   0.000  -0.000
  7.636   0.000   0.000   5.624   0.000   0.000   0.000   0.000
  0.000   7.684   0.000   0.000   5.614   0.000   0.000  -0.000
  0.000   0.000   7.594   0.000   0.000   5.633  -0.000   0.000
 -0.000  -0.000   0.000   0.000   0.000  -0.000  -2.029  -0.000
 -0.000   0.000  -0.000   0.000  -0.000   0.000  -0.000  -2.203
 -0.000  -0.000   0.000   0.000   0.000  -0.000   0.000  -0.000
 -0.000  -0.000  -0.000   0.000   0.000   0.000  -0.000  -0.000
 -0.000   0.000  -0.000   0.000  -0.000   0.000   0.000   0.000
 -0.000  -0.000   0.000   0.000   0.000  -0.000  -2.543  -0.000
 -0.000   0.000  -0.000   0.000  -0.000   0.000  -0.000  -2.714
 -0.000  -0.000   0.000   0.000   0.000  -0.000   0.000  -0.000
 -0.000  -0.000  -0.000   0.000   0.000   0.000  -0.000  -0.000
 -0.000   0.000  -0.000   0.000  -0.000   0.000   0.000   0.000
 -0.000   0.000   0.000  -0.000  -0.000   0.000   0.000   0.000
 -0.000   0.000   0.000  -0.000  -0.000   0.000   0.000   0.000
 total augmentation occupancy for first ion, spin component:           1
  1.991   0.000   0.000  -0.028   0.000   0.000   0.000  -0.000   0.000   0.000   0.000   0.000   0.000   0.000   0.000   0.000
  0.000   1.991   0.000   0.000  -0.029   0.000   0.000   0.000  -0.000   0.000   0.000   0.000   0.000   0.000   0.000  -0.000
  0.000   0.000   1.992   0.000   0.000  -0.028   0.000   0.000   0.000  -0.000   0.000   0.000   0.000   0.000   0.000   0.000
 -0.028   0.000   0.000   0.197   0.000   0.000   0.000  -0.000   0.000   0.000   0.000   0.000   0.000   0.000   0.000   0.000
  0.000  -0.029   0.000   0.000   0.191   0.000   0.000   0.000  -0.000   0.000  -0.000   0.000   0.000   0.000   0.000  -0.000
  0.000   0.000  -0.028   0.000   0.000   0.156   0.000   0.000   0.000  -0.000   0.000   0.000   0.000   0.000   0.000   0.000
  0.000   0.000   0.000   0.000   0.000   0.000   2.710   0.000   0.000   0.000   0.000  -1.418   0.000   0.000   0.000   0.000
 -0.000   0.000   0.000  -0.000   0.000   0.000   0.000   2.636   0.000   0.000   0.000   0.000  -1.771   0.000   0.000   0.000
  0.000  -0.000   0.000   0.000  -0.000   0.000   0.000   0.000   3.229   0.000   0.325   0.000   0.000  -1.780   0.000  -0.282
  0.000   0.000  -0.000   0.000   0.000  -0.000   0.000   0.000   0.000   2.474   0.000   0.000   0.000   0.000  -1.344   0.000
  0.000   0.000   0.000   0.000  -0.000   0.000   0.000   0.000   0.325   0.000   2.860   0.000   0.000  -0.274   0.000  -1.596
  0.000   0.000   0.000   0.000   0.000   0.000  -1.418   0.000   0.000   0.000   0.000   1.597   0.000   0.000   0.000   0.000
  0.000   0.000   0.000   0.000   0.000   0.000   0.000  -1.771   0.000   0.000   0.000   0.000   2.185   0.000   0.000   0.000
  0.000   0.000   0.000   0.000   0.000   0.000   0.000   0.000  -1.780   0.000  -0.274   0.000   0.000   1.694   0.000   0.180
  0.000   0.000   0.000   0.000   0.000   0.000   0.000   0.000   0.000  -1.344   0.000   0.000   0.000   0.000   1.457   0.000
  0.000  -0.000   0.000   0.000  -0.000   0.000   0.000   0.000  -0.282   0.000  -1.596   0.000   0.000   0.180   0.000   1.618
  0.000  -0.000   0.000   0.000   0.000   0.000   0.000   0.000  -0.145   0.000   0.261   0.000   0.000   0.087   0.000  -0.239
  0.000   0.000   0.000   0.000  -0.000   0.000   0.000   0.000   0.015   0.000  -0.010   0.000   0.000  -0.006   0.000   0.009
 total augmentation occupancy for first ion, spin component:           2
  0.002   0.000   0.000   0.008   0.000   0.000   0.000  -0.000   0.000   0.000   0.000   0.000   0.000   0.000   0.000   0.000
  0.000   0.002   0.000   0.000   0.007   0.000   0.000   0.000  -0.000   0.000   0.000   0.000   0.000   0.000   0.000  -0.000
  0.000   0.000   0.002   0.000   0.000   0.007   0.000   0.000   0.000  -0.000   0.000   0.000   0.000   0.000   0.000   0.000
  0.008   0.000   0.000  -0.011   0.000   0.000   0.000  -0.000   0.000   0.000   0.000   0.000   0.000   0.000   0.000   0.000
  0.000   0.007   0.000   0.000  -0.013   0.000   0.000   0.000   0.000   0.000   0.000   0.000   0.000  -0.000   0.000  -0.000
  0.000   0.000   0.007   0.000   0.000  -0.011   0.000   0.000   0.000   0.000   0.000   0.000   0.000   0.000  -0.000   0.000
  0.000   0.000   0.000   0.000   0.000   0.000  -1.843   0.000   0.000   0.000   0.000   0.855   0.000   0.000   0.000   0.000
 -0.000   0.000   0.000  -0.000   0.000   0.000   0.000  -1.647   0.000   0.000   0.000   0.000   0.531   0.000   0.000   0.000
  0.000  -0.000   0.000   0.000   0.000   0.000   0.000   0.000  -2.303   0.000  -0.275   0.000   0.000   1.030   0.000   0.113
  0.000   0.000  -0.000   0.000   0.000   0.000   0.000   0.000   0.000  -1.776   0.000   0.000   0.000   0.000   0.503   0.000
  0.000   0.000   0.000   0.000   0.000   0.000   0.000   0.000  -0.275   0.000  -2.096   0.000   0.000   0.122   0.000   0.759
  0.000   0.000   0.000   0.000   0.000   0.000   0.855   0.000   0.000   0.000   0.000  -0.241   0.000   0.000   0.000   0.000
  0.000   0.000   0.000   0.000   0.000   0.000   0.000   0.531   0.000   0.000   0.000   0.000   0.090   0.000   0.000   0.000
  0.000   0.000   0.000   0.000  -0.000   0.000   0.000   0.000   1.030   0.000   0.122   0.000   0.000  -0.353   0.000  -0.067
  0.000   0.000   0.000   0.000   0.000  -0.000   0.000   0.000   0.000   0.503   0.000   0.000   0.000   0.000   0.108   0.000
  0.000  -0.000   0.000   0.000  -0.000   0.000   0.000   0.000   0.113   0.000   0.759   0.000   0.000  -0.067   0.000  -0.075
  0.000   0.000   0.000   0.000   0.000   0.000   0.000   0.000  -0.004   0.000  -0.057   0.000   0.000  -0.023   0.000   0.022
  0.000  -0.000   0.000   0.000  -0.000   0.000   0.000   0.000  -0.010   0.000   0.001   0.000   0.000   0.002   0.000   0.001


------------------------ aborting loop because EDIFF is reached ----------------------------------------





 total charge

# of ion       s       p       d       tot
------------------------------------------
    1        0.353   6.338   6.026  12.717
    2        0.351   6.331   6.042  12.724
    3        0.350   6.331   6.042  12.723
    4        0.357   6.336   6.023  12.715
    5        0.357   6.336   6.023  12.716
    6        0.349   6.334   6.023  12.706
    7        0.353   6.338   6.026  12.717
    8        0.351   6.331   6.042  12.724
    9        0.350   6.331   6.042  12.723
   10        0.776   0.707   8.027   9.510
   11        0.776   0.707   8.027   9.510
   12        0.767   0.721   8.036   9.523
--------------------------------------------------
tot          5.488  59.141  78.380 143.009



 magnetization (x)

# of ion       s       p       d       tot
------------------------------------------
    1       -0.019  -0.021  -2.337  -2.378
    2        0.002  -0.013   2.638   2.627
    3        0.002  -0.013   2.639   2.628
    4        0.013   0.024   2.526   2.563
    5        0.013   0.024   2.525   2.562
    6       -0.001  -0.013   2.752   2.738
    7       -0.019  -0.021  -2.336  -2.377
    8        0.002  -0.013   2.639   2.628
    9        0.002  -0.013   2.640   2.629
   10       -0.011  -0.019   0.091   0.061
   11       -0.011  -0.019   0.091   0.061
   12       -0.041  -0.108   0.445   0.296
--------------------------------------------------
tot         -0.069  -0.204  14.312  14.039
 
    CHARGE:  cpu time      0.2366: real time      0.2380
    FORLOC:  cpu time      0.0021: real time      0.0021
    FORNL :  cpu time      1.2520: real time      1.2582
    STRESS:  cpu time      7.4194: real time      7.4816
    FORCOR:  cpu time      0.0209: real time      0.0210
    FORHAR:  cpu time      0.0026: real time      0.0027
    MIXING:  cpu time      0.0071: real time      0.0072
    OFIELD:  cpu time      0.0021: real time      0.0025

  FORCE on cell =-STRESS in cart. coord.  units (eV):
  Direction    XX          YY          ZZ          XY          YZ          ZX
  --------------------------------------------------------------------------------------
  Alpha Z  1105.13071  1105.13071  1105.13071
  Ewald   -6048.51328 -6048.56253 -6066.48615    -0.00000    -0.00000    -0.00000
  Hartree  1877.57553  1877.54041  1857.90178    -0.00000    -0.00000    -0.00000
  E(xc)    -943.95339  -943.95334  -943.88458    -0.00000    -0.00000    -0.00000
  Local    1086.88168  1086.99307  1132.06604    -0.00000    -0.00000    -0.00000
  n-local  -218.52310  -218.52301  -219.17275    14.05527     0.18324     0.18675
  augment  1439.93937  1439.93161  1435.70020     0.00000     0.00000     0.00000
  Kinetic  1701.40156  1701.39857  1698.63569     2.84071    -0.39841    -0.39862
  Fock        0.00000     0.00000     0.00000     0.00000     0.00000     0.00000
  -------------------------------------------------------------------------------------
  Total      -0.06092    -0.04450    -0.10904     0.00000     0.00000     0.00000
  in kB      -0.63381    -0.46299    -1.13446     0.00000     0.00000     0.00000
  external pressure =       -0.74 kB  Pullay stress =        0.00 kB


 VOLUME and BASIS-vectors are now :
 -----------------------------------------------------------------------------
  energy-cutoff  :      520.00
  volume of cell :      154.00
      direct lattice vectors                 reciprocal lattice vectors
     3.708037700  0.000000000  0.000000000     0.269684421  0.000000000  0.000000000
     0.000000000  3.707671765  0.000000000     0.000000000  0.269711038  0.000000000
     0.000000000  0.000000000 11.201477222     0.000000000  0.000000000  0.089273940

  length of vectors
     3.708037700  3.707671765 11.201477222     0.269684421  0.269711038  0.089273940


 FORCES acting on ions
    electron-ion (+dipol)            ewald-force                    non-local-force                 convergence-correction
 -----------------------------------------------------------------------------------------------
   -.633E-13 0.111E-11 0.636E+00   0.483E-13 0.147E-13 -.649E+00   -.292E-21 -.309E-21 -.729E-03   -.139E-13 -.338E-13 0.126E-01
   -.750E-13 0.195E-11 0.553E+00   -.289E-13 -.100E-13 -.734E-01   -.188E-18 0.119E-17 -.466E+00   -.122E-13 -.112E-13 0.305E-02
   -.795E-13 0.724E-12 -.102E+01   -.280E-14 -.356E-13 0.552E+00   -.534E-18 0.798E-18 0.465E+00   -.175E-13 -.999E-14 -.165E-01
   0.105E-11 0.129E-11 -.884E+02   -.466E-13 -.413E-13 0.862E+02   -.284E-19 -.197E-19 0.222E+01   -.136E-12 0.936E-13 -.119E-01
   0.107E-11 0.635E-11 0.893E+02   -.509E-13 -.723E-13 -.871E+02   -.282E-18 0.172E-18 -.222E+01   -.168E-12 -.286E-13 0.162E-01
   0.108E-11 0.661E-11 -.120E+01   0.934E-14 -.908E-14 0.120E+01   -.409E-20 0.137E-20 0.426E-02   -.146E-12 0.114E-13 -.474E-02
   0.110E-11 -.377E-13 0.635E+00   -.260E-13 0.107E-13 -.648E+00   -.451E-22 -.756E-21 -.838E-03   -.166E-12 0.331E-13 0.128E-01
   0.110E-11 0.187E-12 0.899E+00   0.294E-13 0.228E-13 -.419E+00   0.178E-18 0.339E-19 -.475E+00   -.136E-12 0.336E-13 0.365E-02
   0.111E-11 -.106E-13 -.137E+01   0.145E-13 0.672E-13 0.901E+00   0.231E-17 -.362E-18 0.474E+00   -.142E-12 0.134E-13 -.171E-01
   -.297E-13 -.982E-13 -.426E+01   0.463E-13 -.745E-14 0.438E+01   -.954E-18 -.288E-18 -.826E-01   0.165E-13 -.287E-13 -.747E-02
   -.319E-13 -.183E-12 0.481E+01   0.568E-13 0.420E-13 -.493E+01   -.114E-17 -.655E-18 0.824E-01   0.483E-14 -.830E-14 0.117E-01
   -.294E-13 -.377E-13 -.653E+00   -.319E-13 -.280E-13 0.657E+00   0.191E-21 -.308E-21 0.181E-02   0.116E-13 -.107E-13 -.355E-02
 -----------------------------------------------------------------------------------------------
   0.619E-11 0.178E-10 0.194E-03   0.173E-13 -.462E-13 -.199E-12   -.645E-18 0.869E-18 0.103E-02   -.904E-12 0.539E-13 -.133E-02
 
 
 POSITION                                       TOTAL-FORCE (eV/Angst)
 -----------------------------------------------------------------------------------
      0.00000      1.85384      1.86718         0.000000      0.000000     -0.001154
      0.00000      1.85384      5.59784         0.000000     -0.000000      0.016928
      0.00000      1.85384      9.33729         0.000000     -0.000000     -0.017782
      1.85402      1.85384     11.12109        -0.000000     -0.000000      0.004942
      1.85402      1.85384      3.81474         0.000000      0.000000     -0.006323
      1.85402      1.85384      7.46698         0.000000      0.000000      0.002704
      1.85402      0.00000      1.86718        -0.000000     -0.000000     -0.001270
      1.85402      0.00000      5.59875        -0.000000     -0.000000      0.009028
      1.85402      0.00000      9.33638        -0.000000     -0.000000     -0.009777
      0.00000      0.00000      0.05333         0.000000     -0.000000      0.029502
      0.00000      0.00000      3.68068         0.000000     -0.000000     -0.029172
      0.00000      0.00000      7.46743         0.000000     -0.000000      0.002372
 -----------------------------------------------------------------------------------
    total drift:                                0.000000      0.000000     -0.000101


--------------------------------------------------------------------------------------------------------



  FREE ENERGIE OF THE ION-ELECTRON SYSTEM (eV)
  ---------------------------------------------------
  free  energy   TOTEN  =       -93.30116199 eV

  energy  without entropy=      -93.30116199  energy(sigma->0) =      -93.30116199
 


--------------------------------------------------------------------------------------------------------


    POTLOK:  cpu time      0.0364: real time      0.0368


--------------------------------------------------------------------------------------------------------


     LOOP+:  cpu time    414.2741: real time    417.9260
 -----------------------------------------------------------------------------
|                                                                             |
|           W    W    AA    RRRRR   N    N  II  N    N   GGGG   !!!           |
|           W    W   A  A   R    R  NN   N  II  NN   N  G    G  !!!           |
|           W    W  A    A  R    R  N N  N  II  N N  N  G       !!!           |
|           W WW W  AAAAAA  RRRRR   N  N N  II  N  N N  G  GGG   !            |
|           WW  WW  A    A  R   R   N   NN  II  N   NN  G    G                |
|           W    W  A    A  R    R  N    N  II  N    N   GGGG   !!!           |
|                                                                             |
|     Tetrahedron method does not include variations of the Fermi             |
|     occupations, so forces and stress will be inaccurate. We suggest        |
|     using a different smearing scheme ISMEAR = 1 or 2 for metals in         |
|     relaxations.                                                            |
|                                                                             |
 -----------------------------------------------------------------------------

    4ORBIT:  cpu time      0.0000: real time      0.0000



 total charge

# of ion       s       p       d       tot
------------------------------------------
    1        0.353   6.338   6.026  12.717
    2        0.351   6.331   6.042  12.724
    3        0.350   6.331   6.042  12.723
    4        0.357   6.336   6.023  12.715
    5        0.357   6.336   6.023  12.716
    6        0.349   6.334   6.023  12.706
    7        0.353   6.338   6.026  12.717
    8        0.351   6.331   6.042  12.724
    9        0.350   6.331   6.042  12.723
   10        0.776   0.707   8.027   9.510
   11        0.776   0.707   8.027   9.510
   12        0.767   0.721   8.036   9.523
--------------------------------------------------
tot          5.488  59.141  78.380 143.009



 magnetization (x)

# of ion       s       p       d       tot
------------------------------------------
    1       -0.019  -0.021  -2.337  -2.378
    2        0.002  -0.013   2.638   2.627
    3        0.002  -0.013   2.639   2.628
    4        0.013   0.024   2.526   2.563
    5        0.013   0.024   2.525   2.562
    6       -0.001  -0.013   2.752   2.738
    7       -0.019  -0.021  -2.336  -2.377
    8        0.002  -0.013   2.639   2.628
    9        0.002  -0.013   2.640   2.629
   10       -0.011  -0.019   0.091   0.061
   11       -0.011  -0.019   0.091   0.061
   12       -0.041  -0.108   0.445   0.296
--------------------------------------------------
tot         -0.069  -0.204  14.312  14.039
 
 BZINTS: Fermi energy:    9.993586;  156.000000 electrons
         Band energy:-0.160883E+04;  BLOECHL correction:   -0.031227

 total amount of memory used by VASP MPI-rank0   299442. kBytes
=======================================================================

   base      :      30000. kBytes
   nonl-proj :     178277. kBytes
   fftplans  :        888. kBytes
   grid      :       6813. kBytes
   one-center:        373. kBytes
   wavefun   :      83091. kBytes
 
  
  
 General timing and accounting informations for this job:
 ========================================================
  
                  Total CPU time used (sec):      443.314
                            User time (sec):      431.219
                          System time (sec):       12.095
                         Elapsed time (sec):      451.589
  
                   Maximum memory used (kb):     1115896.
                   Average memory used (kb):          N/A
  
                          Minor page faults:       280688
                          Major page faults:          536
                 Voluntary context switches:         9485
