  16  16   1   0
  0.2125000E+02  0.6977094E-09  0.6977094E-09  0.7131667E-09  0.5000000E-15
  1.000000000000000E-004
  CAR 
 unknown system                          
     10.45194778    -54.85858614  301      3.04866991      1.00000000
    -54.859  0.0000E+00  0.0000E+00  0.0000E+00  0.0000E+00
    -54.641  0.0000E+00  0.0000E+00  0.0000E+00  0.0000E+00
    -54.423  0.0000E+00  0.0000E+00  0.0000E+00  0.0000E+00
    -54.205  0.0000E+00  0.0000E+00  0.0000E+00  0.0000E+00
    -53.988  0.0000E+00  0.0000E+00  0.0000E+00  0.0000E+00
    -53.770  0.0000E+00  0.0000E+00  0.0000E+00  0.0000E+00
    -53.552  0.0000E+00  0.0000E+00  0.0000E+00  0.0000E+00
    -53.335  0.0000E+00  0.0000E+00  0.0000E+00  0.0000E+00
    -53.117  0.0000E+00  0.0000E+00  0.0000E+00  0.0000E+00
    -52.899  0.0000E+00  0.0000E+00  0.0000E+00  0.0000E+00
    -52.682  0.0000E+00  0.0000E+00  0.0000E+00  0.0000E+00
    -52.464  0.0000E+00  0.0000E+00  0.0000E+00  0.0000E+00
    -52.246  0.0000E+00  0.0000E+00  0.0000E+00  0.0000E+00
    -52.028  0.5164E-05  0.5164E-05  0.1124E-05  0.1124E-05
    -51.811  0.1824E+00  0.1824E+00  0.3971E-01  0.3971E-01
    -51.593  0.2686E+00  0.2686E+00  0.9818E-01  0.9818E-01
    -51.375  0.1039E+00  0.1039E+00  0.1208E+00  0.1208E+00
    -51.158  0.1879E-02  0.1879E-02  0.1212E+00  0.1212E+00
    -50.940  0.0000E+00  0.0000E+00  0.1212E+00  0.1212E+00
    -50.722  0.0000E+00  0.0000E+00  0.1212E+00  0.1212E+00
    -50.505  0.0000E+00  0.0000E+00  0.1212E+00  0.1212E+00
    -50.287  0.0000E+00  0.0000E+00  0.1212E+00  0.1212E+00
    -50.069  0.0000E+00  0.0000E+00  0.1212E+00  0.1212E+00
    -49.851  0.0000E+00  0.0000E+00  0.1212E+00  0.1212E+00
    -49.634  0.0000E+00  0.0000E+00  0.1212E+00  0.1212E+00
    -49.416  0.0000E+00  0.0000E+00  0.1212E+00  0.1212E+00
    -49.198  0.6126E-14  0.6126E-14  0.1212E+00  0.1212E+00
    -48.981  0.1694E-01  0.1694E-01  0.1249E+00  0.1249E+00
    -48.763  0.2513E+00  0.2513E+00  0.1796E+00  0.1796E+00
    -48.545  0.2577E+00  0.2577E+00  0.2357E+00  0.2357E+00
    -48.328  0.3084E-01  0.3084E-01  0.2424E+00  0.2424E+00
    -48.110  0.0000E+00  0.0000E+00  0.2424E+00  0.2424E+00
    -47.892  0.0000E+00  0.0000E+00  0.2424E+00  0.2424E+00
    -47.674  0.0000E+00  0.0000E+00  0.2424E+00  0.2424E+00
    -47.457  0.0000E+00  0.0000E+00  0.2424E+00  0.2424E+00
    -47.239  0.0000E+00  0.0000E+00  0.2424E+00  0.2424E+00
    -47.021  0.0000E+00  0.0000E+00  0.2424E+00  0.2424E+00
    -46.804  0.0000E+00  0.0000E+00  0.2424E+00  0.2424E+00
    -46.586  0.0000E+00  0.0000E+00  0.2424E+00  0.2424E+00
    -46.368  0.0000E+00  0.0000E+00  0.2424E+00  0.2424E+00
    -46.151  0.0000E+00  0.0000E+00  0.2424E+00  0.2424E+00
    -45.933  0.0000E+00  0.0000E+00  0.2424E+00  0.2424E+00
    -45.715  0.0000E+00  0.0000E+00  0.2424E+00  0.2424E+00
    -45.497  0.0000E+00  0.0000E+00  0.2424E+00  0.2424E+00
    -45.280  0.0000E+00  0.0000E+00  0.2424E+00  0.2424E+00
    -45.062  0.0000E+00  0.0000E+00  0.2424E+00  0.2424E+00
    -44.844  0.0000E+00  0.0000E+00  0.2424E+00  0.2424E+00
    -44.627  0.0000E+00  0.0000E+00  0.2424E+00  0.2424E+00
    -44.409  0.0000E+00  0.0000E+00  0.2424E+00  0.2424E+00
    -44.191  0.0000E+00  0.0000E+00  0.2424E+00  0.2424E+00
    -43.973  0.0000E+00  0.0000E+00  0.2424E+00  0.2424E+00
    -43.756  0.0000E+00  0.0000E+00  0.2424E+00  0.2424E+00
    -43.538  0.0000E+00  0.0000E+00  0.2424E+00  0.2424E+00
    -43.320  0.0000E+00  0.0000E+00  0.2424E+00  0.2424E+00
    -43.103  0.0000E+00  0.0000E+00  0.2424E+00  0.2424E+00
    -42.885  0.0000E+00  0.0000E+00  0.2424E+00  0.2424E+00
    -42.667  0.0000E+00  0.0000E+00  0.2424E+00  0.2424E+00
    -42.450  0.0000E+00  0.0000E+00  0.2424E+00  0.2424E+00
    -42.232  0.0000E+00  0.0000E+00  0.2424E+00  0.2424E+00
    -42.014  0.0000E+00  0.0000E+00  0.2424E+00  0.2424E+00
    -41.796  0.0000E+00  0.0000E+00  0.2424E+00  0.2424E+00
    -41.579  0.0000E+00  0.0000E+00  0.2424E+00  0.2424E+00
    -41.361  0.0000E+00  0.0000E+00  0.2424E+00  0.2424E+00
    -41.143  0.0000E+00  0.0000E+00  0.2424E+00  0.2424E+00
    -40.926  0.0000E+00  0.0000E+00  0.2424E+00  0.2424E+00
    -40.708  0.0000E+00  0.0000E+00  0.2424E+00  0.2424E+00
    -40.490  0.0000E+00  0.0000E+00  0.2424E+00  0.2424E+00
    -40.273  0.0000E+00  0.0000E+00  0.2424E+00  0.2424E+00
    -40.055  0.0000E+00  0.0000E+00  0.2424E+00  0.2424E+00
    -39.837  0.0000E+00  0.0000E+00  0.2424E+00  0.2424E+00
    -39.619  0.0000E+00  0.0000E+00  0.2424E+00  0.2424E+00
    -39.402  0.0000E+00  0.0000E+00  0.2424E+00  0.2424E+00
    -39.184  0.0000E+00  0.0000E+00  0.2424E+00  0.2424E+00
    -38.966  0.0000E+00  0.0000E+00  0.2424E+00  0.2424E+00
    -38.749  0.0000E+00  0.0000E+00  0.2424E+00  0.2424E+00
    -38.531  0.0000E+00  0.0000E+00  0.2424E+00  0.2424E+00
    -38.313  0.0000E+00  0.0000E+00  0.2424E+00  0.2424E+00
    -38.096  0.0000E+00  0.0000E+00  0.2424E+00  0.2424E+00
    -37.878  0.0000E+00  0.0000E+00  0.2424E+00  0.2424E+00
    -37.660  0.0000E+00  0.0000E+00  0.2424E+00  0.2424E+00
    -37.442  0.0000E+00  0.0000E+00  0.2424E+00  0.2424E+00
    -37.225  0.0000E+00  0.0000E+00  0.2424E+00  0.2424E+00
    -37.007  0.0000E+00  0.0000E+00  0.2424E+00  0.2424E+00
    -36.789  0.0000E+00  0.0000E+00  0.2424E+00  0.2424E+00
    -36.572  0.0000E+00  0.0000E+00  0.2424E+00  0.2424E+00
    -36.354  0.0000E+00  0.0000E+00  0.2424E+00  0.2424E+00
    -36.136  0.0000E+00  0.0000E+00  0.2424E+00  0.2424E+00
    -35.919  0.0000E+00  0.0000E+00  0.2424E+00  0.2424E+00
    -35.701  0.0000E+00  0.0000E+00  0.2424E+00  0.2424E+00
    -35.483  0.0000E+00  0.0000E+00  0.2424E+00  0.2424E+00
    -35.265  0.0000E+00  0.0000E+00  0.2424E+00  0.2424E+00
    -35.048  0.0000E+00  0.0000E+00  0.2424E+00  0.2424E+00
    -34.830  0.0000E+00  0.0000E+00  0.2424E+00  0.2424E+00
    -34.612  0.0000E+00  0.0000E+00  0.2424E+00  0.2424E+00
    -34.395  0.0000E+00  0.0000E+00  0.2424E+00  0.2424E+00
    -34.177  0.0000E+00  0.0000E+00  0.2424E+00  0.2424E+00
    -33.959  0.0000E+00  0.0000E+00  0.2424E+00  0.2424E+00
    -33.742  0.0000E+00  0.0000E+00  0.2424E+00  0.2424E+00
    -33.524  0.0000E+00  0.0000E+00  0.2424E+00  0.2424E+00
    -33.306  0.0000E+00  0.0000E+00  0.2424E+00  0.2424E+00
    -33.088  0.0000E+00  0.0000E+00  0.2424E+00  0.2424E+00
    -32.871  0.0000E+00  0.0000E+00  0.2424E+00  0.2424E+00
    -32.653  0.0000E+00  0.0000E+00  0.2424E+00  0.2424E+00
    -32.435  0.0000E+00  0.0000E+00  0.2424E+00  0.2424E+00
    -32.218  0.0000E+00  0.0000E+00  0.2424E+00  0.2424E+00
    -32.000  0.0000E+00  0.0000E+00  0.2424E+00  0.2424E+00
    -31.782  0.0000E+00  0.0000E+00  0.2424E+00  0.2424E+00
    -31.564  0.0000E+00  0.0000E+00  0.2424E+00  0.2424E+00
    -31.347  0.0000E+00  0.0000E+00  0.2424E+00  0.2424E+00
    -31.129  0.0000E+00  0.0000E+00  0.2424E+00  0.2424E+00
    -30.911  0.0000E+00  0.0000E+00  0.2424E+00  0.2424E+00
    -30.694  0.0000E+00  0.0000E+00  0.2424E+00  0.2424E+00
    -30.476  0.0000E+00  0.0000E+00  0.2424E+00  0.2424E+00
    -30.258  0.0000E+00  0.0000E+00  0.2424E+00  0.2424E+00
    -30.041  0.0000E+00  0.0000E+00  0.2424E+00  0.2424E+00
    -29.823  0.0000E+00  0.0000E+00  0.2424E+00  0.2424E+00
    -29.605  0.0000E+00  0.0000E+00  0.2424E+00  0.2424E+00
    -29.387  0.0000E+00  0.0000E+00  0.2424E+00  0.2424E+00
    -29.170  0.0000E+00  0.0000E+00  0.2424E+00  0.2424E+00
    -28.952  0.0000E+00  0.0000E+00  0.2424E+00  0.2424E+00
    -28.734  0.0000E+00  0.0000E+00  0.2424E+00  0.2424E+00
    -28.517  0.0000E+00  0.0000E+00  0.2424E+00  0.2424E+00
    -28.299  0.0000E+00  0.0000E+00  0.2424E+00  0.2424E+00
    -28.081  0.0000E+00  0.0000E+00  0.2424E+00  0.2424E+00
    -27.864  0.0000E+00  0.0000E+00  0.2424E+00  0.2424E+00
    -27.646  0.0000E+00  0.0000E+00  0.2424E+00  0.2424E+00
    -27.428  0.0000E+00  0.0000E+00  0.2424E+00  0.2424E+00
    -27.210  0.0000E+00  0.0000E+00  0.2424E+00  0.2424E+00
    -26.993  0.0000E+00  0.0000E+00  0.2424E+00  0.2424E+00
    -26.775  0.0000E+00  0.0000E+00  0.2424E+00  0.2424E+00
    -26.557  0.0000E+00  0.0000E+00  0.2424E+00  0.2424E+00
    -26.340  0.0000E+00  0.0000E+00  0.2424E+00  0.2424E+00
    -26.122  0.0000E+00  0.0000E+00  0.2424E+00  0.2424E+00
    -25.904  0.0000E+00  0.0000E+00  0.2424E+00  0.2424E+00
    -25.687  0.0000E+00  0.0000E+00  0.2424E+00  0.2424E+00
    -25.469  0.0000E+00  0.0000E+00  0.2424E+00  0.2424E+00
    -25.251  0.0000E+00  0.0000E+00  0.2424E+00  0.2424E+00
    -25.033  0.0000E+00  0.0000E+00  0.2424E+00  0.2424E+00
    -24.816  0.0000E+00  0.0000E+00  0.2424E+00  0.2424E+00
    -24.598  0.0000E+00  0.0000E+00  0.2424E+00  0.2424E+00
    -24.380  0.0000E+00  0.0000E+00  0.2424E+00  0.2424E+00
    -24.163  0.0000E+00  0.0000E+00  0.2424E+00  0.2424E+00
    -23.945  0.0000E+00  0.0000E+00  0.2424E+00  0.2424E+00
    -23.727  0.0000E+00  0.0000E+00  0.2424E+00  0.2424E+00
    -23.510  0.0000E+00  0.0000E+00  0.2424E+00  0.2424E+00
    -23.292  0.0000E+00  0.0000E+00  0.2424E+00  0.2424E+00
    -23.074  0.0000E+00  0.0000E+00  0.2424E+00  0.2424E+00
    -22.856  0.0000E+00  0.0000E+00  0.2424E+00  0.2424E+00
    -22.639  0.0000E+00  0.0000E+00  0.2424E+00  0.2424E+00
    -22.421  0.0000E+00  0.0000E+00  0.2424E+00  0.2424E+00
    -22.203  0.0000E+00  0.0000E+00  0.2424E+00  0.2424E+00
    -21.986  0.0000E+00  0.0000E+00  0.2424E+00  0.2424E+00
    -21.768  0.0000E+00  0.0000E+00  0.2424E+00  0.2424E+00
    -21.550  0.0000E+00  0.0000E+00  0.2424E+00  0.2424E+00
    -21.333  0.0000E+00  0.0000E+00  0.2424E+00  0.2424E+00
    -21.115  0.0000E+00  0.0000E+00  0.2424E+00  0.2424E+00
    -20.897  0.0000E+00  0.0000E+00  0.2424E+00  0.2424E+00
    -20.679  0.0000E+00  0.0000E+00  0.2424E+00  0.2424E+00
    -20.462  0.0000E+00  0.0000E+00  0.2424E+00  0.2424E+00
    -20.244  0.0000E+00  0.0000E+00  0.2424E+00  0.2424E+00
    -20.026  0.0000E+00  0.0000E+00  0.2424E+00  0.2424E+00
    -19.809  0.0000E+00  0.0000E+00  0.2424E+00  0.2424E+00
    -19.591  0.0000E+00  0.0000E+00  0.2424E+00  0.2424E+00
    -19.373  0.0000E+00  0.0000E+00  0.2424E+00  0.2424E+00
    -19.155  0.0000E+00  0.0000E+00  0.2424E+00  0.2424E+00
    -18.938  0.0000E+00  0.0000E+00  0.2424E+00  0.2424E+00
    -18.720  0.0000E+00  0.0000E+00  0.2424E+00  0.2424E+00
    -18.502  0.0000E+00  0.0000E+00  0.2424E+00  0.2424E+00
    -18.285  0.0000E+00  0.0000E+00  0.2424E+00  0.2424E+00
    -18.067  0.0000E+00  0.0000E+00  0.2424E+00  0.2424E+00
    -17.849  0.0000E+00  0.0000E+00  0.2424E+00  0.2424E+00
    -17.632  0.0000E+00  0.0000E+00  0.2424E+00  0.2424E+00
    -17.414  0.0000E+00  0.0000E+00  0.2424E+00  0.2424E+00
    -17.196  0.0000E+00  0.0000E+00  0.2424E+00  0.2424E+00
    -16.978  0.0000E+00  0.0000E+00  0.2424E+00  0.2424E+00
    -16.761  0.0000E+00  0.0000E+00  0.2424E+00  0.2424E+00
    -16.543  0.0000E+00  0.0000E+00  0.2424E+00  0.2424E+00
    -16.325  0.0000E+00  0.0000E+00  0.2424E+00  0.2424E+00
    -16.108  0.0000E+00  0.0000E+00  0.2424E+00  0.2424E+00
    -15.890  0.0000E+00  0.0000E+00  0.2424E+00  0.2424E+00
    -15.672  0.0000E+00  0.0000E+00  0.2424E+00  0.2424E+00
    -15.455  0.0000E+00  0.0000E+00  0.2424E+00  0.2424E+00
    -15.237  0.0000E+00  0.0000E+00  0.2424E+00  0.2424E+00
    -15.019  0.0000E+00  0.0000E+00  0.2424E+00  0.2424E+00
    -14.801  0.0000E+00  0.0000E+00  0.2424E+00  0.2424E+00
    -14.584  0.0000E+00  0.0000E+00  0.2424E+00  0.2424E+00
    -14.366  0.0000E+00  0.0000E+00  0.2424E+00  0.2424E+00
    -14.148  0.0000E+00  0.0000E+00  0.2424E+00  0.2424E+00
    -13.931  0.0000E+00  0.0000E+00  0.2424E+00  0.2424E+00
    -13.713  0.0000E+00  0.0000E+00  0.2424E+00  0.2424E+00
    -13.495  0.0000E+00  0.0000E+00  0.2424E+00  0.2424E+00
    -13.278  0.0000E+00  0.0000E+00  0.2424E+00  0.2424E+00
    -13.060  0.0000E+00  0.0000E+00  0.2424E+00  0.2424E+00
    -12.842  0.0000E+00  0.0000E+00  0.2424E+00  0.2424E+00
    -12.624  0.0000E+00  0.0000E+00  0.2424E+00  0.2424E+00
    -12.407  0.0000E+00  0.0000E+00  0.2424E+00  0.2424E+00
    -12.189  0.0000E+00  0.0000E+00  0.2424E+00  0.2424E+00
    -11.971  0.0000E+00  0.0000E+00  0.2424E+00  0.2424E+00
    -11.754  0.0000E+00  0.0000E+00  0.2424E+00  0.2424E+00
    -11.536  0.0000E+00  0.0000E+00  0.2424E+00  0.2424E+00
    -11.318  0.0000E+00  0.0000E+00  0.2424E+00  0.2424E+00
    -11.101  0.1402E-17  0.1402E-17  0.2424E+00  0.2424E+00
    -10.883  0.1715E-04  0.1715E-04  0.2424E+00  0.2424E+00
    -10.665  0.7021E-02  0.7021E-02  0.2440E+00  0.2440E+00
    -10.447  0.1920E-01  0.1920E-01  0.2481E+00  0.2481E+00
    -10.230  0.3217E-01  0.3217E-01  0.2551E+00  0.2551E+00
    -10.012  0.5624E-01  0.5624E-01  0.2674E+00  0.2674E+00
     -9.794  0.1100E+00  0.1100E+00  0.2913E+00  0.2913E+00
     -9.577  0.1131E+00  0.1131E+00  0.3159E+00  0.3159E+00
     -9.359  0.3297E-01  0.3297E-01  0.3231E+00  0.3231E+00
     -9.141  0.4991E-03  0.4991E-03  0.3232E+00  0.3232E+00
     -8.924  0.0000E+00  0.0000E+00  0.3232E+00  0.3232E+00
     -8.706  0.0000E+00  0.0000E+00  0.3232E+00  0.3232E+00
     -8.488  0.0000E+00  0.0000E+00  0.3232E+00  0.3232E+00
     -8.270  0.0000E+00  0.0000E+00  0.3232E+00  0.3232E+00
     -8.053  0.0000E+00  0.0000E+00  0.3232E+00  0.3232E+00
     -7.835  0.0000E+00  0.0000E+00  0.3232E+00  0.3232E+00
     -7.617  0.0000E+00  0.0000E+00  0.3232E+00  0.3232E+00
     -7.400  0.0000E+00  0.0000E+00  0.3232E+00  0.3232E+00
     -7.182  0.0000E+00  0.0000E+00  0.3232E+00  0.3232E+00
     -6.964  0.0000E+00  0.0000E+00  0.3232E+00  0.3232E+00
     -6.746  0.0000E+00  0.0000E+00  0.3232E+00  0.3232E+00
     -6.529  0.0000E+00  0.0000E+00  0.3232E+00  0.3232E+00
     -6.311  0.0000E+00  0.0000E+00  0.3232E+00  0.3232E+00
     -6.093  0.0000E+00  0.0000E+00  0.3232E+00  0.3232E+00
     -5.876  0.0000E+00  0.0000E+00  0.3232E+00  0.3232E+00
     -5.658  0.0000E+00  0.0000E+00  0.3232E+00  0.3232E+00
     -5.440  0.0000E+00  0.0000E+00  0.3232E+00  0.3232E+00
     -5.223  0.0000E+00  0.0000E+00  0.3232E+00  0.3232E+00
     -5.005  0.0000E+00  0.0000E+00  0.3232E+00  0.3232E+00
     -4.787  0.0000E+00  0.0000E+00  0.3232E+00  0.3232E+00
     -4.569  0.0000E+00  0.0000E+00  0.3232E+00  0.3232E+00
     -4.352  0.0000E+00  0.0000E+00  0.3232E+00  0.3232E+00
     -4.134  0.0000E+00  0.0000E+00  0.3232E+00  0.3232E+00
     -3.916  0.0000E+00  0.0000E+00  0.3232E+00  0.3232E+00
     -3.699  0.0000E+00  0.0000E+00  0.3232E+00  0.3232E+00
     -3.481  0.0000E+00  0.0000E+00  0.3232E+00  0.3232E+00
     -3.263  0.0000E+00  0.0000E+00  0.3232E+00  0.3232E+00
     -3.046  0.5256E-19  0.5256E-19  0.3232E+00  0.3232E+00
     -2.828  0.3599E-05  0.3599E-05  0.3232E+00  0.3232E+00
     -2.610  0.2135E-02  0.2135E-02  0.3237E+00  0.3237E+00
     -2.392  0.6864E-02  0.6864E-02  0.3252E+00  0.3252E+00
     -2.175  0.3407E-01  0.3407E-01  0.3326E+00  0.3326E+00
     -1.957  0.8546E-01  0.8546E-01  0.3512E+00  0.3512E+00
     -1.739  0.7625E-01  0.7625E-01  0.3678E+00  0.3678E+00
     -1.522  0.5007E-01  0.5007E-01  0.3787E+00  0.3787E+00
     -1.304  0.8533E-01  0.8533E-01  0.3973E+00  0.3973E+00
     -1.086  0.9252E-01  0.9252E-01  0.4174E+00  0.4174E+00
     -0.869  0.8462E-01  0.8462E-01  0.4359E+00  0.4359E+00
     -0.651  0.1268E+00  0.1268E+00  0.4635E+00  0.4635E+00
     -0.433  0.1017E+00  0.1017E+00  0.4856E+00  0.4856E+00
     -0.215  0.1039E+00  0.1039E+00  0.5082E+00  0.5082E+00
      0.002  0.1105E+00  0.1105E+00  0.5323E+00  0.5323E+00
      0.220  0.7697E-01  0.7697E-01  0.5490E+00  0.5490E+00
      0.438  0.7884E-01  0.7884E-01  0.5662E+00  0.5662E+00
      0.655  0.1072E+00  0.1072E+00  0.5895E+00  0.5895E+00
      0.873  0.1160E+00  0.1160E+00  0.6148E+00  0.6148E+00
      1.091  0.2056E+00  0.2056E+00  0.6595E+00  0.6595E+00
      1.308  0.1679E+00  0.1679E+00  0.6961E+00  0.6961E+00
      1.526  0.9405E-01  0.9405E-01  0.7166E+00  0.7166E+00
      1.744  0.8374E-01  0.8374E-01  0.7348E+00  0.7348E+00
      1.962  0.6107E-01  0.6107E-01  0.7481E+00  0.7481E+00
      2.179  0.5945E-01  0.5945E-01  0.7610E+00  0.7610E+00
      2.397  0.4302E-01  0.4302E-01  0.7704E+00  0.7704E+00
      2.615  0.3803E-01  0.3803E-01  0.7787E+00  0.7787E+00
      2.832  0.5153E-01  0.5153E-01  0.7899E+00  0.7899E+00
      3.050  0.8403E-01  0.8403E-01  0.8082E+00  0.8082E+00
      3.268  0.6670E-01  0.6670E-01  0.8227E+00  0.8227E+00
      3.485  0.1477E+00  0.1477E+00  0.8548E+00  0.8548E+00
      3.703  0.1110E+00  0.1110E+00  0.8790E+00  0.8790E+00
      3.921  0.1155E+00  0.1155E+00  0.9042E+00  0.9042E+00
      4.139  0.9214E-01  0.9214E-01  0.9242E+00  0.9242E+00
      4.356  0.9230E-01  0.9230E-01  0.9443E+00  0.9443E+00
      4.574  0.7097E-01  0.7097E-01  0.9598E+00  0.9598E+00
      4.792  0.1034E-01  0.1034E-01  0.9620E+00  0.9620E+00
      5.009  0.1238E-01  0.1238E-01  0.9647E+00  0.9647E+00
      5.227  0.1277E-01  0.1277E-01  0.9675E+00  0.9675E+00
      5.445  0.9857E-02  0.9857E-02  0.9696E+00  0.9696E+00
      5.663  0.3343E-02  0.3343E-02  0.9704E+00  0.9704E+00
      5.880  0.5769E-02  0.5769E-02  0.9716E+00  0.9716E+00
      6.098  0.6210E-02  0.6210E-02  0.9730E+00  0.9730E+00
      6.316  0.1158E-01  0.1158E-01  0.9755E+00  0.9755E+00
      6.533  0.2290E-01  0.2290E-01  0.9805E+00  0.9805E+00
      6.751  0.3075E-01  0.3075E-01  0.9872E+00  0.9872E+00
      6.969  0.4629E-01  0.4624E-01  0.9973E+00  0.9972E+00
      7.186  0.3875E-01  0.3880E-01  0.1006E+01  0.1006E+01
      7.404  0.1662E-01  0.1662E-01  0.1009E+01  0.1009E+01
      7.622  0.3635E-02  0.3639E-02  0.1010E+01  0.1010E+01
      7.840  0.4493E-07  0.4622E-07  0.1010E+01  0.1010E+01
      8.057  0.0000E+00  0.0000E+00  0.1010E+01  0.1010E+01
      8.275  0.0000E+00  0.0000E+00  0.1010E+01  0.1010E+01
      8.493  0.0000E+00  0.0000E+00  0.1010E+01  0.1010E+01
      8.710  0.0000E+00  0.0000E+00  0.1010E+01  0.1010E+01
      8.928  0.0000E+00  0.0000E+00  0.1010E+01  0.1010E+01
      9.146  0.0000E+00  0.0000E+00  0.1010E+01  0.1010E+01
      9.363  0.0000E+00  0.0000E+00  0.1010E+01  0.1010E+01
      9.581  0.0000E+00  0.0000E+00  0.1010E+01  0.1010E+01
      9.799  0.0000E+00  0.0000E+00  0.1010E+01  0.1010E+01
     10.017  0.0000E+00  0.0000E+00  0.1010E+01  0.1010E+01
     10.234  0.0000E+00  0.0000E+00  0.1010E+01  0.1010E+01
     10.452  0.0000E+00  0.0000E+00  0.1010E+01  0.1010E+01
     10.45194778    -54.85858614  301      3.04866991      1.00000000
    -54.859  0.0000E+00  0.0000E+00  0.0000E+00  0.0000E+00  0.0000E+00  0.0000E+00  0.0000E+00  0.0000E+00  0.0000E+00  0.0000E+00  0.0000E+00  0.0000E+00  0.0000E+00  0.0000E+00  0.0000E+00  0.0000E+00  0.0000E+00  0.0000E+00
    -54.641  0.0000E+00  0.0000E+00  0.0000E+00  0.0000E+00  0.0000E+00  0.0000E+00  0.0000E+00  0.0000E+00  0.0000E+00  0.0000E+00  0.0000E+00  0.0000E+00  0.0000E+00  0.0000E+00  0.0000E+00  0.0000E+00  0.0000E+00  0.0000E+00
    -54.423  0.0000E+00  0.0000E+00  0.0000E+00  0.0000E+00  0.0000E+00  0.0000E+00  0.0000E+00  0.0000E+00  0.0000E+00  0.0000E+00  0.0000E+00  0.0000E+00  0.0000E+00  0.0000E+00  0.0000E+00  0.0000E+00  0.0000E+00  0.0000E+00
    -54.205  0.0000E+00  0.0000E+00  0.0000E+00  0.0000E+00  0.0000E+00  0.0000E+00  0.0000E+00  0.0000E+00  0.0000E+00  0.0000E+00  0.0000E+00  0.0000E+00  0.0000E+00  0.0000E+00  0.0000E+00  0.0000E+00  0.0000E+00  0.0000E+00
    -53.988  0.0000E+00  0.0000E+00  0.0000E+00  0.0000E+00  0.0000E+00  0.0000E+00  0.0000E+00  0.0000E+00  0.0000E+00  0.0000E+00  0.0000E+00  0.0000E+00  0.0000E+00  0.0000E+00  0.0000E+00  0.0000E+00  0.0000E+00  0.0000E+00
    -53.770  0.0000E+00  0.0000E+00  0.0000E+00  0.0000E+00  0.0000E+00  0.0000E+00  0.0000E+00  0.0000E+00  0.0000E+00  0.0000E+00  0.0000E+00  0.0000E+00  0.0000E+00  0.0000E+00  0.0000E+00  0.0000E+00  0.0000E+00  0.0000E+00
    -53.552  0.0000E+00  0.0000E+00  0.0000E+00  0.0000E+00  0.0000E+00  0.0000E+00  0.0000E+00  0.0000E+00  0.0000E+00  0.0000E+00  0.0000E+00  0.0000E+00  0.0000E+00  0.0000E+00  0.0000E+00  0.0000E+00  0.0000E+00  0.0000E+00
    -53.335  0.0000E+00  0.0000E+00  0.0000E+00  0.0000E+00  0.0000E+00  0.0000E+00  0.0000E+00  0.0000E+00  0.0000E+00  0.0000E+00  0.0000E+00  0.0000E+00  0.0000E+00  0.0000E+00  0.0000E+00  0.0000E+00  0.0000E+00  0.0000E+00
    -53.117  0.0000E+00  0.0000E+00  0.0000E+00  0.0000E+00  0.0000E+00  0.0000E+00  0.0000E+00  0.0000E+00  0.0000E+00  0.0000E+00  0.0000E+00  0.0000E+00  0.0000E+00  0.0000E+00  0.0000E+00  0.0000E+00  0.0000E+00  0.0000E+00
    -52.899  0.0000E+00  0.0000E+00  0.0000E+00  0.0000E+00  0.0000E+00  0.0000E+00  0.0000E+00  0.0000E+00  0.0000E+00  0.0000E+00  0.0000E+00  0.0000E+00  0.0000E+00  0.0000E+00  0.0000E+00  0.0000E+00  0.0000E+00  0.0000E+00
    -52.682  0.0000E+00  0.0000E+00  0.0000E+00  0.0000E+00  0.0000E+00  0.0000E+00  0.0000E+00  0.0000E+00  0.0000E+00  0.0000E+00  0.0000E+00  0.0000E+00  0.0000E+00  0.0000E+00  0.0000E+00  0.0000E+00  0.0000E+00  0.0000E+00
    -52.464  0.0000E+00  0.0000E+00  0.0000E+00  0.0000E+00  0.0000E+00  0.0000E+00  0.0000E+00  0.0000E+00  0.0000E+00  0.0000E+00  0.0000E+00  0.0000E+00  0.0000E+00  0.0000E+00  0.0000E+00  0.0000E+00  0.0000E+00  0.0000E+00
    -52.246  0.0000E+00  0.0000E+00  0.0000E+00  0.0000E+00  0.0000E+00  0.0000E+00  0.0000E+00  0.0000E+00  0.0000E+00  0.0000E+00  0.0000E+00  0.0000E+00  0.0000E+00  0.0000E+00  0.0000E+00  0.0000E+00  0.0000E+00  0.0000E+00
    -52.028  0.1676E-14  0.2698E-10  0.4472E-04  0.1266E-08  0.8254E-04  0.7794E-10  0.6983E-13  0.4933E-12  0.5726E-10  0.2801E-13  0.5123E-15  0.4152E-11  0.2082E-14  0.7784E-11  0.1019E-09  0.1773E-14  0.2433E-14  0.3041E-10
    -51.811  0.5800E-08  0.1006E-05  0.1644E+01  0.4700E-04  0.2850E+01  0.2728E-05  0.1700E-02  0.1940E-07  0.2176E-05  0.9933E-09  0.1918E-10  0.1447E-06  0.2713E-08  0.2914E-06  0.3755E-05  0.6354E-10  0.7966E-08  0.1115E-05
    -51.593  0.4517E-04  0.1381E-05  0.2872E+01  0.7512E-04  0.1692E+01  0.1038E-06  0.2055E+01  0.6042E-06  0.3870E-05  0.4462E-07  0.2207E-09  0.1024E-07  0.2063E-04  0.5310E-06  0.2252E-05  0.8731E-10  0.6191E-04  0.1682E-05
    -51.375  0.6675E-04  0.2923E-07  0.5952E-01  0.1578E-05  0.3312E-01  0.1664E-08  0.2472E+01  0.3859E-06  0.7800E-07  0.3525E-07  0.3787E-09  0.1709E-09  0.3054E-04  0.1134E-07  0.4351E-07  0.7937E-10  0.9170E-04  0.3535E-07
    -51.158  0.2241E-06  0.2334E-11  0.4084E-10  0.1396E-09  0.7182E-11  0.1640E-11  0.4642E-01  0.5539E-08  0.7223E-11  0.8159E-09  0.1559E-11  0.3614E-12  0.1024E-06  0.5693E-11  0.2077E-12  0.1402E-11  0.3074E-06  0.1452E-10
    -50.940  0.0000E+00  0.0000E+00  0.0000E+00  0.0000E+00  0.0000E+00  0.0000E+00  0.0000E+00  0.0000E+00  0.0000E+00  0.0000E+00  0.0000E+00  0.0000E+00  0.0000E+00  0.0000E+00  0.0000E+00  0.0000E+00  0.0000E+00  0.0000E+00
    -50.722  0.0000E+00  0.0000E+00  0.0000E+00  0.0000E+00  0.0000E+00  0.0000E+00  0.0000E+00  0.0000E+00  0.0000E+00  0.0000E+00  0.0000E+00  0.0000E+00  0.0000E+00  0.0000E+00  0.0000E+00  0.0000E+00  0.0000E+00  0.0000E+00
    -50.505  0.0000E+00  0.0000E+00  0.0000E+00  0.0000E+00  0.0000E+00  0.0000E+00  0.0000E+00  0.0000E+00  0.0000E+00  0.0000E+00  0.0000E+00  0.0000E+00  0.0000E+00  0.0000E+00  0.0000E+00  0.0000E+00  0.0000E+00  0.0000E+00
    -50.287  0.0000E+00  0.0000E+00  0.0000E+00  0.0000E+00  0.0000E+00  0.0000E+00  0.0000E+00  0.0000E+00  0.0000E+00  0.0000E+00  0.0000E+00  0.0000E+00  0.0000E+00  0.0000E+00  0.0000E+00  0.0000E+00  0.0000E+00  0.0000E+00
    -50.069  0.0000E+00  0.0000E+00  0.0000E+00  0.0000E+00  0.0000E+00  0.0000E+00  0.0000E+00  0.0000E+00  0.0000E+00  0.0000E+00  0.0000E+00  0.0000E+00  0.0000E+00  0.0000E+00  0.0000E+00  0.0000E+00  0.0000E+00  0.0000E+00
    -49.851  0.0000E+00  0.0000E+00  0.0000E+00  0.0000E+00  0.0000E+00  0.0000E+00  0.0000E+00  0.0000E+00  0.0000E+00  0.0000E+00  0.0000E+00  0.0000E+00  0.0000E+00  0.0000E+00  0.0000E+00  0.0000E+00  0.0000E+00  0.0000E+00
    -49.634  0.0000E+00  0.0000E+00  0.0000E+00  0.0000E+00  0.0000E+00  0.0000E+00  0.0000E+00  0.0000E+00  0.0000E+00  0.0000E+00  0.0000E+00  0.0000E+00  0.0000E+00  0.0000E+00  0.0000E+00  0.0000E+00  0.0000E+00  0.0000E+00
    -49.416  0.0000E+00  0.0000E+00  0.0000E+00  0.0000E+00  0.0000E+00  0.0000E+00  0.0000E+00  0.0000E+00  0.0000E+00  0.0000E+00  0.0000E+00  0.0000E+00  0.0000E+00  0.0000E+00  0.0000E+00  0.0000E+00  0.0000E+00  0.0000E+00
    -49.198  0.6356E-19  0.7926E-23  0.2951E-17  0.7215E-13  0.5088E-19  0.7884E-13  0.1726E-20  0.8938E-21  0.1755E-22  0.1125E-18  0.7123E-20  0.1398E-23  0.1868E-19  0.7090E-23  0.1236E-23  0.1222E-18  0.7043E-19  0.1209E-22
    -48.981  0.1747E-06  0.1715E-07  0.8177E-05  0.1985E+00  0.1387E-06  0.2147E+00  0.6589E-08  0.4258E-02  0.2010E-09  0.3193E-06  0.1932E-07  0.4270E-11  0.5136E-07  0.7866E-08  0.3577E-11  0.3453E-06  0.1927E-06  0.2361E-07
    -48.763  0.1763E-05  0.5381E-04  0.8272E-04  0.2003E+01  0.1395E-05  0.2159E+01  0.7911E-06  0.2031E+01  0.6399E-07  0.3253E-05  0.1940E-06  0.1410E-08  0.5183E-06  0.2465E-04  0.8884E-10  0.3512E-05  0.1941E-05  0.7406E-04
    -48.545  0.1411E-05  0.8254E-04  0.5554E-04  0.2051E+01  0.4547E-06  0.1903E+01  0.5148E-06  0.2404E+01  0.5002E-07  0.3401E-05  0.2366E-07  0.2054E-08  0.5527E-06  0.3790E-04  0.8181E-10  0.3158E-05  0.1697E-05  0.1139E-03
    -48.328  0.2218E-06  0.8963E-06  0.8754E-05  0.3236E+00  0.7165E-07  0.2993E+00  0.2583E-07  0.1382E+00  0.3481E-08  0.5303E-06  0.3714E-08  0.2578E-10  0.8696E-07  0.4112E-06  0.6520E-11  0.4918E-06  0.2674E-06  0.1236E-05
    -48.110  0.0000E+00  0.0000E+00  0.0000E+00  0.0000E+00  0.0000E+00  0.0000E+00  0.0000E+00  0.0000E+00  0.0000E+00  0.0000E+00  0.0000E+00  0.0000E+00  0.0000E+00  0.0000E+00  0.0000E+00  0.0000E+00  0.0000E+00  0.0000E+00
    -47.892  0.0000E+00  0.0000E+00  0.0000E+00  0.0000E+00  0.0000E+00  0.0000E+00  0.0000E+00  0.0000E+00  0.0000E+00  0.0000E+00  0.0000E+00  0.0000E+00  0.0000E+00  0.0000E+00  0.0000E+00  0.0000E+00  0.0000E+00  0.0000E+00
    -47.674  0.0000E+00  0.0000E+00  0.0000E+00  0.0000E+00  0.0000E+00  0.0000E+00  0.0000E+00  0.0000E+00  0.0000E+00  0.0000E+00  0.0000E+00  0.0000E+00  0.0000E+00  0.0000E+00  0.0000E+00  0.0000E+00  0.0000E+00  0.0000E+00
    -47.457  0.0000E+00  0.0000E+00  0.0000E+00  0.0000E+00  0.0000E+00  0.0000E+00  0.0000E+00  0.0000E+00  0.0000E+00  0.0000E+00  0.0000E+00  0.0000E+00  0.0000E+00  0.0000E+00  0.0000E+00  0.0000E+00  0.0000E+00  0.0000E+00
    -47.239  0.0000E+00  0.0000E+00  0.0000E+00  0.0000E+00  0.0000E+00  0.0000E+00  0.0000E+00  0.0000E+00  0.0000E+00  0.0000E+00  0.0000E+00  0.0000E+00  0.0000E+00  0.0000E+00  0.0000E+00  0.0000E+00  0.0000E+00  0.0000E+00
    -47.021  0.0000E+00  0.0000E+00  0.0000E+00  0.0000E+00  0.0000E+00  0.0000E+00  0.0000E+00  0.0000E+00  0.0000E+00  0.0000E+00  0.0000E+00  0.0000E+00  0.0000E+00  0.0000E+00  0.0000E+00  0.0000E+00  0.0000E+00  0.0000E+00
    -46.804  0.0000E+00  0.0000E+00  0.0000E+00  0.0000E+00  0.0000E+00  0.0000E+00  0.0000E+00  0.0000E+00  0.0000E+00  0.0000E+00  0.0000E+00  0.0000E+00  0.0000E+00  0.0000E+00  0.0000E+00  0.0000E+00  0.0000E+00  0.0000E+00
    -46.586  0.0000E+00  0.0000E+00  0.0000E+00  0.0000E+00  0.0000E+00  0.0000E+00  0.0000E+00  0.0000E+00  0.0000E+00  0.0000E+00  0.0000E+00  0.0000E+00  0.0000E+00  0.0000E+00  0.0000E+00  0.0000E+00  0.0000E+00  0.0000E+00
    -46.368  0.0000E+00  0.0000E+00  0.0000E+00  0.0000E+00  0.0000E+00  0.0000E+00  0.0000E+00  0.0000E+00  0.0000E+00  0.0000E+00  0.0000E+00  0.0000E+00  0.0000E+00  0.0000E+00  0.0000E+00  0.0000E+00  0.0000E+00  0.0000E+00
    -46.151  0.0000E+00  0.0000E+00  0.0000E+00  0.0000E+00  0.0000E+00  0.0000E+00  0.0000E+00  0.0000E+00  0.0000E+00  0.0000E+00  0.0000E+00  0.0000E+00  0.0000E+00  0.0000E+00  0.0000E+00  0.0000E+00  0.0000E+00  0.0000E+00
    -45.933  0.0000E+00  0.0000E+00  0.0000E+00  0.0000E+00  0.0000E+00  0.0000E+00  0.0000E+00  0.0000E+00  0.0000E+00  0.0000E+00  0.0000E+00  0.0000E+00  0.0000E+00  0.0000E+00  0.0000E+00  0.0000E+00  0.0000E+00  0.0000E+00
    -45.715  0.0000E+00  0.0000E+00  0.0000E+00  0.0000E+00  0.0000E+00  0.0000E+00  0.0000E+00  0.0000E+00  0.0000E+00  0.0000E+00  0.0000E+00  0.0000E+00  0.0000E+00  0.0000E+00  0.0000E+00  0.0000E+00  0.0000E+00  0.0000E+00
    -45.497  0.0000E+00  0.0000E+00  0.0000E+00  0.0000E+00  0.0000E+00  0.0000E+00  0.0000E+00  0.0000E+00  0.0000E+00  0.0000E+00  0.0000E+00  0.0000E+00  0.0000E+00  0.0000E+00  0.0000E+00  0.0000E+00  0.0000E+00  0.0000E+00
    -45.280  0.0000E+00  0.0000E+00  0.0000E+00  0.0000E+00  0.0000E+00  0.0000E+00  0.0000E+00  0.0000E+00  0.0000E+00  0.0000E+00  0.0000E+00  0.0000E+00  0.0000E+00  0.0000E+00  0.0000E+00  0.0000E+00  0.0000E+00  0.0000E+00
    -45.062  0.0000E+00  0.0000E+00  0.0000E+00  0.0000E+00  0.0000E+00  0.0000E+00  0.0000E+00  0.0000E+00  0.0000E+00  0.0000E+00  0.0000E+00  0.0000E+00  0.0000E+00  0.0000E+00  0.0000E+00  0.0000E+00  0.0000E+00  0.0000E+00
    -44.844  0.0000E+00  0.0000E+00  0.0000E+00  0.0000E+00  0.0000E+00  0.0000E+00  0.0000E+00  0.0000E+00  0.0000E+00  0.0000E+00  0.0000E+00  0.0000E+00  0.0000E+00  0.0000E+00  0.0000E+00  0.0000E+00  0.0000E+00  0.0000E+00
    -44.627  0.0000E+00  0.0000E+00  0.0000E+00  0.0000E+00  0.0000E+00  0.0000E+00  0.0000E+00  0.0000E+00  0.0000E+00  0.0000E+00  0.0000E+00  0.0000E+00  0.0000E+00  0.0000E+00  0.0000E+00  0.0000E+00  0.0000E+00  0.0000E+00
    -44.409  0.0000E+00  0.0000E+00  0.0000E+00  0.0000E+00  0.0000E+00  0.0000E+00  0.0000E+00  0.0000E+00  0.0000E+00  0.0000E+00  0.0000E+00  0.0000E+00  0.0000E+00  0.0000E+00  0.0000E+00  0.0000E+00  0.0000E+00  0.0000E+00
    -44.191  0.0000E+00  0.0000E+00  0.0000E+00  0.0000E+00  0.0000E+00  0.0000E+00  0.0000E+00  0.0000E+00  0.0000E+00  0.0000E+00  0.0000E+00  0.0000E+00  0.0000E+00  0.0000E+00  0.0000E+00  0.0000E+00  0.0000E+00  0.0000E+00
    -43.973  0.0000E+00  0.0000E+00  0.0000E+00  0.0000E+00  0.0000E+00  0.0000E+00  0.0000E+00  0.0000E+00  0.0000E+00  0.0000E+00  0.0000E+00  0.0000E+00  0.0000E+00  0.0000E+00  0.0000E+00  0.0000E+00  0.0000E+00  0.0000E+00