  16  16   1   0
  0.2125000E+02  0.7648182E-09  0.7648182E-09  0.5911691E-09  0.5000000E-15
  1.000000000000000E-004
  CAR 
 unknown system                          
     10.46630951    -54.85883773  301      3.04825345      1.00000000
    -54.859  0.0000E+00  0.0000E+00  0.0000E+00  0.0000E+00
    -54.641  0.0000E+00  0.0000E+00  0.0000E+00  0.0000E+00
    -54.423  0.0000E+00  0.0000E+00  0.0000E+00  0.0000E+00
    -54.206  0.0000E+00  0.0000E+00  0.0000E+00  0.0000E+00
    -53.988  0.0000E+00  0.0000E+00  0.0000E+00  0.0000E+00
    -53.770  0.0000E+00  0.0000E+00  0.0000E+00  0.0000E+00
    -53.552  0.0000E+00  0.0000E+00  0.0000E+00  0.0000E+00
    -53.335  0.0000E+00  0.0000E+00  0.0000E+00  0.0000E+00
    -53.117  0.0000E+00  0.0000E+00  0.0000E+00  0.0000E+00
    -52.899  0.0000E+00  0.0000E+00  0.0000E+00  0.0000E+00
    -52.681  0.0000E+00  0.0000E+00  0.0000E+00  0.0000E+00
    -52.464  0.0000E+00  0.0000E+00  0.0000E+00  0.0000E+00
    -52.246  0.0000E+00  0.0000E+00  0.0000E+00  0.0000E+00
    -52.028  0.5352E-05  0.5352E-05  0.1166E-05  0.1166E-05
    -51.810  0.1825E+00  0.1825E+00  0.3973E-01  0.3973E-01
    -51.593  0.2673E+00  0.2673E+00  0.9794E-01  0.9794E-01
    -51.375  0.1053E+00  0.1053E+00  0.1209E+00  0.1209E+00
    -51.157  0.1625E-02  0.1625E-02  0.1212E+00  0.1212E+00
    -50.939  0.0000E+00  0.0000E+00  0.1212E+00  0.1212E+00
    -50.722  0.0000E+00  0.0000E+00  0.1212E+00  0.1212E+00
    -50.504  0.0000E+00  0.0000E+00  0.1212E+00  0.1212E+00
    -50.286  0.0000E+00  0.0000E+00  0.1212E+00  0.1212E+00
    -50.068  0.0000E+00  0.0000E+00  0.1212E+00  0.1212E+00
    -49.851  0.0000E+00  0.0000E+00  0.1212E+00  0.1212E+00
    -49.633  0.0000E+00  0.0000E+00  0.1212E+00  0.1212E+00
    -49.415  0.0000E+00  0.0000E+00  0.1212E+00  0.1212E+00
    -49.197  0.1471E-13  0.1471E-13  0.1212E+00  0.1212E+00
    -48.980  0.2076E-01  0.2076E-01  0.1257E+00  0.1257E+00
    -48.762  0.2478E+00  0.2478E+00  0.1797E+00  0.1797E+00
    -48.544  0.2563E+00  0.2563E+00  0.2355E+00  0.2355E+00
    -48.326  0.3174E-01  0.3174E-01  0.2424E+00  0.2424E+00
    -48.109  0.0000E+00  0.0000E+00  0.2424E+00  0.2424E+00
    -47.891  0.0000E+00  0.0000E+00  0.2424E+00  0.2424E+00
    -47.673  0.0000E+00  0.0000E+00  0.2424E+00  0.2424E+00
    -47.455  0.0000E+00  0.0000E+00  0.2424E+00  0.2424E+00
    -47.238  0.0000E+00  0.0000E+00  0.2424E+00  0.2424E+00
    -47.020  0.0000E+00  0.0000E+00  0.2424E+00  0.2424E+00
    -46.802  0.0000E+00  0.0000E+00  0.2424E+00  0.2424E+00
    -46.584  0.0000E+00  0.0000E+00  0.2424E+00  0.2424E+00
    -46.367  0.0000E+00  0.0000E+00  0.2424E+00  0.2424E+00
    -46.149  0.0000E+00  0.0000E+00  0.2424E+00  0.2424E+00
    -45.931  0.0000E+00  0.0000E+00  0.2424E+00  0.2424E+00
    -45.713  0.0000E+00  0.0000E+00  0.2424E+00  0.2424E+00
    -45.496  0.0000E+00  0.0000E+00  0.2424E+00  0.2424E+00
    -45.278  0.0000E+00  0.0000E+00  0.2424E+00  0.2424E+00
    -45.060  0.0000E+00  0.0000E+00  0.2424E+00  0.2424E+00
    -44.842  0.0000E+00  0.0000E+00  0.2424E+00  0.2424E+00
    -44.625  0.0000E+00  0.0000E+00  0.2424E+00  0.2424E+00
    -44.407  0.0000E+00  0.0000E+00  0.2424E+00  0.2424E+00
    -44.189  0.0000E+00  0.0000E+00  0.2424E+00  0.2424E+00
    -43.971  0.0000E+00  0.0000E+00  0.2424E+00  0.2424E+00
    -43.754  0.0000E+00  0.0000E+00  0.2424E+00  0.2424E+00
    -43.536  0.0000E+00  0.0000E+00  0.2424E+00  0.2424E+00
    -43.318  0.0000E+00  0.0000E+00  0.2424E+00  0.2424E+00
    -43.100  0.0000E+00  0.0000E+00  0.2424E+00  0.2424E+00
    -42.883  0.0000E+00  0.0000E+00  0.2424E+00  0.2424E+00
    -42.665  0.0000E+00  0.0000E+00  0.2424E+00  0.2424E+00
    -42.447  0.0000E+00  0.0000E+00  0.2424E+00  0.2424E+00
    -42.229  0.0000E+00  0.0000E+00  0.2424E+00  0.2424E+00
    -42.012  0.0000E+00  0.0000E+00  0.2424E+00  0.2424E+00
    -41.794  0.0000E+00  0.0000E+00  0.2424E+00  0.2424E+00
    -41.576  0.0000E+00  0.0000E+00  0.2424E+00  0.2424E+00
    -41.358  0.0000E+00  0.0000E+00  0.2424E+00  0.2424E+00
    -41.141  0.0000E+00  0.0000E+00  0.2424E+00  0.2424E+00
    -40.923  0.0000E+00  0.0000E+00  0.2424E+00  0.2424E+00
    -40.705  0.0000E+00  0.0000E+00  0.2424E+00  0.2424E+00
    -40.487  0.0000E+00  0.0000E+00  0.2424E+00  0.2424E+00
    -40.270  0.0000E+00  0.0000E+00  0.2424E+00  0.2424E+00
    -40.052  0.0000E+00  0.0000E+00  0.2424E+00  0.2424E+00
    -39.834  0.0000E+00  0.0000E+00  0.2424E+00  0.2424E+00
    -39.616  0.0000E+00  0.0000E+00  0.2424E+00  0.2424E+00
    -39.399  0.0000E+00  0.0000E+00  0.2424E+00  0.2424E+00
    -39.181  0.0000E+00  0.0000E+00  0.2424E+00  0.2424E+00
    -38.963  0.0000E+00  0.0000E+00  0.2424E+00  0.2424E+00
    -38.745  0.0000E+00  0.0000E+00  0.2424E+00  0.2424E+00
    -38.528  0.0000E+00  0.0000E+00  0.2424E+00  0.2424E+00
    -38.310  0.0000E+00  0.0000E+00  0.2424E+00  0.2424E+00
    -38.092  0.0000E+00  0.0000E+00  0.2424E+00  0.2424E+00
    -37.874  0.0000E+00  0.0000E+00  0.2424E+00  0.2424E+00
    -37.657  0.0000E+00  0.0000E+00  0.2424E+00  0.2424E+00
    -37.439  0.0000E+00  0.0000E+00  0.2424E+00  0.2424E+00
    -37.221  0.0000E+00  0.0000E+00  0.2424E+00  0.2424E+00
    -37.003  0.0000E+00  0.0000E+00  0.2424E+00  0.2424E+00
    -36.786  0.0000E+00  0.0000E+00  0.2424E+00  0.2424E+00
    -36.568  0.0000E+00  0.0000E+00  0.2424E+00  0.2424E+00
    -36.350  0.0000E+00  0.0000E+00  0.2424E+00  0.2424E+00
    -36.132  0.0000E+00  0.0000E+00  0.2424E+00  0.2424E+00
    -35.915  0.0000E+00  0.0000E+00  0.2424E+00  0.2424E+00
    -35.697  0.0000E+00  0.0000E+00  0.2424E+00  0.2424E+00
    -35.479  0.0000E+00  0.0000E+00  0.2424E+00  0.2424E+00
    -35.261  0.0000E+00  0.0000E+00  0.2424E+00  0.2424E+00
    -35.044  0.0000E+00  0.0000E+00  0.2424E+00  0.2424E+00
    -34.826  0.0000E+00  0.0000E+00  0.2424E+00  0.2424E+00
    -34.608  0.0000E+00  0.0000E+00  0.2424E+00  0.2424E+00
    -34.390  0.0000E+00  0.0000E+00  0.2424E+00  0.2424E+00
    -34.173  0.0000E+00  0.0000E+00  0.2424E+00  0.2424E+00
    -33.955  0.0000E+00  0.0000E+00  0.2424E+00  0.2424E+00
    -33.737  0.0000E+00  0.0000E+00  0.2424E+00  0.2424E+00
    -33.519  0.0000E+00  0.0000E+00  0.2424E+00  0.2424E+00
    -33.302  0.0000E+00  0.0000E+00  0.2424E+00  0.2424E+00
    -33.084  0.0000E+00  0.0000E+00  0.2424E+00  0.2424E+00
    -32.866  0.0000E+00  0.0000E+00  0.2424E+00  0.2424E+00
    -32.648  0.0000E+00  0.0000E+00  0.2424E+00  0.2424E+00
    -32.431  0.0000E+00  0.0000E+00  0.2424E+00  0.2424E+00
    -32.213  0.0000E+00  0.0000E+00  0.2424E+00  0.2424E+00
    -31.995  0.0000E+00  0.0000E+00  0.2424E+00  0.2424E+00
    -31.777  0.0000E+00  0.0000E+00  0.2424E+00  0.2424E+00
    -31.560  0.0000E+00  0.0000E+00  0.2424E+00  0.2424E+00
    -31.342  0.0000E+00  0.0000E+00  0.2424E+00  0.2424E+00
    -31.124  0.0000E+00  0.0000E+00  0.2424E+00  0.2424E+00
    -30.906  0.0000E+00  0.0000E+00  0.2424E+00  0.2424E+00
    -30.689  0.0000E+00  0.0000E+00  0.2424E+00  0.2424E+00
    -30.471  0.0000E+00  0.0000E+00  0.2424E+00  0.2424E+00
    -30.253  0.0000E+00  0.0000E+00  0.2424E+00  0.2424E+00
    -30.035  0.0000E+00  0.0000E+00  0.2424E+00  0.2424E+00
    -29.818  0.0000E+00  0.0000E+00  0.2424E+00  0.2424E+00
    -29.600  0.0000E+00  0.0000E+00  0.2424E+00  0.2424E+00
    -29.382  0.0000E+00  0.0000E+00  0.2424E+00  0.2424E+00
    -29.164  0.0000E+00  0.0000E+00  0.2424E+00  0.2424E+00
    -28.947  0.0000E+00  0.0000E+00  0.2424E+00  0.2424E+00
    -28.729  0.0000E+00  0.0000E+00  0.2424E+00  0.2424E+00
    -28.511  0.0000E+00  0.0000E+00  0.2424E+00  0.2424E+00
    -28.293  0.0000E+00  0.0000E+00  0.2424E+00  0.2424E+00
    -28.076  0.0000E+00  0.0000E+00  0.2424E+00  0.2424E+00
    -27.858  0.0000E+00  0.0000E+00  0.2424E+00  0.2424E+00
    -27.640  0.0000E+00  0.0000E+00  0.2424E+00  0.2424E+00
    -27.422  0.0000E+00  0.0000E+00  0.2424E+00  0.2424E+00
    -27.205  0.0000E+00  0.0000E+00  0.2424E+00  0.2424E+00
    -26.987  0.0000E+00  0.0000E+00  0.2424E+00  0.2424E+00
    -26.769  0.0000E+00  0.0000E+00  0.2424E+00  0.2424E+00
    -26.551  0.0000E+00  0.0000E+00  0.2424E+00  0.2424E+00
    -26.334  0.0000E+00  0.0000E+00  0.2424E+00  0.2424E+00
    -26.116  0.0000E+00  0.0000E+00  0.2424E+00  0.2424E+00
    -25.898  0.0000E+00  0.0000E+00  0.2424E+00  0.2424E+00
    -25.680  0.0000E+00  0.0000E+00  0.2424E+00  0.2424E+00
    -25.463  0.0000E+00  0.0000E+00  0.2424E+00  0.2424E+00
    -25.245  0.0000E+00  0.0000E+00  0.2424E+00  0.2424E+00
    -25.027  0.0000E+00  0.0000E+00  0.2424E+00  0.2424E+00
    -24.809  0.0000E+00  0.0000E+00  0.2424E+00  0.2424E+00
    -24.592  0.0000E+00  0.0000E+00  0.2424E+00  0.2424E+00
    -24.374  0.0000E+00  0.0000E+00  0.2424E+00  0.2424E+00
    -24.156  0.0000E+00  0.0000E+00  0.2424E+00  0.2424E+00
    -23.938  0.0000E+00  0.0000E+00  0.2424E+00  0.2424E+00
    -23.721  0.0000E+00  0.0000E+00  0.2424E+00  0.2424E+00
    -23.503  0.0000E+00  0.0000E+00  0.2424E+00  0.2424E+00
    -23.285  0.0000E+00  0.0000E+00  0.2424E+00  0.2424E+00
    -23.067  0.0000E+00  0.0000E+00  0.2424E+00  0.2424E+00
    -22.850  0.0000E+00  0.0000E+00  0.2424E+00  0.2424E+00
    -22.632  0.0000E+00  0.0000E+00  0.2424E+00  0.2424E+00
    -22.414  0.0000E+00  0.0000E+00  0.2424E+00  0.2424E+00
    -22.196  0.0000E+00  0.0000E+00  0.2424E+00  0.2424E+00
    -21.979  0.0000E+00  0.0000E+00  0.2424E+00  0.2424E+00
    -21.761  0.0000E+00  0.0000E+00  0.2424E+00  0.2424E+00
    -21.543  0.0000E+00  0.0000E+00  0.2424E+00  0.2424E+00
    -21.325  0.0000E+00  0.0000E+00  0.2424E+00  0.2424E+00
    -21.108  0.0000E+00  0.0000E+00  0.2424E+00  0.2424E+00
    -20.890  0.0000E+00  0.0000E+00  0.2424E+00  0.2424E+00
    -20.672  0.0000E+00  0.0000E+00  0.2424E+00  0.2424E+00
    -20.454  0.0000E+00  0.0000E+00  0.2424E+00  0.2424E+00
    -20.237  0.0000E+00  0.0000E+00  0.2424E+00  0.2424E+00
    -20.019  0.0000E+00  0.0000E+00  0.2424E+00  0.2424E+00
    -19.801  0.0000E+00  0.0000E+00  0.2424E+00  0.2424E+00
    -19.583  0.0000E+00  0.0000E+00  0.2424E+00  0.2424E+00
    -19.366  0.0000E+00  0.0000E+00  0.2424E+00  0.2424E+00
    -19.148  0.0000E+00  0.0000E+00  0.2424E+00  0.2424E+00
    -18.930  0.0000E+00  0.0000E+00  0.2424E+00  0.2424E+00
    -18.712  0.0000E+00  0.0000E+00  0.2424E+00  0.2424E+00
    -18.495  0.0000E+00  0.0000E+00  0.2424E+00  0.2424E+00
    -18.277  0.0000E+00  0.0000E+00  0.2424E+00  0.2424E+00
    -18.059  0.0000E+00  0.0000E+00  0.2424E+00  0.2424E+00
    -17.841  0.0000E+00  0.0000E+00  0.2424E+00  0.2424E+00
    -17.624  0.0000E+00  0.0000E+00  0.2424E+00  0.2424E+00
    -17.406  0.0000E+00  0.0000E+00  0.2424E+00  0.2424E+00
    -17.188  0.0000E+00  0.0000E+00  0.2424E+00  0.2424E+00
    -16.970  0.0000E+00  0.0000E+00  0.2424E+00  0.2424E+00
    -16.753  0.0000E+00  0.0000E+00  0.2424E+00  0.2424E+00
    -16.535  0.0000E+00  0.0000E+00  0.2424E+00  0.2424E+00
    -16.317  0.0000E+00  0.0000E+00  0.2424E+00  0.2424E+00
    -16.099  0.0000E+00  0.0000E+00  0.2424E+00  0.2424E+00
    -15.881  0.0000E+00  0.0000E+00  0.2424E+00  0.2424E+00
    -15.664  0.0000E+00  0.0000E+00  0.2424E+00  0.2424E+00
    -15.446  0.0000E+00  0.0000E+00  0.2424E+00  0.2424E+00
    -15.228  0.0000E+00  0.0000E+00  0.2424E+00  0.2424E+00
    -15.010  0.0000E+00  0.0000E+00  0.2424E+00  0.2424E+00
    -14.793  0.0000E+00  0.0000E+00  0.2424E+00  0.2424E+00
    -14.575  0.0000E+00  0.0000E+00  0.2424E+00  0.2424E+00
    -14.357  0.0000E+00  0.0000E+00  0.2424E+00  0.2424E+00
    -14.139  0.0000E+00  0.0000E+00  0.2424E+00  0.2424E+00
    -13.922  0.0000E+00  0.0000E+00  0.2424E+00  0.2424E+00
    -13.704  0.0000E+00  0.0000E+00  0.2424E+00  0.2424E+00
    -13.486  0.0000E+00  0.0000E+00  0.2424E+00  0.2424E+00
    -13.268  0.0000E+00  0.0000E+00  0.2424E+00  0.2424E+00
    -13.051  0.0000E+00  0.0000E+00  0.2424E+00  0.2424E+00
    -12.833  0.0000E+00  0.0000E+00  0.2424E+00  0.2424E+00
    -12.615  0.0000E+00  0.0000E+00  0.2424E+00  0.2424E+00
    -12.397  0.0000E+00  0.0000E+00  0.2424E+00  0.2424E+00
    -12.180  0.0000E+00  0.0000E+00  0.2424E+00  0.2424E+00
    -11.962  0.0000E+00  0.0000E+00  0.2424E+00  0.2424E+00
    -11.744  0.0000E+00  0.0000E+00  0.2424E+00  0.2424E+00
    -11.526  0.0000E+00  0.0000E+00  0.2424E+00  0.2424E+00
    -11.309  0.0000E+00  0.0000E+00  0.2424E+00  0.2424E+00
    -11.091  0.2845E-16  0.2845E-16  0.2424E+00  0.2424E+00
    -10.873  0.4177E-04  0.4177E-04  0.2424E+00  0.2424E+00
    -10.655  0.7878E-02  0.7878E-02  0.2441E+00  0.2441E+00
    -10.438  0.1992E-01  0.1992E-01  0.2485E+00  0.2485E+00
    -10.220  0.3344E-01  0.3344E-01  0.2558E+00  0.2558E+00
    -10.002  0.5892E-01  0.5892E-01  0.2686E+00  0.2686E+00
     -9.784  0.1113E+00  0.1113E+00  0.2928E+00  0.2928E+00
     -9.567  0.1130E+00  0.1130E+00  0.3174E+00  0.3174E+00
     -9.349  0.2637E-01  0.2637E-01  0.3232E+00  0.3232E+00
     -9.131  0.2562E-03  0.2562E-03  0.3232E+00  0.3232E+00
     -8.913  0.0000E+00  0.0000E+00  0.3232E+00  0.3232E+00
     -8.696  0.0000E+00  0.0000E+00  0.3232E+00  0.3232E+00
     -8.478  0.0000E+00  0.0000E+00  0.3232E+00  0.3232E+00
     -8.260  0.0000E+00  0.0000E+00  0.3232E+00  0.3232E+00
     -8.042  0.0000E+00  0.0000E+00  0.3232E+00  0.3232E+00
     -7.825  0.0000E+00  0.0000E+00  0.3232E+00  0.3232E+00
     -7.607  0.0000E+00  0.0000E+00  0.3232E+00  0.3232E+00
     -7.389  0.0000E+00  0.0000E+00  0.3232E+00  0.3232E+00
     -7.171  0.0000E+00  0.0000E+00  0.3232E+00  0.3232E+00
     -6.954  0.0000E+00  0.0000E+00  0.3232E+00  0.3232E+00
     -6.736  0.0000E+00  0.0000E+00  0.3232E+00  0.3232E+00
     -6.518  0.0000E+00  0.0000E+00  0.3232E+00  0.3232E+00
     -6.300  0.0000E+00  0.0000E+00  0.3232E+00  0.3232E+00
     -6.083  0.0000E+00  0.0000E+00  0.3232E+00  0.3232E+00
     -5.865  0.0000E+00  0.0000E+00  0.3232E+00  0.3232E+00
     -5.647  0.0000E+00  0.0000E+00  0.3232E+00  0.3232E+00
     -5.429  0.0000E+00  0.0000E+00  0.3232E+00  0.3232E+00
     -5.212  0.0000E+00  0.0000E+00  0.3232E+00  0.3232E+00
     -4.994  0.0000E+00  0.0000E+00  0.3232E+00  0.3232E+00
     -4.776  0.0000E+00  0.0000E+00  0.3232E+00  0.3232E+00
     -4.558  0.0000E+00  0.0000E+00  0.3232E+00  0.3232E+00
     -4.341  0.0000E+00  0.0000E+00  0.3232E+00  0.3232E+00
     -4.123  0.0000E+00  0.0000E+00  0.3232E+00  0.3232E+00
     -3.905  0.0000E+00  0.0000E+00  0.3232E+00  0.3232E+00
     -3.687  0.0000E+00  0.0000E+00  0.3232E+00  0.3232E+00
     -3.470  0.0000E+00  0.0000E+00  0.3232E+00  0.3232E+00
     -3.252  0.0000E+00  0.0000E+00  0.3232E+00  0.3232E+00
     -3.034  0.5022E-18  0.5022E-18  0.3232E+00  0.3232E+00
     -2.816  0.6891E-05  0.6891E-05  0.3232E+00  0.3232E+00
     -2.599  0.2384E-02  0.2384E-02  0.3238E+00  0.3238E+00
     -2.381  0.7402E-02  0.7402E-02  0.3254E+00  0.3254E+00
     -2.163  0.3712E-01  0.3712E-01  0.3334E+00  0.3334E+00
     -1.945  0.8753E-01  0.8753E-01  0.3525E+00  0.3525E+00
     -1.728  0.7428E-01  0.7428E-01  0.3687E+00  0.3687E+00
     -1.510  0.5114E-01  0.5114E-01  0.3798E+00  0.3798E+00
     -1.292  0.8793E-01  0.8793E-01  0.3990E+00  0.3990E+00
     -1.074  0.8910E-01  0.8910E-01  0.4184E+00  0.4184E+00
     -0.857  0.8755E-01  0.8755E-01  0.4374E+00  0.4374E+00
     -0.639  0.1284E+00  0.1284E+00  0.4654E+00  0.4654E+00
     -0.421  0.9864E-01  0.9864E-01  0.4869E+00  0.4869E+00
     -0.203  0.1066E+00  0.1066E+00  0.5101E+00  0.5101E+00
      0.014  0.1081E+00  0.1081E+00  0.5336E+00  0.5336E+00
      0.232  0.7434E-01  0.7434E-01  0.5498E+00  0.5498E+00
      0.450  0.8047E-01  0.8047E-01  0.5673E+00  0.5673E+00
      0.668  0.1090E+00  0.1090E+00  0.5911E+00  0.5911E+00
      0.885  0.1175E+00  0.1175E+00  0.6167E+00  0.6167E+00
      1.103  0.2127E+00  0.2127E+00  0.6630E+00  0.6630E+00
      1.321  0.1576E+00  0.1576E+00  0.6973E+00  0.6973E+00
      1.539  0.9424E-01  0.9424E-01  0.7178E+00  0.7178E+00
      1.756  0.8162E-01  0.8162E-01  0.7356E+00  0.7356E+00
      1.974  0.6029E-01  0.6029E-01  0.7487E+00  0.7487E+00
      2.192  0.5948E-01  0.5948E-01  0.7617E+00  0.7617E+00
      2.410  0.4261E-01  0.4261E-01  0.7710E+00  0.7710E+00
      2.627  0.3797E-01  0.3797E-01  0.7792E+00  0.7792E+00
      2.845  0.5467E-01  0.5467E-01  0.7911E+00  0.7911E+00
      3.063  0.8229E-01  0.8229E-01  0.8090E+00  0.8090E+00
      3.281  0.6774E-01  0.6774E-01  0.8238E+00  0.8238E+00
      3.498  0.1501E+00  0.1501E+00  0.8565E+00  0.8565E+00
      3.716  0.1086E+00  0.1086E+00  0.8801E+00  0.8801E+00
      3.934  0.1160E+00  0.1160E+00  0.9054E+00  0.9054E+00
      4.152  0.9113E-01  0.9113E-01  0.9252E+00  0.9252E+00
      4.369  0.9573E-01  0.9573E-01  0.9461E+00  0.9461E+00
      4.587  0.6373E-01  0.6373E-01  0.9600E+00  0.9600E+00
      4.805  0.1041E-01  0.1041E-01  0.9622E+00  0.9622E+00
      5.023  0.1256E-01  0.1256E-01  0.9650E+00  0.9650E+00
      5.240  0.1264E-01  0.1264E-01  0.9677E+00  0.9677E+00
      5.458  0.9198E-02  0.9198E-02  0.9697E+00  0.9697E+00
      5.676  0.3296E-02  0.3296E-02  0.9704E+00  0.9704E+00
      5.894  0.5986E-02  0.5986E-02  0.9717E+00  0.9717E+00
      6.111  0.6400E-02  0.6400E-02  0.9731E+00  0.9731E+00
      6.329  0.1192E-01  0.1192E-01  0.9757E+00  0.9757E+00
      6.547  0.2315E-01  0.2314E-01  0.9808E+00  0.9808E+00
      6.765  0.3131E-01  0.3129E-01  0.9876E+00  0.9876E+00
      6.982  0.4646E-01  0.4656E-01  0.9977E+00  0.9977E+00
      7.200  0.3769E-01  0.3764E-01  0.1006E+01  0.1006E+01
      7.418  0.1610E-01  0.1594E-01  0.1009E+01  0.1009E+01
      7.636  0.3164E-02  0.3307E-02  0.1010E+01  0.1010E+01
      7.853  0.3733E-07  0.3841E-07  0.1010E+01  0.1010E+01
      8.071  0.0000E+00  0.0000E+00  0.1010E+01  0.1010E+01
      8.289  0.0000E+00  0.0000E+00  0.1010E+01  0.1010E+01
      8.507  0.0000E+00  0.0000E+00  0.1010E+01  0.1010E+01
      8.724  0.0000E+00  0.0000E+00  0.1010E+01  0.1010E+01
      8.942  0.0000E+00  0.0000E+00  0.1010E+01  0.1010E+01
      9.160  0.0000E+00  0.0000E+00  0.1010E+01  0.1010E+01
      9.378  0.0000E+00  0.0000E+00  0.1010E+01  0.1010E+01
      9.595  0.0000E+00  0.0000E+00  0.1010E+01  0.1010E+01
      9.813  0.0000E+00  0.0000E+00  0.1010E+01  0.1010E+01
     10.031  0.0000E+00  0.0000E+00  0.1010E+01  0.1010E+01
     10.249  0.0000E+00  0.0000E+00  0.1010E+01  0.1010E+01
     10.466  0.0000E+00  0.0000E+00  0.1010E+01  0.1010E+01
     10.46630951    -54.85883773  301      3.04825345      1.00000000
    -54.859  0.0000E+00  0.0000E+00  0.0000E+00  0.0000E+00  0.0000E+00  0.0000E+00  0.0000E+00  0.0000E+00  0.0000E+00  0.0000E+00  0.0000E+00  0.0000E+00  0.0000E+00  0.0000E+00  0.0000E+00  0.0000E+00  0.0000E+00  0.0000E+00
    -54.641  0.0000E+00  0.0000E+00  0.0000E+00  0.0000E+00  0.0000E+00  0.0000E+00  0.0000E+00  0.0000E+00  0.0000E+00  0.0000E+00  0.0000E+00  0.0000E+00  0.0000E+00  0.0000E+00  0.0000E+00  0.0000E+00  0.0000E+00  0.0000E+00
    -54.423  0.0000E+00  0.0000E+00  0.0000E+00  0.0000E+00  0.0000E+00  0.0000E+00  0.0000E+00  0.0000E+00  0.0000E+00  0.0000E+00  0.0000E+00  0.0000E+00  0.0000E+00  0.0000E+00  0.0000E+00  0.0000E+00  0.0000E+00  0.0000E+00
    -54.206  0.0000E+00  0.0000E+00  0.0000E+00  0.0000E+00  0.0000E+00  0.0000E+00  0.0000E+00  0.0000E+00  0.0000E+00  0.0000E+00  0.0000E+00  0.0000E+00  0.0000E+00  0.0000E+00  0.0000E+00  0.0000E+00  0.0000E+00  0.0000E+00
    -53.988  0.0000E+00  0.0000E+00  0.0000E+00  0.0000E+00  0.0000E+00  0.0000E+00  0.0000E+00  0.0000E+00  0.0000E+00  0.0000E+00  0.0000E+00  0.0000E+00  0.0000E+00  0.0000E+00  0.0000E+00  0.0000E+00  0.0000E+00  0.0000E+00
    -53.770  0.0000E+00  0.0000E+00  0.0000E+00  0.0000E+00  0.0000E+00  0.0000E+00  0.0000E+00  0.0000E+00  0.0000E+00  0.0000E+00  0.0000E+00  0.0000E+00  0.0000E+00  0.0000E+00  0.0000E+00  0.0000E+00  0.0000E+00  0.0000E+00
    -53.552  0.0000E+00  0.0000E+00  0.0000E+00  0.0000E+00  0.0000E+00  0.0000E+00  0.0000E+00  0.0000E+00  0.0000E+00  0.0000E+00  0.0000E+00  0.0000E+00  0.0000E+00  0.0000E+00  0.0000E+00  0.0000E+00  0.0000E+00  0.0000E+00
    -53.335  0.0000E+00  0.0000E+00  0.0000E+00  0.0000E+00  0.0000E+00  0.0000E+00  0.0000E+00  0.0000E+00  0.0000E+00  0.0000E+00  0.0000E+00  0.0000E+00  0.0000E+00  0.0000E+00  0.0000E+00  0.0000E+00  0.0000E+00  0.0000E+00
    -53.117  0.0000E+00  0.0000E+00  0.0000E+00  0.0000E+00  0.0000E+00  0.0000E+00  0.0000E+00  0.0000E+00  0.0000E+00  0.0000E+00  0.0000E+00  0.0000E+00  0.0000E+00  0.0000E+00  0.0000E+00  0.0000E+00  0.0000E+00  0.0000E+00
    -52.899  0.0000E+00  0.0000E+00  0.0000E+00  0.0000E+00  0.0000E+00  0.0000E+00  0.0000E+00  0.0000E+00  0.0000E+00  0.0000E+00  0.0000E+00  0.0000E+00  0.0000E+00  0.0000E+00  0.0000E+00  0.0000E+00  0.0000E+00  0.0000E+00
    -52.681  0.0000E+00  0.0000E+00  0.0000E+00  0.0000E+00  0.0000E+00  0.0000E+00  0.0000E+00  0.0000E+00  0.0000E+00  0.0000E+00  0.0000E+00  0.0000E+00  0.0000E+00  0.0000E+00  0.0000E+00  0.0000E+00  0.0000E+00  0.0000E+00
    -52.464  0.0000E+00  0.0000E+00  0.0000E+00  0.0000E+00  0.0000E+00  0.0000E+00  0.0000E+00  0.0000E+00  0.0000E+00  0.0000E+00  0.0000E+00  0.0000E+00  0.0000E+00  0.0000E+00  0.0000E+00  0.0000E+00  0.0000E+00  0.0000E+00
    -52.246  0.0000E+00  0.0000E+00  0.0000E+00  0.0000E+00  0.0000E+00  0.0000E+00  0.0000E+00  0.0000E+00  0.0000E+00  0.0000E+00  0.0000E+00  0.0000E+00  0.0000E+00  0.0000E+00  0.0000E+00  0.0000E+00  0.0000E+00  0.0000E+00
    -52.028  0.3892E-15  0.2904E-10  0.4808E-04  0.1369E-08  0.8383E-04  0.8285E-10  0.1264E-14  0.5977E-12  0.6020E-10  0.5502E-13  0.5246E-15  0.4539E-11  0.5461E-15  0.8472E-11  0.1022E-09  0.2707E-14  0.1051E-14  0.3253E-10
    -51.810  0.5149E-08  0.1041E-05  0.1696E+01  0.4877E-04  0.2800E+01  0.2802E-05  0.1543E-02  0.2204E-07  0.2189E-05  0.2047E-08  0.2090E-10  0.1524E-06  0.2353E-08  0.3058E-06  0.3615E-05  0.9641E-10  0.7039E-08  0.1147E-05
    -51.593  0.4438E-04  0.1342E-05  0.2800E+01  0.7379E-04  0.1728E+01  0.9835E-07  0.2060E+01  0.6294E-06  0.3668E-05  0.4699E-07  0.2754E-09  0.1026E-07  0.2021E-04  0.5020E-06  0.2251E-05  0.9079E-10  0.6063E-04  0.1594E-05
    -51.375  0.6459E-04  0.3874E-07  0.7909E-01  0.2105E-05  0.4650E-01  0.1976E-08  0.2473E+01  0.3793E-06  0.1009E-06  0.3305E-07  0.3295E-09  0.2296E-09  0.2940E-04  0.1445E-07  0.5988E-07  0.1002E-09  0.8818E-04  0.4507E-07
    -51.157  0.1863E-06  0.3786E-11  0.1849E-12  0.1344E-09  0.2291E-13  0.1479E-11  0.4016E-01  0.4626E-08  0.2775E-13  0.4285E-09  0.1001E-11  0.2216E-12  0.8494E-07  0.1380E-11  0.3702E-13  0.1942E-11  0.2546E-06  0.2276E-12
    -50.939  0.0000E+00  0.0000E+00  0.0000E+00  0.0000E+00  0.0000E+00  0.0000E+00  0.0000E+00  0.0000E+00  0.0000E+00  0.0000E+00  0.0000E+00  0.0000E+00  0.0000E+00  0.0000E+00  0.0000E+00  0.0000E+00  0.0000E+00  0.0000E+00
    -50.722  0.0000E+00  0.0000E+00  0.0000E+00  0.0000E+00  0.0000E+00  0.0000E+00  0.0000E+00  0.0000E+00  0.0000E+00  0.0000E+00  0.0000E+00  0.0000E+00  0.0000E+00  0.0000E+00  0.0000E+00  0.0000E+00  0.0000E+00  0.0000E+00
    -50.504  0.0000E+00  0.0000E+00  0.0000E+00  0.0000E+00  0.0000E+00  0.0000E+00  0.0000E+00  0.0000E+00  0.0000E+00  0.0000E+00  0.0000E+00  0.0000E+00  0.0000E+00  0.0000E+00  0.0000E+00  0.0000E+00  0.0000E+00  0.0000E+00
    -50.286  0.0000E+00  0.0000E+00  0.0000E+00  0.0000E+00  0.0000E+00  0.0000E+00  0.0000E+00  0.0000E+00  0.0000E+00  0.0000E+00  0.0000E+00  0.0000E+00  0.0000E+00  0.0000E+00  0.0000E+00  0.0000E+00  0.0000E+00  0.0000E+00
    -50.068  0.0000E+00  0.0000E+00  0.0000E+00  0.0000E+00  0.0000E+00  0.0000E+00  0.0000E+00  0.0000E+00  0.0000E+00  0.0000E+00  0.0000E+00  0.0000E+00  0.0000E+00  0.0000E+00  0.0000E+00  0.0000E+00  0.0000E+00  0.0000E+00
    -49.851  0.0000E+00  0.0000E+00  0.0000E+00  0.0000E+00  0.0000E+00  0.0000E+00  0.0000E+00  0.0000E+00  0.0000E+00  0.0000E+00  0.0000E+00  0.0000E+00  0.0000E+00  0.0000E+00  0.0000E+00  0.0000E+00  0.0000E+00  0.0000E+00
    -49.633  0.0000E+00  0.0000E+00  0.0000E+00  0.0000E+00  0.0000E+00  0.0000E+00  0.0000E+00  0.0000E+00  0.0000E+00  0.0000E+00  0.0000E+00  0.0000E+00  0.0000E+00  0.0000E+00  0.0000E+00  0.0000E+00  0.0000E+00  0.0000E+00
    -49.415  0.0000E+00  0.0000E+00  0.0000E+00  0.0000E+00  0.0000E+00  0.0000E+00  0.0000E+00  0.0000E+00  0.0000E+00  0.0000E+00  0.0000E+00  0.0000E+00  0.0000E+00  0.0000E+00  0.0000E+00  0.0000E+00  0.0000E+00  0.0000E+00
    -49.197  0.1563E-18  0.2998E-23  0.7230E-17  0.1754E-12  0.1223E-18  0.1872E-12  0.4750E-20  0.2677E-22  0.1217E-21  0.2674E-18  0.1801E-19  0.2812E-23  0.4552E-19  0.3006E-23  0.3741E-23  0.2849E-18  0.1705E-18  0.4968E-23
    -48.980  0.2192E-06  0.1619E-07  0.1023E-04  0.2465E+00  0.1710E-06  0.2611E+00  0.8593E-08  0.4071E-02  0.3213E-09  0.3870E-06  0.2499E-07  0.4217E-11  0.6388E-07  0.7441E-08  0.5531E-11  0.4109E-06  0.2383E-06  0.2232E-07
    -48.762  0.1758E-05  0.5318E-04  0.8228E-04  0.1977E+01  0.1369E-05  0.2089E+01  0.8272E-06  0.2040E+01  0.6751E-07  0.3133E-05  0.1996E-06  0.1028E-08  0.5123E-06  0.2439E-04  0.9177E-10  0.3322E-05  0.1908E-05  0.7323E-04
    -48.544  0.1381E-05  0.7989E-04  0.5452E-04  0.2010E+01  0.4701E-06  0.1902E+01  0.5098E-06  0.2412E+01  0.4926E-07  0.3244E-05  0.2309E-07  0.1703E-08  0.5326E-06  0.3661E-04  0.9278E-10  0.3076E-05  0.1630E-05  0.1099E-03
    -48.326  0.2338E-06  0.7361E-06  0.9259E-05  0.3415E+00  0.7984E-07  0.3225E+00  0.2349E-07  0.1190E+00  0.2100E-08  0.5455E-06  0.3907E-08  0.2674E-10  0.9022E-07  0.3377E-06  0.7991E-11  0.5166E-06  0.2766E-06  0.1013E-05
    -48.109  0.0000E+00  0.0000E+00  0.0000E+00  0.0000E+00  0.0000E+00  0.0000E+00  0.0000E+00  0.0000E+00  0.0000E+00  0.0000E+00  0.0000E+00  0.0000E+00  0.0000E+00  0.0000E+00  0.0000E+00  0.0000E+00  0.0000E+00  0.0000E+00
    -47.891  0.0000E+00  0.0000E+00  0.0000E+00  0.0000E+00  0.0000E+00  0.0000E+00  0.0000E+00  0.0000E+00  0.0000E+00  0.0000E+00  0.0000E+00  0.0000E+00  0.0000E+00  0.0000E+00  0.0000E+00  0.0000E+00  0.0000E+00  0.0000E+00
    -47.673  0.0000E+00  0.0000E+00  0.0000E+00  0.0000E+00  0.0000E+00  0.0000E+00  0.0000E+00  0.0000E+00  0.0000E+00  0.0000E+00  0.0000E+00  0.0000E+00  0.0000E+00  0.0000E+00  0.0000E+00  0.0000E+00  0.0000E+00  0.0000E+00
    -47.455  0.0000E+00  0.0000E+00  0.0000E+00  0.0000E+00  0.0000E+00  0.0000E+00  0.0000E+00  0.0000E+00  0.0000E+00  0.0000E+00  0.0000E+00  0.0000E+00  0.0000E+00  0.0000E+00  0.0000E+00  0.0000E+00  0.0000E+00  0.0000E+00
    -47.238  0.0000E+00  0.0000E+00  0.0000E+00  0.0000E+00  0.0000E+00  0.0000E+00  0.0000E+00  0.0000E+00  0.0000E+00  0.0000E+00  0.0000E+00  0.0000E+00  0.0000E+00  0.0000E+00  0.0000E+00  0.0000E+00  0.0000E+00  0.0000E+00
    -47.020  0.0000E+00  0.0000E+00  0.0000E+00  0.0000E+00  0.0000E+00  0.0000E+00  0.0000E+00  0.0000E+00  0.0000E+00  0.0000E+00  0.0000E+00  0.0000E+00  0.0000E+00  0.0000E+00  0.0000E+00  0.0000E+00  0.0000E+00  0.0000E+00
    -46.802  0.0000E+00  0.0000E+00  0.0000E+00  0.0000E+00  0.0000E+00  0.0000E+00  0.0000E+00  0.0000E+00  0.0000E+00  0.0000E+00  0.0000E+00  0.0000E+00  0.0000E+00  0.0000E+00  0.0000E+00  0.0000E+00  0.0000E+00  0.0000E+00
    -46.584  0.0000E+00  0.0000E+00  0.0000E+00  0.0000E+00  0.0000E+00  0.0000E+00  0.0000E+00  0.0000E+00  0.0000E+00  0.0000E+00  0.0000E+00  0.0000E+00  0.0000E+00  0.0000E+00  0.0000E+00  0.0000E+00  0.0000E+00  0.0000E+00
    -46.367  0.0000E+00  0.0000E+00  0.0000E+00  0.0000E+00  0.0000E+00  0.0000E+00  0.0000E+00  0.0000E+00  0.0000E+00  0.0000E+00  0.0000E+00  0.0000E+00  0.0000E+00  0.0000E+00  0.0000E+00  0.0000E+00  0.0000E+00  0.0000E+00
    -46.149  0.0000E+00  0.0000E+00  0.0000E+00  0.0000E+00  0.0000E+00  0.0000E+00  0.0000E+00  0.0000E+00  0.0000E+00  0.0000E+00  0.0000E+00  0.0000E+00  0.0000E+00  0.0000E+00  0.0000E+00  0.0000E+00  0.0000E+00  0.0000E+00
    -45.931  0.0000E+00  0.0000E+00  0.0000E+00  0.0000E+00  0.0000E+00  0.0000E+00  0.0000E+00  0.0000E+00  0.0000E+00  0.0000E+00  0.0000E+00  0.0000E+00  0.0000E+00  0.0000E+00  0.0000E+00  0.0000E+00  0.0000E+00  0.0000E+00
    -45.713  0.0000E+00  0.0000E+00  0.0000E+00  0.0000E+00  0.0000E+00  0.0000E+00  0.0000E+00  0.0000E+00  0.0000E+00  0.0000E+00  0.0000E+00  0.0000E+00  0.0000E+00  0.0000E+00  0.0000E+00  0.0000E+00  0.0000E+00  0.0000E+00
    -45.496  0.0000E+00  0.0000E+00  0.0000E+00  0.0000E+00  0.0000E+00  0.0000E+00  0.0000E+00  0.0000E+00  0.0000E+00  0.0000E+00  0.0000E+00  0.0000E+00  0.0000E+00  0.0000E+00  0.0000E+00  0.0000E+00  0.0000E+00  0.0000E+00
    -45.278  0.0000E+00  0.0000E+00  0.0000E+00  0.0000E+00  0.0000E+00  0.0000E+00  0.0000E+00  0.0000E+00  0.0000E+00  0.0000E+00  0.0000E+00  0.0000E+00  0.0000E+00  0.0000E+00  0.0000E+00  0.0000E+00  0.0000E+00  0.0000E+00
    -45.060  0.0000E+00  0.0000E+00  0.0000E+00  0.0000E+00  0.0000E+00  0.0000E+00  0.0000E+00  0.0000E+00  0.0000E+00  0.0000E+00  0.0000E+00  0.0000E+00  0.0000E+00  0.0000E+00  0.0000E+00  0.0000E+00  0.0000E+00  0.0000E+00
    -44.842  0.0000E+00  0.0000E+00  0.0000E+00  0.0000E+00  0.0000E+00  0.0000E+00  0.0000E+00  0.0000E+00  0.0000E+00  0.0000E+00  0.0000E+00  0.0000E+00  0.0000E+00  0.0000E+00  0.0000E+00  0.0000E+00  0.0000E+00  0.0000E+00
    -44.625  0.0000E+00  0.0000E+00  0.0000E+00  0.0000E+00  0.0000E+00  0.0000E+00  0.0000E+00  0.0000E+00  0.0000E+00  0.0000E+00  0.0000E+00  0.0000E+00  0.0000E+00  0.0000E+00  0.0000E+00  0.0000E+00  0.0000E+00  0.0000E+00
    -44.407  0.0000E+00  0.0000E+00  0.0000E+00  0.0000E+00  0.0000E+00  0.0000E+00  0.0000E+00  0.0000E+00  0.0000E+00  0.0000E+00  0.0000E+00  0.0000E+00  0.0000E+00  0.0000E+00  0.0000E+00  0.0000E+00  0.0000E+00  0.0000E+00
    -44.189  0.0000E+00  0.0000E+00  0.0000E+00  0.0000E+00  0.0000E+00  0.0000E+00  0.0000E+00  0.0000E+00  0.0000E+00  0.0000E+00  0.0000E+00  0.0000E+00  0.0000E+00  0.0000E+00  0.0000E+00  0.0000E+00  0.0000E+00  0.0000E+00
    -43.971  0.0000E+00  0.0000E+00  0.0000E+00  0.0000E+00  0.0000E+00  0.0000E+00  0.0000E+00  0.0000E+00  0.0000E+00  0.0000E+00  0.0000E+00  0.0000E+00  0.0000E+00  0.0000E+00  0.0000E+00  0.0000E+00  0.0000E+00  0.0000E+00