       N       E                     dE             d eps       ncg     rms          rms(c)
DAV:   1     0.198281479802E+04    0.19828E+04   -0.88830E+04 36040   0.191E+03
DAV:   2     0.121853695059E+03   -0.18610E+04   -0.18079E+04 32000   0.557E+02
DAV:   3    -0.856223052980E+02   -0.20748E+03   -0.18453E+03 46080   0.182E+02
DAV:   4    -0.100528245791E+03   -0.14906E+02   -0.14578E+02 47300   0.510E+01
DAV:   5    -0.100870566331E+03   -0.34232E+00   -0.34113E+00 44280   0.820E+00    0.282E+01
RMM:   6    -0.113620916600E+03   -0.12750E+02   -0.18309E+02 34687   0.870E+01    0.557E+01
RMM:   7    -0.909712062654E+02    0.22650E+02   -0.47626E+01 32075   0.526E+01    0.124E+01
RMM:   8    -0.916371647028E+02   -0.66596E+00   -0.37401E+00 46190   0.527E+00    0.615E+00
RMM:   9    -0.917673291931E+02   -0.13016E+00   -0.10430E+00 50237   0.306E+00    0.339E+00
RMM:  10    -0.918054291284E+02   -0.38100E-01   -0.31740E-01 52560   0.165E+00    0.227E+00
RMM:  11    -0.917985713131E+02    0.68578E-02   -0.90554E-02 44706   0.139E+00    0.107E+00
RMM:  12    -0.918125093396E+02   -0.13938E-01   -0.39887E-02 47562   0.781E-01    0.551E-01
RMM:  13    -0.918119416765E+02    0.56766E-03   -0.13259E-02 47578   0.365E-01    0.198E-01
RMM:  14    -0.918118415180E+02    0.10016E-03   -0.34407E-03 41172   0.199E-01    0.114E-01
RMM:  15    -0.918118881436E+02   -0.46626E-04   -0.61804E-04 26943   0.114E-01
   1 F= -.98041089E+02 E0= -.98041089E+02  d E =0.000000E+00  mag=     0.0000
