       N       E                     dE             d eps       ncg     rms          rms(c)
DAV:   1     0.173742038589E+04    0.17374E+04   -0.91734E+04 32256   0.240E+03
DAV:   2     0.940668178912E+01   -0.17280E+04   -0.16976E+04 32448   0.603E+02
DAV:   3    -0.102748392690E+03   -0.11216E+03   -0.11100E+03 40128   0.159E+02
DAV:   4    -0.105154208193E+03   -0.24058E+01   -0.24043E+01 32768   0.251E+01
DAV:   5    -0.105207298815E+03   -0.53091E-01   -0.53088E-01 40864   0.374E+00    0.388E+01
DAV:   6    -0.108893693357E+03   -0.36864E+01   -0.22083E+02 37184   0.851E+01    0.612E+01
DAV:   7    -0.112726660308E+03   -0.38330E+01   -0.45857E+02 43232   0.849E+01    0.596E+01
DAV:   8    -0.957982228590E+02    0.16928E+02   -0.80086E+01 43904   0.586E+01    0.253E+01
DAV:   9    -0.105091195361E+03   -0.92930E+01   -0.18061E+02 44288   0.443E+01    0.508E+01
DAV:  10    -0.932372147744E+02    0.11854E+02   -0.55077E+01 45120   0.306E+01    0.182E+01
DAV:  11    -0.931999352208E+02    0.37280E-01   -0.16396E+01 42240   0.176E+01    0.125E+01
DAV:  12    -0.930859517203E+02    0.11398E+00   -0.56877E+00 41792   0.842E+00    0.875E+00
DAV:  13    -0.932651205055E+02   -0.17917E+00   -0.25514E+00 45024   0.756E+00    0.907E+00
DAV:  14    -0.932501544486E+02    0.14966E-01   -0.24286E+00 44480   0.732E+00    0.564E+00
DAV:  15    -0.934924395823E+02   -0.24229E+00   -0.22602E+00 41408   0.796E+00    0.685E+00
DAV:  16    -0.934355088135E+02    0.56931E-01   -0.31028E+00 43040   0.938E+00    0.527E+00
DAV:  17    -0.933946215162E+02    0.40887E-01   -0.11017E+00 43648   0.627E+00    0.306E+00
DAV:  18    -0.934144098325E+02   -0.19788E-01   -0.59763E-02 39232   0.147E+00    0.230E+00
DAV:  19    -0.934071844683E+02    0.72254E-02   -0.91841E-02 44480   0.146E+00    0.871E-01
DAV:  20    -0.934086985113E+02   -0.15140E-02   -0.19195E-02 39584   0.552E-01    0.630E-01
DAV:  21    -0.934101430678E+02   -0.14446E-02   -0.39113E-03 40800   0.334E-01    0.360E-01
DAV:  22    -0.934106353335E+02   -0.49227E-03   -0.21173E-03 41504   0.239E-01    0.131E-01
DAV:  23    -0.934106978478E+02   -0.62514E-04   -0.55501E-04 39840   0.976E-02    0.532E-02
DAV:  24    -0.934107127373E+02   -0.14889E-04   -0.11778E-04 40160   0.516E-02    0.477E-02
DAV:  25    -0.934107269830E+02   -0.14246E-04   -0.20502E-05 37312   0.291E-02    0.274E-02
DAV:  26    -0.934107293146E+02   -0.23316E-05   -0.97980E-06 40928   0.176E-02    0.122E-02
DAV:  27    -0.934107310393E+02   -0.17247E-05   -0.24283E-06 20352   0.994E-03    0.692E-03
DAV:  28    -0.934107315075E+02   -0.46823E-06   -0.58416E-07 16864   0.407E-03
   1 F= -.93410732E+02 E0= -.93410732E+02  d E =0.000000E+00  mag=     2.5476
