 vasp.6.4.3 19Mar24 (build Mar 26 2024 14:05:37) complex                        
  
 executed on             LinuxIFC date 2024.12.16  14:10:10
 running  128 mpi-ranks, on    1 nodes
 distrk:  each k-point on   32 cores,    4 groups
 distr:  one band on NCORE=   1 cores,   32 groups


--------------------------------------------------------------------------------------------------------


 INCAR:
   ALGO = Normal
   EDIFF = 1e-06
   EDIFFG = -0.01
   ENCUT = 520
   GGA = Pe
   IBRION = -1
   ISIF = 4
   ISMEAR = -5
   ISPIN = 2
   KPAR = 4
   LCHARG = True
   LORBIT = 11
   LREAL = False
   LWAVE = False
   MAGMOM = 1*-2.554 1*2.521 1*2.522 2*-2.585 1*2.72 1*-2.554 1*2.521 1*2.522 1*-0.089 1*-0.09 1*0.234
   NELM = 200
   NSW = 0
   PREC = Accurate
   SIGMA = 0.2

 POTCAR:    PAW_PBE Fe_pv 02Aug2007               
 POTCAR:    PAW_PBE Pt 04Feb2005                  
 -----------------------------------------------------------------------------
|                                                                             |
|           W    W    AA    RRRRR   N    N  II  N    N   GGGG   !!!           |
|           W    W   A  A   R    R  NN   N  II  NN   N  G    G  !!!           |
|           W    W  A    A  R    R  N N  N  II  N N  N  G       !!!           |
|           W WW W  AAAAAA  RRRRR   N  N N  II  N  N N  G  GGG   !            |
|           WW  WW  A    A  R   R   N   NN  II  N   NN  G    G                |
|           W    W  A    A  R    R  N    N  II  N    N   GGGG   !!!           |
|                                                                             |
|     For optimal performance we recommend to set                             |
|       NCORE = 2 up to number-of-cores-per-socket                            |
|     NCORE specifies how many cores store one orbital (NPAR=cpu/NCORE).      |
|     This setting can greatly improve the performance of VASP for DFT.       |
|     The default, NCORE=1 might be grossly inefficient on modern             |
|     multi-core architectures or massively parallel machines. Do your        |
|     own testing! More info at https://www.vasp.at/wiki/index.php/NCORE      |
|     Unfortunately you need to use the default for GW and RPA                |
|     calculations (for HF NCORE is supported but not extensively tested      |
|     yet).                                                                   |
|                                                                             |
 -----------------------------------------------------------------------------

 POTCAR:    PAW_PBE Fe_pv 02Aug2007               
   SHA256 =  5d22e414b1f82158bf2c7ecb8b97b28fd0923e48cadc1c3bf74d524558f5dd32 Fe_pv/POTCAR          
   COPYR  = (c) Copyright 02Aug2007 Georg Kresse                                                    
   COPYR  = This file is part of the software VASP. Any use, copying, and all other rights are regul
   COPYR  = If you do not have a valid VASP license, you may not use, copy or distribute this file. 
   VRHFIN =Fe:  3pd7s1                                                                              
   LEXCH  = PE                                                                                      
   EATOM  =  2457.4239 eV,  180.6156 Ry                                                             
                                                                                                    
   TITEL  = PAW_PBE Fe_pv 02Aug2007                                                                 
   LULTRA =        F    use ultrasoft PP ?                                                          
   IUNSCR =        1    unscreen: 0-lin 1-nonlin 2-no                                               
   RPACOR =    1.750    partial core radius                                                         
   POMASS =   55.847; ZVAL   =   14.000    mass and valenz                                          
   RCORE  =    2.200    outmost cutoff radius                                                       
   RWIGS  =    2.200; RWIGS  =    1.164    wigner-seitz radius (au A)                               
   ENMAX  =  293.238; ENMIN  =  219.928 eV                                                          
   ICORE  =        3    local potential                                                             
   LCOR   =        T    correct aug charges                                                         
   LPAW   =        T    paw PP                                                                      
   EAUG   =  578.342                                                                                
   DEXC   =    0.000                                                                                
   RMAX   =    2.249    core radius for proj-oper                                                   
   RAUG   =    1.300    factor for augmentation sphere                                              
   RDEP   =    2.296    radius for radial grids                                                     
   RDEPT  =    1.766    core radius for aug-charge                                                  
                                                                                                    
   Atomic configuration                                                                             
    8 entries                                                                                       
     n  l   j            E        occ.                                                              
     1  0  0.50     -6993.8440   2.0000                                                             
     2  0  0.50      -814.6047   2.0000                                                             
     2  1  1.50      -693.3689   6.0000                                                             
     3  0  0.50       -89.4732   2.0000                                                             
     3  1  1.50       -55.6373   6.0000                                                             
     3  2  2.50        -3.8151   7.0000                                                             
     4  0  0.50        -4.2551   1.0000                                                             
     4  3  2.50        -1.3606   0.0000                                                             
   Description                                                                                      
     l       E           TYP  RCUT    TYP  RCUT                                                     
     1    -55.6372668     23  2.000                                                                 
     1     -5.4423304     23  2.000                                                                 
     2     -3.8151096     23  2.200                                                                 
     2     -5.1756922     23  2.200                                                                 
     0     -4.2550951     23  2.200                                                                 
     0     27.2116520     23  2.200                                                                 
     3     -1.3605826     23  2.200                                                                 
  local pseudopotential read in
  partial core-charges read in
  partial kinetic energy density read in
  atomic valenz-charges read in
  non local Contribution for L=           1  read in
    real space projection operators read in
  non local Contribution for L=           1  read in
    real space projection operators read in
  non local Contribution for L=           2  read in
    real space projection operators read in
  non local Contribution for L=           2  read in
    real space projection operators read in
  non local Contribution for L=           0  read in
    real space projection operators read in
  non local Contribution for L=           0  read in
    real space projection operators read in
    PAW grid and wavefunctions read in
 
   number of l-projection  operators is LMAX  =           6
   number of lm-projection operators is LMMAX =          18
 
 POTCAR:    PAW_PBE Pt 04Feb2005                  
   SHA256 =  3ed90460adef76debcff1cfb73ee1349b515b1a3db03439735b44de3a8db7dc8 Pt/POTCAR             
   COPYR  = (c) Copyright 04Feb2005 Georg Kresse                                                    
   COPYR  = This file is part of the software VASP. Any use, copying, and all other rights are regul
   COPYR  = If you do not have a valid VASP license, you may not use, copy or distribute this file. 
   VRHFIN =Pt: s1d9                                                                                 
   LEXCH  = PE                                                                                      
   EATOM  =   729.1176 eV,   53.5886 Ry                                                             
                                                                                                    
   TITEL  = PAW_PBE Pt 04Feb2005                                                                    
   LULTRA =        F    use ultrasoft PP ?                                                          
   IUNSCR =        1    unscreen: 0-lin 1-nonlin 2-no                                               
   RPACOR =    2.330    partial core radius                                                         
   POMASS =  195.080; ZVAL   =   10.000    mass and valenz                                          
   RCORE  =    2.600    outmost cutoff radius                                                       
   RWIGS  =    2.750; RWIGS  =    1.455    wigner-seitz radius (au A)                               
   ENMAX  =  230.283; ENMIN  =  172.712 eV                                                          
   ICORE  =        3    local potential                                                             
   LCOR   =        T    correct aug charges                                                         
   LPAW   =        T    paw PP                                                                      
   EAUG   =  358.966                                                                                
   DEXC   =    0.000                                                                                
   RMAX   =    2.658    core radius for proj-oper                                                   
   RAUG   =    1.300    factor for augmentation sphere                                              
   RDEP   =    2.761    radius for radial grids                                                     
   RDEPT  =    2.203    core radius for aug-charge                                                  
                                                                                                    
   Atomic configuration                                                                             
   16 entries                                                                                       
     n  l   j            E        occ.                                                              
     1  0  0.50    -78401.1885   2.0000                                                             
     2  0  0.50    -13770.7750   2.0000                                                             
     2  1  1.50    -11931.0468   6.0000                                                             
     3  0  0.50     -3234.7234   2.0000                                                             
     3  1  1.50     -2699.2216   6.0000                                                             
     3  2  2.50     -2119.5714  10.0000                                                             
     4  0  0.50      -695.1528   2.0000                                                             
     4  1  1.50      -519.6034   6.0000                                                             
     4  2  2.50      -306.6786  10.0000                                                             
     4  3  3.50       -70.1041  14.0000                                                             
     5  0  0.50      -101.7747   2.0000                                                             
     5  1  1.50       -55.9873   6.0000                                                             
     5  2  2.50        -6.1423   9.0000                                                             
     6  0  0.50        -5.6573   1.0000                                                             
     6  1  1.50        -6.8029   0.0000                                                             
     5  3  2.50        -1.3606   0.0000                                                             
   Description                                                                                      
     l       E           TYP  RCUT    TYP  RCUT                                                     
     2     -6.1423404     23  2.500                                                                 
     2     -7.5029230     23  2.500                                                                 
     0     -5.6573207     23  2.500                                                                 
     0      0.7416693     23  2.500                                                                 
     1     -2.7211652     23  2.600                                                                 
     1     20.4087390     23  2.600                                                                 
     3     -1.3605826     23  2.500                                                                 
  local pseudopotential read in
  partial core-charges read in
  partial kinetic energy density read in
  atomic valenz-charges read in
  non local Contribution for L=           2  read in
    real space projection operators read in
  non local Contribution for L=           2  read in
    real space projection operators read in
  non local Contribution for L=           0  read in
    real space projection operators read in
  non local Contribution for L=           0  read in
    real space projection operators read in
  non local Contribution for L=           1  read in
    real space projection operators read in
  non local Contribution for L=           1  read in
    real space projection operators read in
    PAW grid and wavefunctions read in
 
   number of l-projection  operators is LMAX  =           6
   number of lm-projection operators is LMMAX =          18
 
  PAW_PBE Fe_pv 02Aug2007               :
 energy of atom  1       EATOM=-2457.4239
 kinetic energy error for atom=    0.0062 (will be added to EATOM!!)
  PAW_PBE Pt 04Feb2005                  :
 energy of atom  2       EATOM= -729.1176
 kinetic energy error for atom=    0.0032 (will be added to EATOM!!)
 
 
 POSCAR: Fe9 Pt3
  positions in direct lattice
  velocities in cartesian coordinates


 exchange-correlation table for PE
   RHO(1)=    0.500       N(1)  =     2000
   RHO(2)=  100.500       N(2)  =     4000
 


--------------------------------------------------------------------------------------------------------


 ion  position               nearest neighbor table
   1  0.000  0.500  0.167-   4 2.59   4 2.59   5 2.59   5 2.59   7 2.62   7 2.62   7 2.62   7 2.62
                            11 2.65  11 2.65  10 2.65  10 2.65
   2  0.000  0.500  0.499-  11 2.61  11 2.61   8 2.62   8 2.62   8 2.62   8 2.62   6 2.64   6 2.64
                            12 2.64  12 2.64   5 2.68   5 2.68
   3  0.000  0.500  0.834-  10 2.61  10 2.61   9 2.62   9 2.62   9 2.62   9 2.62  12 2.64  12 2.64
                             6 2.64   6 2.64   4 2.68   4 2.68
   4  0.500  0.500  0.006-   1 2.59   7 2.59   7 2.59   1 2.59  10 2.62  10 2.62  10 2.62  10 2.62
                             9 2.68   3 2.68   9 2.68   3 2.68
   5  0.500  0.500  0.327-   1 2.59   7 2.59   7 2.59   1 2.59  11 2.62  11 2.62  11 2.62  11 2.62
                             8 2.68   2 2.68   8 2.68   2 2.68
   6  0.500  0.500  0.667-  12 2.62  12 2.62  12 2.62  12 2.62   8 2.64   2 2.64   2 2.64   8 2.64
                             9 2.64   3 2.64   9 2.64   3 2.64
   7  0.500  0.000  0.167-   4 2.59   4 2.59   5 2.59   5 2.59   1 2.62   1 2.62   1 2.62   1 2.62
                            11 2.65  11 2.65  10 2.65  10 2.65
   8  0.500  0.000  0.499-  11 2.61  11 2.61   2 2.62   2 2.62   2 2.62   2 2.62   6 2.64   6 2.64
                            12 2.64  12 2.64   5 2.68   5 2.68
   9  0.500  0.000  0.834-  10 2.61  10 2.61   3 2.62   3 2.62   3 2.62   3 2.62  12 2.64  12 2.64
                             6 2.64   6 2.64   4 2.68   4 2.68
  10  0.000  0.000  0.998-   3 2.61   9 2.61   3 2.61   9 2.61   4 2.62   4 2.62   4 2.62   4 2.62
                             1 2.65   7 2.65   7 2.65   1 2.65
  11  0.000  0.000  0.336-   2 2.61   8 2.61   2 2.61   8 2.61   5 2.62   5 2.62   5 2.62   5 2.62
                             1 2.65   7 2.65   7 2.65   1 2.65
  12  0.000  0.000  0.667-   6 2.62   6 2.62   6 2.62   6 2.62   3 2.64   9 2.64   9 2.64   3 2.64
                             2 2.64   8 2.64   8 2.64   2 2.64
 
  LATTYP: Found a simple tetragonal cell.
 ALAT       =     3.6983434870
 C/A-ratio  =     3.0443808978
  
  Lattice vectors:
  
 A1 = (   3.6983434870,   0.0000000000,   0.0000000000)
 A2 = (   0.0000000000,   3.6983434870,   0.0000000000)
 A3 = (   0.0000000000,   0.0000000000,  11.2591662654)


Analysis of symmetry for initial positions (statically):
=====================================================================
 Subroutine PRICEL returns:
 Original cell was already a primitive cell.
 

 Routine SETGRP: Setting up the symmetry group for a 
 simple tetragonal supercell.


 Subroutine GETGRP returns: Found  8 space group operations
 (whereof  8 operations were pure point group operations)
 out of a pool of 16 trial point group operations.


The static configuration has the point symmetry C_4v.


Analysis of symmetry for dynamics (positions and initial velocities):
=====================================================================
 Subroutine PRICEL returns:
 Original cell was already a primitive cell.
 

 Routine SETGRP: Setting up the symmetry group for a 
 simple tetragonal supercell.


 Subroutine GETGRP returns: Found  8 space group operations
 (whereof  8 operations were pure point group operations)
 out of a pool of 16 trial point group operations.


The dynamic configuration has the point symmetry C_4v.


Analysis of structural, dynamic, and magnetic symmetry:
=====================================================================
 Subroutine PRICEL returns:
 Original cell was already a primitive cell.
 

 Routine SETGRP: Setting up the symmetry group for a 
 simple tetragonal supercell.


 Subroutine GETGRP returns: Found  8 space group operations
 (whereof  8 operations were pure point group operations)
 out of a pool of 16 trial point group operations.


The overall configuration has the point symmetry C_4v.


 Subroutine INISYM returns: Found  8 space group operations
 (whereof  8 operations are pure point group operations),
 and found     1 'primitive' translations


----------------------------------------------------------------------------------------

                                     Primitive cell                                     

  volume of cell :     154.0000

  direct lattice vectors                    reciprocal lattice vectors
     3.698343487  0.000000000  0.000000000     0.270391326  0.000000000  0.000000000
     0.000000000  3.698343487  0.000000000     0.000000000  0.270391326  0.000000000
     0.000000000  0.000000000 11.259166265     0.000000000  0.000000000  0.088816523

  length of vectors
     3.698343487  3.698343487 11.259166265     0.270391326  0.270391326  0.088816523

  position of ions in fractional coordinates (direct lattice)
     0.000000000  0.500000000  0.166657580
     0.000000000  0.500000000  0.499460229
     0.000000000  0.500000000  0.833881660
     0.500000000  0.500000000  0.006005786
     0.500000000  0.500000000  0.327382117
     0.500000000  0.500000000  0.666631806
     0.500000000  0.000000000  0.166657580
     0.500000000  0.000000000  0.499460229
     0.500000000  0.000000000  0.833881660
     0.000000000  0.000000000  0.997651930
     0.000000000  0.000000000  0.335642244
     0.000000000  0.000000000  0.666687179

  ion indices of the primitive-cell ions
   primitive index   ion index
                 1           1
                 2           2
                 3           3
                 4           4
                 5           5
                 6           6
                 7           7
                 8           8
                 9           9
                10          10
                11          11
                12          12

----------------------------------------------------------------------------------------

 
 
 KPOINTS: pymatgen with grid density = 8800 / numb

Automatic generation of k-mesh.
 Grid dimensions read from file:
 generate k-points for:   13   13    4

 Generating k-lattice:

  Cartesian coordinates                     Fractional coordinates (reciprocal lattice)
     0.020799333  0.000000000  0.000000000     0.076923077  0.000000000  0.000000000
     0.000000000  0.020799333  0.000000000     0.000000000  0.076923077  0.000000000
     0.000000000  0.000000000  0.022204131     0.000000000  0.000000000  0.250000000

  Length of vectors
     0.020799333  0.020799333  0.022204131

  Shift w.r.t. Gamma in fractional coordinates (k-lattice)
     0.000000000  0.000000000  0.000000000

 TETIRR: Found   1010 inequivalent tetrahedra from     4056
 
 Subroutine IBZKPT returns following result:
 ===========================================
 
 Found     84 irreducible k-points:
 
 Following reciprocal coordinates:
            Coordinates               Weight
  0.000000  0.000000  0.000000      1.000000
  0.076923  0.000000  0.000000      4.000000
  0.153846  0.000000  0.000000      4.000000
  0.230769  0.000000  0.000000      4.000000
  0.307692  0.000000  0.000000      4.000000
  0.384615  0.000000  0.000000      4.000000
  0.461538  0.000000  0.000000      4.000000
  0.076923  0.076923  0.000000      4.000000
  0.153846  0.076923  0.000000      8.000000
  0.230769  0.076923  0.000000      8.000000
  0.307692  0.076923  0.000000      8.000000
  0.384615  0.076923  0.000000      8.000000
  0.461538  0.076923  0.000000      8.000000
  0.153846  0.153846  0.000000      4.000000
  0.230769  0.153846  0.000000      8.000000
  0.307692  0.153846  0.000000      8.000000
  0.384615  0.153846  0.000000      8.000000
  0.461538  0.153846  0.000000      8.000000
  0.230769  0.230769  0.000000      4.000000
  0.307692  0.230769  0.000000      8.000000
  0.384615  0.230769  0.000000      8.000000
  0.461538  0.230769  0.000000      8.000000
  0.307692  0.307692  0.000000      4.000000
  0.384615  0.307692  0.000000      8.000000
  0.461538  0.307692  0.000000      8.000000
  0.384615  0.384615  0.000000      4.000000
  0.461538  0.384615  0.000000      8.000000
  0.461538  0.461538  0.000000      4.000000
  0.000000  0.000000  0.250000      2.000000
  0.076923  0.000000  0.250000      8.000000
  0.153846  0.000000  0.250000      8.000000
  0.230769  0.000000  0.250000      8.000000
  0.307692  0.000000  0.250000      8.000000
  0.384615  0.000000  0.250000      8.000000
  0.461538  0.000000  0.250000      8.000000
  0.076923  0.076923  0.250000      8.000000
  0.153846  0.076923  0.250000     16.000000
  0.230769  0.076923  0.250000     16.000000
  0.307692  0.076923  0.250000     16.000000
  0.384615  0.076923  0.250000     16.000000
  0.461538  0.076923  0.250000     16.000000
  0.153846  0.153846  0.250000      8.000000
  0.230769  0.153846  0.250000     16.000000
  0.307692  0.153846  0.250000     16.000000
  0.384615  0.153846  0.250000     16.000000
  0.461538  0.153846  0.250000     16.000000
  0.230769  0.230769  0.250000      8.000000
  0.307692  0.230769  0.250000     16.000000
  0.384615  0.230769  0.250000     16.000000
  0.461538  0.230769  0.250000     16.000000
  0.307692  0.307692  0.250000      8.000000
  0.384615  0.307692  0.250000     16.000000
  0.461538  0.307692  0.250000     16.000000
  0.384615  0.384615  0.250000      8.000000
  0.461538  0.384615  0.250000     16.000000
  0.461538  0.461538  0.250000      8.000000
  0.000000  0.000000  0.500000      1.000000
  0.076923  0.000000  0.500000      4.000000
  0.153846  0.000000  0.500000      4.000000
  0.230769  0.000000  0.500000      4.000000
  0.307692  0.000000  0.500000      4.000000
  0.384615  0.000000  0.500000      4.000000
  0.461538  0.000000  0.500000      4.000000
  0.076923  0.076923  0.500000      4.000000
  0.153846  0.076923  0.500000      8.000000
  0.230769  0.076923  0.500000      8.000000
  0.307692  0.076923  0.500000      8.000000
  0.384615  0.076923  0.500000      8.000000
  0.461538  0.076923  0.500000      8.000000
  0.153846  0.153846  0.500000      4.000000
  0.230769  0.153846  0.500000      8.000000
  0.307692  0.153846  0.500000      8.000000
  0.384615  0.153846  0.500000      8.000000
  0.461538  0.153846  0.500000      8.000000
  0.230769  0.230769  0.500000      4.000000
  0.307692  0.230769  0.500000      8.000000
  0.384615  0.230769  0.500000      8.000000
  0.461538  0.230769  0.500000      8.000000
  0.307692  0.307692  0.500000      4.000000
  0.384615  0.307692  0.500000      8.000000
  0.461538  0.307692  0.500000      8.000000
  0.384615  0.384615  0.500000      4.000000
  0.461538  0.384615  0.500000      8.000000
  0.461538  0.461538  0.500000      4.000000
 
 Following cartesian coordinates:
            Coordinates               Weight
  0.000000  0.000000  0.000000      1.000000
  0.020799  0.000000  0.000000      4.000000
  0.041599  0.000000  0.000000      4.000000
  0.062398  0.000000  0.000000      4.000000
  0.083197  0.000000  0.000000      4.000000
  0.103997  0.000000  0.000000      4.000000
  0.124796  0.000000  0.000000      4.000000
  0.020799  0.020799  0.000000      4.000000
  0.041599  0.020799  0.000000      8.000000
  0.062398  0.020799  0.000000      8.000000
  0.083197  0.020799  0.000000      8.000000
  0.103997  0.020799  0.000000      8.000000
  0.124796  0.020799  0.000000      8.000000
  0.041599  0.041599  0.000000      4.000000
  0.062398  0.041599  0.000000      8.000000
  0.083197  0.041599  0.000000      8.000000
  0.103997  0.041599  0.000000      8.000000
  0.124796  0.041599  0.000000      8.000000
  0.062398  0.062398  0.000000      4.000000
  0.083197  0.062398  0.000000      8.000000
  0.103997  0.062398  0.000000      8.000000
  0.124796  0.062398  0.000000      8.000000
  0.083197  0.083197  0.000000      4.000000
  0.103997  0.083197  0.000000      8.000000
  0.124796  0.083197  0.000000      8.000000
  0.103997  0.103997  0.000000      4.000000
  0.124796  0.103997  0.000000      8.000000
  0.124796  0.124796  0.000000      4.000000
  0.000000  0.000000  0.022204      2.000000
  0.020799  0.000000  0.022204      8.000000
  0.041599  0.000000  0.022204      8.000000
  0.062398  0.000000  0.022204      8.000000
  0.083197  0.000000  0.022204      8.000000
  0.103997  0.000000  0.022204      8.000000
  0.124796  0.000000  0.022204      8.000000
  0.020799  0.020799  0.022204      8.000000
  0.041599  0.020799  0.022204     16.000000
  0.062398  0.020799  0.022204     16.000000
  0.083197  0.020799  0.022204     16.000000
  0.103997  0.020799  0.022204     16.000000
  0.124796  0.020799  0.022204     16.000000
  0.041599  0.041599  0.022204      8.000000
  0.062398  0.041599  0.022204     16.000000
  0.083197  0.041599  0.022204     16.000000
  0.103997  0.041599  0.022204     16.000000
  0.124796  0.041599  0.022204     16.000000
  0.062398  0.062398  0.022204      8.000000
  0.083197  0.062398  0.022204     16.000000
  0.103997  0.062398  0.022204     16.000000
  0.124796  0.062398  0.022204     16.000000
  0.083197  0.083197  0.022204      8.000000
  0.103997  0.083197  0.022204     16.000000
  0.124796  0.083197  0.022204     16.000000
  0.103997  0.103997  0.022204      8.000000
  0.124796  0.103997  0.022204     16.000000
  0.124796  0.124796  0.022204      8.000000
  0.000000  0.000000  0.044408      1.000000
  0.020799  0.000000  0.044408      4.000000
  0.041599  0.000000  0.044408      4.000000
  0.062398  0.000000  0.044408      4.000000
  0.083197  0.000000  0.044408      4.000000
  0.103997  0.000000  0.044408      4.000000
  0.124796  0.000000  0.044408      4.000000
  0.020799  0.020799  0.044408      4.000000
  0.041599  0.020799  0.044408      8.000000
  0.062398  0.020799  0.044408      8.000000
  0.083197  0.020799  0.044408      8.000000
  0.103997  0.020799  0.044408      8.000000
  0.124796  0.020799  0.044408      8.000000
  0.041599  0.041599  0.044408      4.000000
  0.062398  0.041599  0.044408      8.000000
  0.083197  0.041599  0.044408      8.000000
  0.103997  0.041599  0.044408      8.000000
  0.124796  0.041599  0.044408      8.000000
  0.062398  0.062398  0.044408      4.000000
  0.083197  0.062398  0.044408      8.000000
  0.103997  0.062398  0.044408      8.000000
  0.124796  0.062398  0.044408      8.000000
  0.083197  0.083197  0.044408      4.000000
  0.103997  0.083197  0.044408      8.000000
  0.124796  0.083197  0.044408      8.000000
  0.103997  0.103997  0.044408      4.000000
  0.124796  0.103997  0.044408      8.000000
  0.124796  0.124796  0.044408      4.000000
 


--------------------------------------------------------------------------------------------------------




 Dimension of arrays:
   k-points           NKPTS =     84   k-points in BZ     NKDIM =     84   number of bands    NBANDS=     96
   number of dos      NEDOS =    301   number of ions     NIONS =     12
   non local maximal  LDIM  =      6   non local SUM 2l+1 LMDIM =     18
   total plane-waves  NPLWV =  65856
   max r-space proj   IRMAX =      1   max aug-charges    IRDMAX=  26097
   dimension x,y,z NGX =    28 NGY =   28 NGZ =   84
   dimension x,y,z NGXF=    56 NGYF=   56 NGZF=  168
   support grid    NGXF=    56 NGYF=   56 NGZF=  168
   ions per type =               9   3
   NGX,Y,Z   is equivalent  to a cutoff of  12.59, 12.59, 12.40 a.u.
   NGXF,Y,Z  is equivalent  to a cutoff of  25.17, 25.17, 24.81 a.u.

 SYSTEM =  unknown system                          
 POSCAR =  Fe9 Pt3                                 

 Startparameter for this run:
   NWRITE =      2    write-flag & timer
   PREC   = accura    normal or accurate (medium, high low for compatibility)
   ISTART =      0    job   : 0-new  1-cont  2-samecut
   ICHARG =      2    charge: 1-file 2-atom 10-const
   ISPIN  =      2    spin polarized calculation?
   LNONCOLLINEAR =      F non collinear calculations
   LSORBIT =      F    spin-orbit coupling
   INIWAV =      1    electr: 0-lowe 1-rand  2-diag
   LASPH  =      F    aspherical Exc in radial PAW
 Electronic Relaxation 1
   ENCUT  =  520.0 eV  38.22 Ry    6.18 a.u.   6.88  6.88 20.93*2*pi/ulx,y,z
   ENINI  =  520.0     initial cutoff
   ENAUG  =  578.3 eV  augmentation charge cutoff
   NELM   =    200;   NELMIN=  2; NELMDL=  0     # of ELM steps 
   EDIFF  = 0.1E-05   stopping-criterion for ELM
   LREAL  =      F    real-space projection
   NLSPLINE    = F    spline interpolate recip. space projectors
   LCOMPAT=      F    compatible to vasp.4.4
   GGA_COMPAT  = T    GGA compatible to vasp.4.4-vasp.4.6
   LMAXPAW     = -100 max onsite density
   LMAXMIX     =    2 max onsite mixed and CHGCAR
   VOSKOWN=      0    Vosko Wilk Nusair interpolation
   ROPT   =    0.00000   0.00000
 Ionic relaxation
   EDIFFG = -.1E-01   stopping-criterion for IOM
   NSW    =      0    number of steps for IOM
   NBLOCK =      1;   KBLOCK =      1    inner block; outer block 
   IBRION =     -1    ionic relax: 0-MD 1-quasi-New 2-CG
   NFREE  =      0    steps in history (QN), initial steepest desc. (CG)
   ISIF   =      4    stress and relaxation
   IWAVPR =     10    prediction:  0-non 1-charg 2-wave 3-comb
   ISYM   =      2    0-nonsym 1-usesym 2-fastsym
   LCORR  =      T    Harris-Foulkes like correction to forces

   POTIM  = 0.5000    time-step for ionic-motion
   TEIN   =    0.0    initial temperature
   TEBEG  =    0.0;   TEEND  =   0.0 temperature during run
   SMASS  =  -3.00    Nose mass-parameter (am)
   estimated Nose-frequenzy (Omega)   =  0.10E-29 period in steps = 0.13E+47 mass=  -0.313E-27a.u.
   SCALEE = 1.0000    scale energy and forces
   NPACO  =    256;   APACO  = 10.0  distance and # of slots for P.C.
   PSTRESS=    0.0 pullay stress

  Mass of Ions in am
   POMASS =  55.85195.08
  Ionic Valenz
   ZVAL   =  14.00 10.00
  Atomic Wigner-Seitz radii
   RWIGS  =  -1.00 -1.00
  virtual crystal weights 
   VCA    =   1.00  1.00
   NELECT =     156.0000    total number of electrons
   NUPDOWN=      -1.0000    fix difference up-down

 DOS related values:
   EMIN   =  10.00;   EMAX   =-10.00  energy-range for DOS
   EFERMI =   0.00;   METHOD = LEGACY      
   ISMEAR =    -5;   SIGMA  =   0.20  broadening in eV -4-tet -1-fermi 0-gaus

 Electronic relaxation 2 (details)
   IALGO  =     38    algorithm
   LDIAG  =      T    sub-space diagonalisation (order eigenvalues)
   LSUBROT=      F    optimize rotation matrix (better conditioning)
   TURBO    =      0    0=normal 1=particle mesh
   IRESTART =      0    0=no restart 2=restart with 2 vectors
   NREBOOT  =      0    no. of reboots
   NMIN     =      0    reboot dimension
   EREF     =   0.00    reference energy to select bands
   IMIX   =      4    mixing-type and parameters
     AMIX     =   0.40;   BMIX     =  1.00
     AMIX_MAG =   1.60;   BMIX_MAG =  1.00
     AMIN     =   0.10
     WC   =   100.;   INIMIX=   1;  MIXPRE=   1;  MAXMIX= -45

 Intra band minimization:
   WEIMIN = 0.0000     energy-eigenvalue tresh-hold
   EBREAK =  0.26E-08  absolut break condition
   DEPER  =   0.30     relativ break condition  

   TIME   =   0.40     timestep for ELM

  volume/ion in A,a.u.               =      12.83        86.60
  Fermi-wavevector in a.u.,A,eV,Ry     =   1.644155  3.107003 36.779896  2.703246
  Thomas-Fermi vector in A             =   2.734169
 
 Write flags
   LWAVE        =      F    write WAVECAR
   LDOWNSAMPLE  =      F    k-point downsampling of WAVECAR
   LCHARG       =      T    write CHGCAR
   LVTOT        =      F    write LOCPOT, total local potential
   LVHAR        =      F    write LOCPOT, Hartree potential only
   WRT_POTENTIAL= false  ! write potential to hdf5 file
   LELF         =      F    write electronic localiz. function (ELF)
   LORBIT       =     11    0 simple, 1 ext, 2 COOP (PROOUT), +10 PAW based schemes


 Dipole corrections
   LMONO      =      F    monopole corrections only (constant potential shift)
   LDIPOL     =      F    correct potential (dipole corrections)
   IDIPOL     =      0    1-x, 2-y, 3-z, 4-all directions 
   EPSILON    =  1.0000000 bulk dielectric constant
   LVACPOTAV  =      F  vacuum potentials using an averaging scheme for the charge density
   VACPOTFLAT =  0.1000000 required flatness to determine vacuum potential
 Exchange correlation treatment:
   GGA     = PE    functional components
   XC_C    = 1    coefficients multiplying the functional components
   LIBXC   =     F    Libxc                    
   VOSKOWN =     0    Vosko Wilk Nusair interpolation
   LHFCALC =     F    Hartree Fock is set to
   LHFONE  =     F    Hartree Fock one center treatment
   AEXX    =    0.0000 exact exchange contribution

 Parameters of functionals:
   PE:
     No parameter
 
 Van der Waals corrections
   IVDW    =     0    specifies the selected vdW correction

 Linear response parameters
   LEPSILON=     F    determine dielectric tensor
   LRPA    =     F    only Hartree local field effects (RPA)
   LNABLA  =     F    use nabla operator in PAW spheres
   LVEL    =     F    velocity operator in full k-point grid
   CSHIFT  =0.1000    complex shift for real part using Kramers Kronig
   OMEGAMAX=  -1.0    maximum frequency
   DEG_THRESHOLD= 0.2000000E-02 threshold for treating states as degnerate
   RTIME   =   -0.100 relaxation time in fs
  (WPLASMAI=    0.000 imaginary part of plasma frequency in eV, 0.658/RTIME)
   DFIELD  = 0.0000000 0.0000000 0.0000000 field for delta impulse in time
 
  Optional k-point grid parameters
   LKPOINTS_OPT  =     F    use optional k-point grid
   KPOINTS_OPT_MODE=     1    mode for optional k-point grid
 
 Orbital magnetization related:
   ORBITALMAG=     F  switch on orbital magnetization
   LCHIMAG   =     F  perturbation theory with respect to B field
   DQ        =  0.001000  dq finite difference perturbation B field
   LLRAUG    =     F  two centre corrections for induced B field
   LBONE     =     F  B-component reconstruction in AE one-centre
   LVGVCALC  =     T  calculate vGv susceptibility
   LVGVAPPL  =     F  apply vGv susceptibility instead of pGv for G=0

 Random number generation:
   RANDOM_GENERATOR = DEFAULT
   PCG_SEED         = not used


--------------------------------------------------------------------------------------------------------


 Static calculation
 charge density and potential will be updated during run
 spin polarized calculation
 Variant of blocked Davidson
 Davidson routine will perform the subspace rotation
 perform sub-space diagonalisation
    after iterative eigenvector-optimisation
 modified Broyden-mixing scheme, WC =      100.0
 initial mixing is a Kerker type mixing with AMIX =  0.4000 and BMIX =      1.0000
 Hartree-type preconditioning will be used
 using additional bands           18
 reciprocal scheme for non local part
 use partial core corrections
 calculate Harris-corrections to forces 
   (improved forces if not selfconsistent)
 use gradient corrections 
 use of overlap-Matrix (Vanderbilt PP)
 Fermi weights with tetrahedron method with Bloechl corrections


--------------------------------------------------------------------------------------------------------


  energy-cutoff  :      520.00
  volume of cell :      154.00
      direct lattice vectors                 reciprocal lattice vectors
     3.698343487  0.000000000  0.000000000     0.270391326  0.000000000  0.000000000
     0.000000000  3.698343487  0.000000000     0.000000000  0.270391326  0.000000000
     0.000000000  0.000000000 11.259166265     0.000000000  0.000000000  0.088816523

  length of vectors
     3.698343487  3.698343487 11.259166265     0.270391326  0.270391326  0.088816523


 
 k-points in units of 2pi/SCALE and weight: pymatgen with grid density = 8800 / numb
   0.00000000  0.00000000  0.00000000       0.001
   0.02079933  0.00000000  0.00000000       0.006
   0.04159867  0.00000000  0.00000000       0.006
   0.06239800  0.00000000  0.00000000       0.006
   0.08319733  0.00000000  0.00000000       0.006
   0.10399666  0.00000000  0.00000000       0.006
   0.12479600  0.00000000  0.00000000       0.006
   0.02079933  0.02079933  0.00000000       0.006
   0.04159867  0.02079933  0.00000000       0.012
   0.06239800  0.02079933  0.00000000       0.012
   0.08319733  0.02079933  0.00000000       0.012
   0.10399666  0.02079933  0.00000000       0.012
   0.12479600  0.02079933  0.00000000       0.012
   0.04159867  0.04159867  0.00000000       0.006
   0.06239800  0.04159867  0.00000000       0.012
   0.08319733  0.04159867  0.00000000       0.012
   0.10399666  0.04159867  0.00000000       0.012
   0.12479600  0.04159867  0.00000000       0.012
   0.06239800  0.06239800  0.00000000       0.006
   0.08319733  0.06239800  0.00000000       0.012
   0.10399666  0.06239800  0.00000000       0.012
   0.12479600  0.06239800  0.00000000       0.012
   0.08319733  0.08319733  0.00000000       0.006
   0.10399666  0.08319733  0.00000000       0.012
   0.12479600  0.08319733  0.00000000       0.012
   0.10399666  0.10399666  0.00000000       0.006
   0.12479600  0.10399666  0.00000000       0.012
   0.12479600  0.12479600  0.00000000       0.006
   0.00000000  0.00000000  0.02220413       0.003
   0.02079933  0.00000000  0.02220413       0.012
   0.04159867  0.00000000  0.02220413       0.012
   0.06239800  0.00000000  0.02220413       0.012
   0.08319733  0.00000000  0.02220413       0.012
   0.10399666  0.00000000  0.02220413       0.012
   0.12479600  0.00000000  0.02220413       0.012
   0.02079933  0.02079933  0.02220413       0.012
   0.04159867  0.02079933  0.02220413       0.024
   0.06239800  0.02079933  0.02220413       0.024
   0.08319733  0.02079933  0.02220413       0.024
   0.10399666  0.02079933  0.02220413       0.024
   0.12479600  0.02079933  0.02220413       0.024
   0.04159867  0.04159867  0.02220413       0.012
   0.06239800  0.04159867  0.02220413       0.024
   0.08319733  0.04159867  0.02220413       0.024
   0.10399666  0.04159867  0.02220413       0.024
   0.12479600  0.04159867  0.02220413       0.024
   0.06239800  0.06239800  0.02220413       0.012
   0.08319733  0.06239800  0.02220413       0.024
   0.10399666  0.06239800  0.02220413       0.024
   0.12479600  0.06239800  0.02220413       0.024
   0.08319733  0.08319733  0.02220413       0.012
   0.10399666  0.08319733  0.02220413       0.024
   0.12479600  0.08319733  0.02220413       0.024
   0.10399666  0.10399666  0.02220413       0.012
   0.12479600  0.10399666  0.02220413       0.024
   0.12479600  0.12479600  0.02220413       0.012
   0.00000000  0.00000000  0.04440826       0.001
   0.02079933  0.00000000  0.04440826       0.006
   0.04159867  0.00000000  0.04440826       0.006
   0.06239800  0.00000000  0.04440826       0.006
   0.08319733  0.00000000  0.04440826       0.006
   0.10399666  0.00000000  0.04440826       0.006
   0.12479600  0.00000000  0.04440826       0.006
   0.02079933  0.02079933  0.04440826       0.006
   0.04159867  0.02079933  0.04440826       0.012
   0.06239800  0.02079933  0.04440826       0.012
   0.08319733  0.02079933  0.04440826       0.012
   0.10399666  0.02079933  0.04440826       0.012
   0.12479600  0.02079933  0.04440826       0.012
   0.04159867  0.04159867  0.04440826       0.006
   0.06239800  0.04159867  0.04440826       0.012
   0.08319733  0.04159867  0.04440826       0.012
   0.10399666  0.04159867  0.04440826       0.012
   0.12479600  0.04159867  0.04440826       0.012
   0.06239800  0.06239800  0.04440826       0.006
   0.08319733  0.06239800  0.04440826       0.012
   0.10399666  0.06239800  0.04440826       0.012
   0.12479600  0.06239800  0.04440826       0.012
   0.08319733  0.08319733  0.04440826       0.006
   0.10399666  0.08319733  0.04440826       0.012
   0.12479600  0.08319733  0.04440826       0.012
   0.10399666  0.10399666  0.04440826       0.006
   0.12479600  0.10399666  0.04440826       0.012
   0.12479600  0.12479600  0.04440826       0.006
 
 k-points in reciprocal lattice and weights: pymatgen with grid density = 8800 / numb
   0.00000000  0.00000000  0.00000000       0.001
   0.07692308  0.00000000  0.00000000       0.006
   0.15384615  0.00000000  0.00000000       0.006
   0.23076923  0.00000000  0.00000000       0.006
   0.30769231  0.00000000  0.00000000       0.006
   0.38461538  0.00000000  0.00000000       0.006
   0.46153846  0.00000000  0.00000000       0.006
   0.07692308  0.07692308  0.00000000       0.006
   0.15384615  0.07692308  0.00000000       0.012
   0.23076923  0.07692308  0.00000000       0.012
   0.30769231  0.07692308  0.00000000       0.012
   0.38461538  0.07692308  0.00000000       0.012
   0.46153846  0.07692308  0.00000000       0.012
   0.15384615  0.15384615  0.00000000       0.006
   0.23076923  0.15384615  0.00000000       0.012
   0.30769231  0.15384615  0.00000000       0.012
   0.38461538  0.15384615  0.00000000       0.012
   0.46153846  0.15384615  0.00000000       0.012
   0.23076923  0.23076923  0.00000000       0.006
   0.30769231  0.23076923  0.00000000       0.012
   0.38461538  0.23076923  0.00000000       0.012
   0.46153846  0.23076923  0.00000000       0.012
   0.30769231  0.30769231  0.00000000       0.006
   0.38461538  0.30769231  0.00000000       0.012
   0.46153846  0.30769231  0.00000000       0.012
   0.38461538  0.38461538  0.00000000       0.006
   0.46153846  0.38461538  0.00000000       0.012
   0.46153846  0.46153846  0.00000000       0.006
   0.00000000  0.00000000  0.25000000       0.003
   0.07692308  0.00000000  0.25000000       0.012
   0.15384615  0.00000000  0.25000000       0.012
   0.23076923  0.00000000  0.25000000       0.012
   0.30769231  0.00000000  0.25000000       0.012
   0.38461538  0.00000000  0.25000000       0.012
   0.46153846  0.00000000  0.25000000       0.012
   0.07692308  0.07692308  0.25000000       0.012
   0.15384615  0.07692308  0.25000000       0.024
   0.23076923  0.07692308  0.25000000       0.024
   0.30769231  0.07692308  0.25000000       0.024
   0.38461538  0.07692308  0.25000000       0.024
   0.46153846  0.07692308  0.25000000       0.024
   0.15384615  0.15384615  0.25000000       0.012
   0.23076923  0.15384615  0.25000000       0.024
   0.30769231  0.15384615  0.25000000       0.024
   0.38461538  0.15384615  0.25000000       0.024
   0.46153846  0.15384615  0.25000000       0.024
   0.23076923  0.23076923  0.25000000       0.012
   0.30769231  0.23076923  0.25000000       0.024
   0.38461538  0.23076923  0.25000000       0.024
   0.46153846  0.23076923  0.25000000       0.024
   0.30769231  0.30769231  0.25000000       0.012
   0.38461538  0.30769231  0.25000000       0.024
   0.46153846  0.30769231  0.25000000       0.024
   0.38461538  0.38461538  0.25000000       0.012
   0.46153846  0.38461538  0.25000000       0.024
   0.46153846  0.46153846  0.25000000       0.012
   0.00000000  0.00000000  0.50000000       0.001
   0.07692308  0.00000000  0.50000000       0.006
   0.15384615  0.00000000  0.50000000       0.006
   0.23076923  0.00000000  0.50000000       0.006
   0.30769231  0.00000000  0.50000000       0.006
   0.38461538  0.00000000  0.50000000       0.006
   0.46153846  0.00000000  0.50000000       0.006
   0.07692308  0.07692308  0.50000000       0.006
   0.15384615  0.07692308  0.50000000       0.012
   0.23076923  0.07692308  0.50000000       0.012
   0.30769231  0.07692308  0.50000000       0.012
   0.38461538  0.07692308  0.50000000       0.012
   0.46153846  0.07692308  0.50000000       0.012
   0.15384615  0.15384615  0.50000000       0.006
   0.23076923  0.15384615  0.50000000       0.012
   0.30769231  0.15384615  0.50000000       0.012
   0.38461538  0.15384615  0.50000000       0.012
   0.46153846  0.15384615  0.50000000       0.012
   0.23076923  0.23076923  0.50000000       0.006
   0.30769231  0.23076923  0.50000000       0.012
   0.38461538  0.23076923  0.50000000       0.012
   0.46153846  0.23076923  0.50000000       0.012
   0.30769231  0.30769231  0.50000000       0.006
   0.38461538  0.30769231  0.50000000       0.012
   0.46153846  0.30769231  0.50000000       0.012
   0.38461538  0.38461538  0.50000000       0.006
   0.46153846  0.38461538  0.50000000       0.012
   0.46153846  0.46153846  0.50000000       0.006
 
 position of ions in fractional coordinates (direct lattice) 
   0.00000000  0.50000000  0.16665758
   0.00000000  0.50000000  0.49946023
   0.00000000  0.50000000  0.83388166
   0.50000000  0.50000000  0.00600579
   0.50000000  0.50000000  0.32738212
   0.50000000  0.50000000  0.66663181
   0.50000000  0.00000000  0.16665758
   0.50000000  0.00000000  0.49946023
   0.50000000  0.00000000  0.83388166
   0.00000000  0.00000000  0.99765193
   0.00000000  0.00000000  0.33564224
   0.00000000  0.00000000  0.66668718
 
 position of ions in cartesian coordinates  (Angst):
   0.00000000  1.84917174  1.87642540
   0.00000000  1.84917174  5.62350576
   0.00000000  1.84917174  9.38881226
   1.84917174  1.84917174  0.06762014
   1.84917174  1.84917174  3.68604969
   1.84917174  1.84917174  7.50571834
   1.84917174  0.00000000  1.87642540
   1.84917174  0.00000000  5.62350576
   1.84917174  0.00000000  9.38881226
   0.00000000  0.00000000 11.23272895
   0.00000000  0.00000000  3.77905183
   0.00000000  0.00000000  7.50634180
 


--------------------------------------------------------------------------------------------------------


 k-point     1 :   0.0000 0.0000 0.0000  plane waves:    4145
 k-point     2 :   0.0769 0.0000 0.0000  plane waves:    4131
 k-point     3 :   0.1538 0.0000 0.0000  plane waves:    4124
 k-point     4 :   0.2308 0.0000 0.0000  plane waves:    4128
 k-point     5 :   0.3077 0.0000 0.0000  plane waves:    4140
 k-point     6 :   0.3846 0.0000 0.0000  plane waves:    4136
 k-point     7 :   0.4615 0.0000 0.0000  plane waves:    4150
 k-point     8 :   0.0769 0.0769 0.0000  plane waves:    4117
 k-point     9 :   0.1538 0.0769 0.0000  plane waves:    4121
 k-point    10 :   0.2308 0.0769 0.0000  plane waves:    4128
 k-point    11 :   0.3077 0.0769 0.0000  plane waves:    4134
 k-point    12 :   0.3846 0.0769 0.0000  plane waves:    4144
 k-point    13 :   0.4615 0.0769 0.0000  plane waves:    4144
 k-point    14 :   0.1538 0.1538 0.0000  plane waves:    4120
 k-point    15 :   0.2308 0.1538 0.0000  plane waves:    4140
 k-point    16 :   0.3077 0.1538 0.0000  plane waves:    4144
 k-point    17 :   0.3846 0.1538 0.0000  plane waves:    4145
 k-point    18 :   0.4615 0.1538 0.0000  plane waves:    4154
 k-point    19 :   0.2308 0.2308 0.0000  plane waves:    4160
 k-point    20 :   0.3077 0.2308 0.0000  plane waves:    4164
 k-point    21 :   0.3846 0.2308 0.0000  plane waves:    4149
 k-point    22 :   0.4615 0.2308 0.0000  plane waves:    4154
 k-point    23 :   0.3077 0.3077 0.0000  plane waves:    4164
 k-point    24 :   0.3846 0.3077 0.0000  plane waves:    4156
 k-point    25 :   0.4615 0.3077 0.0000  plane waves:    4165
 k-point    26 :   0.3846 0.3846 0.0000  plane waves:    4156
 k-point    27 :   0.4615 0.3846 0.0000  plane waves:    4168
 k-point    28 :   0.4615 0.4615 0.0000  plane waves:    4152
 k-point    29 :   0.0000 0.0000 0.2500  plane waves:    4146
 k-point    30 :   0.0769 0.0000 0.2500  plane waves:    4131
 k-point    31 :   0.1538 0.0000 0.2500  plane waves:    4131
 k-point    32 :   0.2308 0.0000 0.2500  plane waves:    4131
 k-point    33 :   0.3077 0.0000 0.2500  plane waves:    4149
 k-point    34 :   0.3846 0.0000 0.2500  plane waves:    4136
 k-point    35 :   0.4615 0.0000 0.2500  plane waves:    4150
 k-point    36 :   0.0769 0.0769 0.2500  plane waves:    4131
 k-point    37 :   0.1538 0.0769 0.2500  plane waves:    4133
 k-point    38 :   0.2308 0.0769 0.2500  plane waves:    4131
 k-point    39 :   0.3077 0.0769 0.2500  plane waves:    4139
 k-point    40 :   0.3846 0.0769 0.2500  plane waves:    4140
 k-point    41 :   0.4615 0.0769 0.2500  plane waves:    4148
 k-point    42 :   0.1538 0.1538 0.2500  plane waves:    4134
 k-point    43 :   0.2308 0.1538 0.2500  plane waves:    4141
 k-point    44 :   0.3077 0.1538 0.2500  plane waves:    4144
 k-point    45 :   0.3846 0.1538 0.2500  plane waves:    4146
 k-point    46 :   0.4615 0.1538 0.2500  plane waves:    4148
 k-point    47 :   0.2308 0.2308 0.2500  plane waves:    4144
 k-point    48 :   0.3077 0.2308 0.2500  plane waves:    4155
 k-point    49 :   0.3846 0.2308 0.2500  plane waves:    4162
 k-point    50 :   0.4615 0.2308 0.2500  plane waves:    4158
 k-point    51 :   0.3077 0.3077 0.2500  plane waves:    4160
 k-point    52 :   0.3846 0.3077 0.2500  plane waves:    4157
 k-point    53 :   0.4615 0.3077 0.2500  plane waves:    4155
 k-point    54 :   0.3846 0.3846 0.2500  plane waves:    4169
 k-point    55 :   0.4615 0.3846 0.2500  plane waves:    4164
 k-point    56 :   0.4615 0.4615 0.2500  plane waves:    4170
 k-point    57 :   0.0000 0.0000 0.5000  plane waves:    4154
 k-point    58 :   0.0769 0.0000 0.5000  plane waves:    4154
 k-point    59 :   0.1538 0.0000 0.5000  plane waves:    4156
 k-point    60 :   0.2308 0.0000 0.5000  plane waves:    4144
 k-point    61 :   0.3077 0.0000 0.5000  plane waves:    4138
 k-point    62 :   0.3846 0.0000 0.5000  plane waves:    4134
 k-point    63 :   0.4615 0.0000 0.5000  plane waves:    4142
 k-point    64 :   0.0769 0.0769 0.5000  plane waves:    4152
 k-point    65 :   0.1538 0.0769 0.5000  plane waves:    4140
 k-point    66 :   0.2308 0.0769 0.5000  plane waves:    4136
 k-point    67 :   0.3077 0.0769 0.5000  plane waves:    4138
 k-point    68 :   0.3846 0.0769 0.5000  plane waves:    4150
 k-point    69 :   0.4615 0.0769 0.5000  plane waves:    4150
 k-point    70 :   0.1538 0.1538 0.5000  plane waves:    4122
 k-point    71 :   0.2308 0.1538 0.5000  plane waves:    4138
 k-point    72 :   0.3077 0.1538 0.5000  plane waves:    4132
 k-point    73 :   0.3846 0.1538 0.5000  plane waves:    4162
 k-point    74 :   0.4615 0.1538 0.5000  plane waves:    4154
 k-point    75 :   0.2308 0.2308 0.5000  plane waves:    4132
 k-point    76 :   0.3077 0.2308 0.5000  plane waves:    4146
 k-point    77 :   0.3846 0.2308 0.5000  plane waves:    4156
 k-point    78 :   0.4615 0.2308 0.5000  plane waves:    4158
 k-point    79 :   0.3077 0.3077 0.5000  plane waves:    4158
 k-point    80 :   0.3846 0.3077 0.5000  plane waves:    4156
 k-point    81 :   0.4615 0.3077 0.5000  plane waves:    4164
 k-point    82 :   0.3846 0.3846 0.5000  plane waves:    4166
 k-point    83 :   0.4615 0.3846 0.5000  plane waves:    4154
 k-point    84 :   0.4615 0.4615 0.5000  plane waves:    4150

 maximum and minimum number of plane-waves per node :      4170     4117

 maximum number of plane-waves:      4170
 maximum index in each direction: 
   IXMAX=    6   IYMAX=    6   IZMAX=   20
   IXMIN=   -7   IYMIN=   -7   IZMIN=  -21


 serial   3D FFT for wavefunctions
 parallel 3D FFT for charge:
    minimum data exchange during FFTs selected (reduces bandwidth)


 total amount of memory used by VASP MPI-rank0   175901. kBytes
=======================================================================

   base      :      30000. kBytes
   nonl-proj :     102217. kBytes
   fftplans  :        888. kBytes
   grid      :       6813. kBytes
   one-center:        373. kBytes
   wavefun   :      35610. kBytes
 
     INWAV:  cpu time      0.0000: real time      0.0000
 Broyden mixing: mesh for mixing (old mesh)
   NGX = 13   NGY = 13   NGZ = 41
  (NGX  = 56   NGY  = 56   NGZ  =168)
  gives a total of   6929 points

 initial charge density was supplied:
 charge density of overlapping atoms calculated
 number of electron     156.0000000 magnetization       2.5830000
 keeping initial charge density in first step


--------------------------------------------------------------------------------------------------------


 Maximum index for augmentation-charges         1036 (set IRDMAX)


--------------------------------------------------------------------------------------------------------


 First call to EWALD:  gamma=   0.331
 Maximum number of real-space cells 4x 4x 2
 Maximum number of reciprocal cells 2x 2x 5

    FEWALD:  cpu time      0.0039: real time      0.0039


--------------------------------------- Ionic step        1  -------------------------------------------




--------------------------------------- Iteration      1(   1)  ---------------------------------------


    POTLOK:  cpu time      0.0272: real time      0.0544
    SETDIJ:  cpu time      0.0080: real time      0.0083
     EDDAV:  cpu time      4.3220: real time      4.3530
 BZINTS: Fermi energy:   24.580375;  156.000000 electrons
         Band energy: 0.517293E+03;  BLOECHL correction:   -0.081485
       DOS:  cpu time      0.1020: real time      0.1032
    --------------------------------------------
      LOOP:  cpu time      4.4592: real time      4.5189

 eigenvalue-minimisations  : 32256
 total energy-change (2. order) : 0.1737420E+04  (-0.9173353E+04)
 number of electron     156.0000000 magnetization       2.5830000
 augmentation part      156.0000000 magnetization       2.5830000

 Free energy of the ion-electron system (eV)
  ---------------------------------------------------
  alpha Z        PSCENC =      1105.13071145
  Ewald energy   TEWEN  =    -18164.75644141
  -Hartree energ DENC   =     -5957.49219735
  -exchange      EXHF   =         0.00000000
  -V(xc)+E(xc)   XCENC  =       657.12206963
  PAW double counting   =     20094.54172073   -20818.52138369
  entropy T*S    EENTRO =         0.00000000
  eigenvalues    EBANDS =       517.29296220
  atomic energy  EATOM  =     24304.10294433
  Solvation  Ediel_sol  =         0.00000000
  ---------------------------------------------------
  free energy    TOTEN  =      1737.42038589 eV

  energy without entropy =     1737.42038589  energy(sigma->0) =     1737.42038589


--------------------------------------------------------------------------------------------------------




--------------------------------------- Iteration      1(   2)  ---------------------------------------


     EDDAV:  cpu time      4.5822: real time      4.6281
 BZINTS: Fermi energy:   12.793828;  156.000000 electrons
         Band energy:-0.121072E+04;  BLOECHL correction:   -0.043002
       DOS:  cpu time      0.0989: real time      0.1006
    --------------------------------------------
      LOOP:  cpu time      4.6811: real time      4.7287

 eigenvalue-minimisations  : 32448
 total energy-change (2. order) :-0.1728014E+04  (-0.1697648E+04)
 number of electron     156.0000000 magnetization       2.5830000
 augmentation part      156.0000000 magnetization       2.5830000

 Free energy of the ion-electron system (eV)
  ---------------------------------------------------
  alpha Z        PSCENC =      1105.13071145
  Ewald energy   TEWEN  =    -18164.75644141
  -Hartree energ DENC   =     -5957.49219735
  -exchange      EXHF   =         0.00000000
  -V(xc)+E(xc)   XCENC  =       657.12206963
  PAW double counting   =     20094.54172073   -20818.52138369
  entropy T*S    EENTRO =         0.00000000
  eigenvalues    EBANDS =     -1210.72074189
  atomic energy  EATOM  =     24304.10294433
  Solvation  Ediel_sol  =         0.00000000
  ---------------------------------------------------
  free energy    TOTEN  =         9.40668179 eV

  energy without entropy =        9.40668179  energy(sigma->0) =        9.40668179


--------------------------------------------------------------------------------------------------------




--------------------------------------- Iteration      1(   3)  ---------------------------------------


     EDDAV:  cpu time      5.4295: real time      5.4800
 BZINTS: Fermi energy:   11.858687;  156.000000 electrons
         Band energy:-0.132288E+04;  BLOECHL correction:   -0.028429
       DOS:  cpu time      0.0999: real time      0.1007
    --------------------------------------------
      LOOP:  cpu time      5.5294: real time      5.5807

 eigenvalue-minimisations  : 40128
 total energy-change (2. order) :-0.1121551E+03  (-0.1110007E+03)
 number of electron     156.0000000 magnetization       2.5830000
 augmentation part      156.0000000 magnetization       2.5830000

 Free energy of the ion-electron system (eV)
  ---------------------------------------------------
  alpha Z        PSCENC =      1105.13071145
  Ewald energy   TEWEN  =    -18164.75644141
  -Hartree energ DENC   =     -5957.49219735
  -exchange      EXHF   =         0.00000000
  -V(xc)+E(xc)   XCENC  =       657.12206963
  PAW double counting   =     20094.54172073   -20818.52138369
  entropy T*S    EENTRO =         0.00000000
  eigenvalues    EBANDS =     -1322.87581637
  atomic energy  EATOM  =     24304.10294433
  Solvation  Ediel_sol  =         0.00000000
  ---------------------------------------------------
  free energy    TOTEN  =      -102.74839269 eV

  energy without entropy =     -102.74839269  energy(sigma->0) =     -102.74839269


--------------------------------------------------------------------------------------------------------




--------------------------------------- Iteration      1(   4)  ---------------------------------------


     EDDAV:  cpu time      4.4298: real time      4.4614
 BZINTS: Fermi energy:   11.847964;  156.000000 electrons
         Band energy:-0.132528E+04;  BLOECHL correction:   -0.028226
       DOS:  cpu time      0.1001: real time      0.1008
    --------------------------------------------
      LOOP:  cpu time      4.5299: real time      4.5621

 eigenvalue-minimisations  : 32768
 total energy-change (2. order) :-0.2405816E+01  (-0.2404320E+01)
 number of electron     156.0000000 magnetization       2.5830000
 augmentation part      156.0000000 magnetization       2.5830000

 Free energy of the ion-electron system (eV)
  ---------------------------------------------------
  alpha Z        PSCENC =      1105.13071145
  Ewald energy   TEWEN  =    -18164.75644141
  -Hartree energ DENC   =     -5957.49219735
  -exchange      EXHF   =         0.00000000
  -V(xc)+E(xc)   XCENC  =       657.12206963
  PAW double counting   =     20094.54172073   -20818.52138369
  entropy T*S    EENTRO =         0.00000000
  eigenvalues    EBANDS =     -1325.28163188
  atomic energy  EATOM  =     24304.10294433
  Solvation  Ediel_sol  =         0.00000000
  ---------------------------------------------------
  free energy    TOTEN  =      -105.15420819 eV

  energy without entropy =     -105.15420819  energy(sigma->0) =     -105.15420819


--------------------------------------------------------------------------------------------------------




--------------------------------------- Iteration      1(   5)  ---------------------------------------


     EDDAV:  cpu time      5.6226: real time      5.6742
 BZINTS: Fermi energy:   11.847802;  156.000000 electrons
         Band energy:-0.132533E+04;  BLOECHL correction:   -0.028222
       DOS:  cpu time      0.1005: real time      0.1013
    CHARGE:  cpu time      0.1502: real time      0.1514
    MIXING:  cpu time      0.0073: real time      0.0076
    --------------------------------------------
      LOOP:  cpu time      5.8807: real time      5.9344

 eigenvalue-minimisations  : 40864
 total energy-change (2. order) :-0.5309062E-01  (-0.5308845E-01)
 number of electron     156.0000280 magnetization       2.4783247
 augmentation part       79.2434522 magnetization       1.8055814

 Broyden mixing:
  rms(total) = 0.38829E+01    rms(broyden)= 0.38822E+01
  rms(prec ) = 0.43783E+01
  weight for this iteration     100.00

 Free energy of the ion-electron system (eV)
  ---------------------------------------------------
  alpha Z        PSCENC =      1105.13071145
  Ewald energy   TEWEN  =    -18164.75644141
  -Hartree energ DENC   =     -5957.49219735
  -exchange      EXHF   =         0.00000000
  -V(xc)+E(xc)   XCENC  =       657.12206963
  PAW double counting   =     20094.54172073   -20818.52138369
  entropy T*S    EENTRO =         0.00000000
  eigenvalues    EBANDS =     -1325.33472250
  atomic energy  EATOM  =     24304.10294433
  Solvation  Ediel_sol  =         0.00000000
  ---------------------------------------------------
  free energy    TOTEN  =      -105.20729881 eV

  energy without entropy =     -105.20729881  energy(sigma->0) =     -105.20729881


--------------------------------------------------------------------------------------------------------




--------------------------------------- Iteration      1(   6)  ---------------------------------------


    POTLOK:  cpu time      0.0307: real time      0.0444
    SETDIJ:  cpu time      0.0076: real time      0.0077
     EDDAV:  cpu time      5.1244: real time      5.1570
 BZINTS: Fermi energy:    9.132496;  156.000000 electrons
         Band energy:-0.175129E+04;  BLOECHL correction:   -0.027196
       DOS:  cpu time      0.1077: real time      0.1083
    CHARGE:  cpu time      0.1461: real time      0.1470
    MIXING:  cpu time      0.0036: real time      0.0036
    --------------------------------------------
      LOOP:  cpu time      5.4202: real time      5.4681

 eigenvalue-minimisations  : 37184
 total energy-change (2. order) :-0.3686395E+01  (-0.2208328E+02)
 number of electron     156.0000320 magnetization       2.5318250
 augmentation part       88.4229996 magnetization       1.9800456

 Broyden mixing:
  rms(total) = 0.61169E+01    rms(broyden)= 0.61167E+01
  rms(prec ) = 0.80957E+01
  weight for this iteration     100.00

 eigenvalues of (default mixing * dielectric matrix)
  average eigenvalue GAMMA=   0.2556
  0.2556

 Free energy of the ion-electron system (eV)
  ---------------------------------------------------
  alpha Z        PSCENC =      1105.13071145
  Ewald energy   TEWEN  =    -18164.75644141
  -Hartree energ DENC   =     -5541.18380397
  -exchange      EXHF   =         0.00000000
  -V(xc)+E(xc)   XCENC  =       639.38594365
  PAW double counting   =     20461.43872650   -21161.72026170
  entropy T*S    EENTRO =         0.00000000
  eigenvalues    EBANDS =     -1751.29151221
  atomic energy  EATOM  =     24304.10294433
  Solvation  Ediel_sol  =         0.00000000
  ---------------------------------------------------
  free energy    TOTEN  =      -108.89369336 eV

  energy without entropy =     -108.89369336  energy(sigma->0) =     -108.89369336


--------------------------------------------------------------------------------------------------------




--------------------------------------- Iteration      1(   7)  ---------------------------------------


    POTLOK:  cpu time      0.0309: real time      0.0446
    SETDIJ:  cpu time      0.0075: real time      0.0076
     EDDAV:  cpu time      5.9435: real time      5.9812
 BZINTS: Fermi energy:   10.069209;  156.000000 electrons
         Band energy:-0.164772E+04;  BLOECHL correction:   -0.032916
       DOS:  cpu time      0.1078: real time      0.1086
    CHARGE:  cpu time      0.1463: real time      0.1472
    MIXING:  cpu time      0.0034: real time      0.0036
    --------------------------------------------
      LOOP:  cpu time      6.2395: real time      6.2927

 eigenvalue-minimisations  : 43232
 total energy-change (2. order) :-0.3832967E+01  (-0.4585686E+02)
 number of electron     156.0000304 magnetization       2.8182569
 augmentation part       85.5282454 magnetization       1.6690253

 Broyden mixing:
  rms(total) = 0.59558E+01    rms(broyden)= 0.59555E+01
  rms(prec ) = 0.81065E+01
  weight for this iteration     100.00

 eigenvalues of (default mixing * dielectric matrix)
  average eigenvalue GAMMA=   0.3484
  0.5524  0.1444

 Free energy of the ion-electron system (eV)
  ---------------------------------------------------
  alpha Z        PSCENC =      1105.13071145
  Ewald energy   TEWEN  =    -18164.75644141
  -Hartree energ DENC   =     -5632.29119855
  -exchange      EXHF   =         0.00000000
  -V(xc)+E(xc)   XCENC  =       641.96529391
  PAW double counting   =     20832.81558461   -21551.97548577
  entropy T*S    EENTRO =         0.00000000
  eigenvalues    EBANDS =     -1647.71806888
  atomic energy  EATOM  =     24304.10294433
  Solvation  Ediel_sol  =         0.00000000
  ---------------------------------------------------
  free energy    TOTEN  =      -112.72666031 eV

  energy without entropy =     -112.72666031  energy(sigma->0) =     -112.72666031


--------------------------------------------------------------------------------------------------------




--------------------------------------- Iteration      1(   8)  ---------------------------------------


    POTLOK:  cpu time      0.0434: real time      0.0517
    SETDIJ:  cpu time      0.0077: real time      0.0078
     EDDAV:  cpu time      6.0915: real time      6.1303
 BZINTS: Fermi energy:   10.428750;  156.000000 electrons
         Band energy:-0.154884E+04;  BLOECHL correction:   -0.024873
       DOS:  cpu time      0.1075: real time      0.1081
    CHARGE:  cpu time      0.1479: real time      0.1487
    MIXING:  cpu time      0.0017: real time      0.0017
    --------------------------------------------
      LOOP:  cpu time      6.3998: real time      6.4484

 eigenvalue-minimisations  : 43904
 total energy-change (2. order) : 0.1692844E+02  (-0.8008629E+01)
 number of electron     156.0000293 magnetization       2.8466046
 augmentation part       83.6853433 magnetization       2.8004277

 Broyden mixing:
  rms(total) = 0.25269E+01    rms(broyden)= 0.25262E+01
  rms(prec ) = 0.34687E+01
  weight for this iteration     100.00

 eigenvalues of (default mixing * dielectric matrix)
  average eigenvalue GAMMA=   0.4850
  0.9892  0.3263  0.1395

 Free energy of the ion-electron system (eV)
  ---------------------------------------------------
  alpha Z        PSCENC =      1105.13071145
  Ewald energy   TEWEN  =    -18164.75644141
  -Hartree energ DENC   =     -5696.68690806
  -exchange      EXHF   =         0.00000000
  -V(xc)+E(xc)   XCENC  =       643.94399279
  PAW double counting   =     21293.31081980   -22032.00545867
  entropy T*S    EENTRO =         0.00000000
  eigenvalues    EBANDS =     -1548.83788309
  atomic energy  EATOM  =     24304.10294433
  Solvation  Ediel_sol  =         0.00000000
  ---------------------------------------------------
  free energy    TOTEN  =       -95.79822286 eV

  energy without entropy =      -95.79822286  energy(sigma->0) =      -95.79822286


--------------------------------------------------------------------------------------------------------




--------------------------------------- Iteration      1(   9)  ---------------------------------------


    POTLOK:  cpu time      0.0299: real time      0.0447
    SETDIJ:  cpu time      0.0080: real time      0.0080
     EDDAV:  cpu time      6.0379: real time      6.0757
 BZINTS: Fermi energy:   10.385156;  156.000000 electrons
         Band energy:-0.157922E+04;  BLOECHL correction:   -0.020230
       DOS:  cpu time      0.1081: real time      0.1088
    CHARGE:  cpu time      0.1464: real time      0.1472
    MIXING:  cpu time      0.0018: real time      0.0018
    --------------------------------------------
      LOOP:  cpu time      6.3320: real time      6.3862

 eigenvalue-minimisations  : 44288
 total energy-change (2. order) :-0.9292973E+01  (-0.1806071E+02)
 number of electron     156.0000301 magnetization       3.1037805
 augmentation part       84.2513338 magnetization       0.9718002

 Broyden mixing:
  rms(total) = 0.50812E+01    rms(broyden)= 0.50808E+01
  rms(prec ) = 0.75653E+01
  weight for this iteration     100.00

 eigenvalues of (default mixing * dielectric matrix)
  average eigenvalue GAMMA=   0.4625
  1.2348  0.3695  0.1388  0.1070

 Free energy of the ion-electron system (eV)
  ---------------------------------------------------
  alpha Z        PSCENC =      1105.13071145
  Ewald energy   TEWEN  =    -18164.75644141
  -Hartree energ DENC   =     -5669.39961301
  -exchange      EXHF   =         0.00000000
  -V(xc)+E(xc)   XCENC  =       643.15191015
  PAW double counting   =     21531.47732498   -22275.58291166
  entropy T*S    EENTRO =         0.00000000
  eigenvalues    EBANDS =     -1579.21512020
  atomic energy  EATOM  =     24304.10294433
  Solvation  Ediel_sol  =         0.00000000
  ---------------------------------------------------
  free energy    TOTEN  =      -105.09119536 eV

  energy without entropy =     -105.09119536  energy(sigma->0) =     -105.09119536


--------------------------------------------------------------------------------------------------------




--------------------------------------- Iteration      1(  10)  ---------------------------------------


    POTLOK:  cpu time      0.0311: real time      0.0445
    SETDIJ:  cpu time      0.0073: real time      0.0074
     EDDAV:  cpu time      6.1515: real time      6.1906
 BZINTS: Fermi energy:    9.957243;  156.000000 electrons
         Band energy:-0.159537E+04;  BLOECHL correction:   -0.024177
       DOS:  cpu time      0.1078: real time      0.1085
    CHARGE:  cpu time      0.1456: real time      0.1465
    MIXING:  cpu time      0.0019: real time      0.0019
    --------------------------------------------
      LOOP:  cpu time      6.4453: real time      6.4993

 eigenvalue-minimisations  : 45120
 total energy-change (2. order) : 0.1185398E+02  (-0.5507731E+01)
 number of electron     156.0000297 magnetization       3.1219823
 augmentation part       84.6187631 magnetization       2.4895712

 Broyden mixing:
  rms(total) = 0.18207E+01    rms(broyden)= 0.18201E+01
  rms(prec ) = 0.22242E+01
  weight for this iteration     100.00

 eigenvalues of (default mixing * dielectric matrix)
  average eigenvalue GAMMA=   0.4102
  1.2441  0.3245  0.2109  0.1596  0.1118

 Free energy of the ion-electron system (eV)
  ---------------------------------------------------
  alpha Z        PSCENC =      1105.13071145
  Ewald energy   TEWEN  =    -18164.75644141
  -Hartree energ DENC   =     -5637.23344589
  -exchange      EXHF   =         0.00000000
  -V(xc)+E(xc)   XCENC  =       641.90611759
  PAW double counting   =     21705.91885495   -22452.93500478
  entropy T*S    EENTRO =         0.00000000
  eigenvalues    EBANDS =     -1595.37095101
  atomic energy  EATOM  =     24304.10294433
  Solvation  Ediel_sol  =         0.00000000
  ---------------------------------------------------
  free energy    TOTEN  =       -93.23721477 eV

  energy without entropy =      -93.23721477  energy(sigma->0) =      -93.23721477


--------------------------------------------------------------------------------------------------------




--------------------------------------- Iteration      1(  11)  ---------------------------------------


    POTLOK:  cpu time      0.0444: real time      0.0453
    SETDIJ:  cpu time      0.0081: real time      0.0082
     EDDAV:  cpu time      5.7478: real time      5.7866
 BZINTS: Fermi energy:    9.944373;  156.000000 electrons
         Band energy:-0.159881E+04;  BLOECHL correction:   -0.025540
       DOS:  cpu time      0.1071: real time      0.1078
    CHARGE:  cpu time      0.1469: real time      0.1477
    MIXING:  cpu time      0.0018: real time      0.0019
    --------------------------------------------
      LOOP:  cpu time      6.0562: real time      6.0976

 eigenvalue-minimisations  : 42240
 total energy-change (2. order) : 0.3727955E-01  (-0.1639639E+01)
 number of electron     156.0000297 magnetization       3.1569148
 augmentation part       84.7367821 magnetization       2.2641486

 Broyden mixing:
  rms(total) = 0.12534E+01    rms(broyden)= 0.12530E+01
  rms(prec ) = 0.18466E+01
  weight for this iteration     100.00

 eigenvalues of (default mixing * dielectric matrix)
  average eigenvalue GAMMA=   0.3685
  1.2191  0.3002  0.3002  0.1428  0.1428  0.1060

 Free energy of the ion-electron system (eV)
  ---------------------------------------------------
  alpha Z        PSCENC =      1105.13071145
  Ewald energy   TEWEN  =    -18164.75644141
  -Hartree energ DENC   =     -5632.57300037
  -exchange      EXHF   =         0.00000000
  -V(xc)+E(xc)   XCENC  =       641.93632042
  PAW double counting   =     21748.61527791   -22496.84373878
  entropy T*S    EENTRO =         0.00000000
  eigenvalues    EBANDS =     -1598.81200877
  atomic energy  EATOM  =     24304.10294433
  Solvation  Ediel_sol  =         0.00000000
  ---------------------------------------------------
  free energy    TOTEN  =       -93.19993522 eV

  energy without entropy =      -93.19993522  energy(sigma->0) =      -93.19993522


--------------------------------------------------------------------------------------------------------




--------------------------------------- Iteration      1(  12)  ---------------------------------------


    POTLOK:  cpu time      0.0431: real time      0.0441
    SETDIJ:  cpu time      0.0075: real time      0.0076
     EDDAV:  cpu time      5.8441: real time      5.8937
 BZINTS: Fermi energy:    9.966922;  156.000000 electrons
         Band energy:-0.159840E+04;  BLOECHL correction:   -0.025426
       DOS:  cpu time      0.1066: real time      0.1075
    CHARGE:  cpu time      0.1462: real time      0.1474
    MIXING:  cpu time      0.0018: real time      0.0019
    --------------------------------------------
      LOOP:  cpu time      6.1495: real time      6.2022

 eigenvalue-minimisations  : 41792
 total energy-change (2. order) : 0.1139835E+00  (-0.5687660E+00)
 number of electron     156.0000295 magnetization       3.1495713
 augmentation part       84.6532944 magnetization       2.5444100

 Broyden mixing:
  rms(total) = 0.87549E+00    rms(broyden)= 0.87535E+00
  rms(prec ) = 0.10259E+01
  weight for this iteration     100.00

 eigenvalues of (default mixing * dielectric matrix)
  average eigenvalue GAMMA=   0.4053
  1.2243  0.4443  0.4443  0.3337  0.1438  0.1438  0.1031

 Free energy of the ion-electron system (eV)
  ---------------------------------------------------
  alpha Z        PSCENC =      1105.13071145
  Ewald energy   TEWEN  =    -18164.75644141
  -Hartree energ DENC   =     -5631.94096347
  -exchange      EXHF   =         0.00000000
  -V(xc)+E(xc)   XCENC  =       642.37498970
  PAW double counting   =     21783.97705902   -22533.57281751
  entropy T*S    EENTRO =         0.00000000
  eigenvalues    EBANDS =     -1598.40143383
  atomic energy  EATOM  =     24304.10294433
  Solvation  Ediel_sol  =         0.00000000
  ---------------------------------------------------
  free energy    TOTEN  =       -93.08595172 eV

  energy without entropy =      -93.08595172  energy(sigma->0) =      -93.08595172


--------------------------------------------------------------------------------------------------------




--------------------------------------- Iteration      1(  13)  ---------------------------------------


    POTLOK:  cpu time      0.0430: real time      0.0439
    SETDIJ:  cpu time      0.0084: real time      0.0084
     EDDAV:  cpu time      6.1403: real time      6.1793
 BZINTS: Fermi energy:    9.963677;  156.000000 electrons
         Band energy:-0.159945E+04;  BLOECHL correction:   -0.024450
       DOS:  cpu time      0.1077: real time      0.1084
    CHARGE:  cpu time      0.1472: real time      0.1482
    MIXING:  cpu time      0.0019: real time      0.0019
    --------------------------------------------
      LOOP:  cpu time      6.4484: real time      6.4902

 eigenvalue-minimisations  : 45024
 total energy-change (2. order) :-0.1791688E+00  (-0.2551412E+00)
 number of electron     156.0000295 magnetization       3.1259840
 augmentation part       84.6867225 magnetization       2.5185265

 Broyden mixing:
  rms(total) = 0.90667E+00    rms(broyden)= 0.90662E+00
  rms(prec ) = 0.12323E+01
  weight for this iteration     100.00

 eigenvalues of (default mixing * dielectric matrix)
  average eigenvalue GAMMA=   0.4203
  1.2403  0.6325  0.6325  0.3449  0.1512  0.1512  0.1062  0.1040

 Free energy of the ion-electron system (eV)
  ---------------------------------------------------
  alpha Z        PSCENC =      1105.13071145
  Ewald energy   TEWEN  =    -18164.75644141
  -Hartree energ DENC   =     -5630.33763032
  -exchange      EXHF   =         0.00000000
  -V(xc)+E(xc)   XCENC  =       642.58321489
  PAW double counting   =     21815.58767460   -22566.12802848
  entropy T*S    EENTRO =         0.00000000
  eigenvalues    EBANDS =     -1599.44756558
  atomic energy  EATOM  =     24304.10294433
  Solvation  Ediel_sol  =         0.00000000
  ---------------------------------------------------
  free energy    TOTEN  =       -93.26512051 eV

  energy without entropy =      -93.26512051  energy(sigma->0) =      -93.26512051


--------------------------------------------------------------------------------------------------------




--------------------------------------- Iteration      1(  14)  ---------------------------------------


    POTLOK:  cpu time      0.0306: real time      0.0440
    SETDIJ:  cpu time      0.0080: real time      0.0080
     EDDAV:  cpu time      6.1674: real time      6.2057
[...]
     81      10.2620      0.00000
     82      10.3175      0.00000
     83      10.5204      0.00000
     84      10.7163      0.00000
     85      10.7868      0.00000
     86      10.9649      0.00000
     87      10.9950      0.00000
     88      11.0756      0.00000
     89      11.4034      0.00000
     90      11.5192      0.00000
     91      11.5231      0.00000
     92      11.6479      0.00000
     93      11.6955      0.00000
     94      12.1521      0.00000
     95      12.2522      0.00000
     96      12.3892      0.00000


--------------------------------------------------------------------------------------------------------


 soft charge-density along one line, spin component           1
         0         1         2         3         4         5         6         7         8         9
 total charge-density along one line
 
 soft charge-density along one line, spin component           2
         0         1         2         3         4         5         6         7         8         9
 total charge-density along one line
 
 pseudopotential strength for first ion, spin component:           1
-42.656   0.000  -0.000   6.638  -0.000   0.000  -0.000   0.000
  0.000 -42.652   0.000  -0.000   6.636  -0.000   0.000   0.000
 -0.000   0.000 -42.593   0.000  -0.000   6.611   0.000   0.000
  6.638  -0.000   0.000   5.904  -0.000   0.000   0.000  -0.000
 -0.000   6.636  -0.000  -0.000   5.904  -0.000  -0.000  -0.000
  0.000  -0.000   6.611   0.000  -0.000   5.910  -0.000  -0.000
 -0.000   0.000   0.000   0.000  -0.000  -0.000  -0.219   0.000
  0.000   0.000   0.000  -0.000  -0.000  -0.000   0.000  -0.194
 -0.000   0.000  -0.000   0.000  -0.000  -0.000   0.000   0.000
  0.000   0.000   0.000  -0.000  -0.000  -0.000   0.000  -0.000
 -0.000   0.000   0.000   0.000  -0.000   0.000  -0.000  -0.000
 -0.000   0.000   0.000   0.000  -0.000  -0.000  -0.763   0.000
  0.000   0.000   0.000  -0.000  -0.000  -0.000   0.000  -0.738
 -0.000   0.000   0.000   0.000  -0.000  -0.000   0.000   0.000
  0.000  -0.000   0.000  -0.000  -0.000  -0.000   0.000  -0.000
 -0.000   0.000   0.000   0.000  -0.000   0.000  -0.000  -0.000
 -0.000  -0.000   0.000  -0.000   0.000   0.000   0.000  -0.000
 -0.000  -0.000   0.000  -0.000   0.000   0.000   0.000  -0.000
 pseudopotential strength for first ion, spin component:           2
-44.868   0.000  -0.000   7.569  -0.000   0.000   0.000   0.000
  0.000 -44.848   0.000  -0.000   7.560  -0.000   0.000   0.000
 -0.000   0.000 -44.703   0.000  -0.000   7.502   0.000   0.000
  7.569  -0.000   0.000   5.644  -0.000   0.000  -0.000  -0.000
 -0.000   7.560  -0.000  -0.000   5.645  -0.000  -0.000  -0.000
  0.000  -0.000   7.502   0.000  -0.000   5.657  -0.000  -0.000
  0.000   0.000   0.000  -0.000  -0.000  -0.000  -1.927   0.000
  0.000   0.000   0.000  -0.000  -0.000  -0.000   0.000  -2.093
 -0.000   0.000   0.000   0.000  -0.000  -0.000   0.000   0.000
  0.000   0.000   0.000  -0.000   0.000  -0.000   0.000  -0.000
 -0.000   0.000  -0.000   0.000  -0.000   0.000  -0.000  -0.000
 -0.000   0.000   0.000  -0.000  -0.000  -0.000  -2.443   0.000
  0.000   0.000   0.000  -0.000  -0.000  -0.000   0.000  -2.607
 -0.000   0.000   0.000   0.000  -0.000  -0.000   0.000   0.000
  0.000  -0.000   0.000  -0.000  -0.000  -0.000   0.000  -0.000
 -0.000   0.000  -0.000   0.000  -0.000   0.000  -0.000  -0.000
 -0.000  -0.000   0.000  -0.000   0.000   0.000   0.000  -0.000
 -0.000  -0.000   0.000  -0.000   0.000   0.000   0.000  -0.000
 total augmentation occupancy for first ion, spin component:           1
  1.992   0.000   0.000  -0.026   0.000   0.000   0.000  -0.000  -0.000   0.000   0.000   0.000   0.000   0.000   0.000   0.000
  0.000   1.992   0.000   0.000  -0.026   0.000  -0.000   0.000  -0.000   0.000   0.000   0.000   0.000   0.000   0.000  -0.000
  0.000   0.000   1.992   0.000   0.000  -0.025   0.000  -0.000   0.000   0.000   0.000   0.000   0.000   0.000  -0.000   0.000
 -0.026   0.000   0.000   0.177   0.000   0.000   0.000  -0.000   0.000   0.000   0.000  -0.000   0.000   0.000  -0.000   0.000
  0.000  -0.026   0.000   0.000   0.180   0.000  -0.000   0.000   0.000   0.000   0.000  -0.000   0.000  -0.000   0.000  -0.000
  0.000   0.000  -0.025   0.000   0.000   0.175   0.000   0.000   0.000   0.000   0.000   0.000   0.000  -0.000  -0.000   0.000
  0.000  -0.000   0.000   0.000  -0.000   0.000   2.704   0.000  -0.000   0.000  -0.000  -1.510   0.000  -0.000   0.000   0.000
 -0.000   0.000  -0.000  -0.000   0.000   0.000   0.000   3.056   0.000   0.000  -0.000  -0.000  -2.104   0.000   0.000  -0.000
 -0.000  -0.000   0.000   0.000   0.000   0.000  -0.000   0.000   3.301   0.000   0.169   0.000   0.000  -1.922   0.000  -0.043
  0.000   0.000   0.000   0.000   0.000   0.000   0.000   0.000   0.000   2.755  -0.000   0.000   0.000   0.000  -1.544   0.000
  0.000   0.000   0.000   0.000   0.000   0.000  -0.000  -0.000   0.169  -0.000   3.165   0.000   0.000  -0.044  -0.000  -1.864
  0.000   0.000   0.000  -0.000  -0.000   0.000  -1.510  -0.000   0.000   0.000   0.000   1.719  -0.000   0.000   0.000   0.000
  0.000   0.000   0.000   0.000   0.000   0.000   0.000  -2.104   0.000   0.000   0.000  -0.000   2.372   0.000   0.000   0.000
  0.000   0.000   0.000   0.000  -0.000  -0.000  -0.000   0.000  -1.922   0.000  -0.044   0.000   0.000   1.847   0.000  -0.033
  0.000   0.000  -0.000  -0.000   0.000  -0.000   0.000   0.000   0.000  -1.544  -0.000   0.000   0.000   0.000   1.792   0.000
  0.000  -0.000   0.000   0.000  -0.000   0.000   0.000  -0.000  -0.043   0.000  -1.864   0.000   0.000  -0.033   0.000   1.846
  0.000   0.000   0.000   0.000  -0.000   0.000   0.000   0.000  -0.077   0.000   0.124   0.000   0.000   0.060   0.000  -0.055
  0.000  -0.000   0.000   0.000   0.000   0.000   0.000   0.000   0.009  -0.000  -0.015   0.000   0.000  -0.006  -0.000   0.007
 total augmentation occupancy for first ion, spin component:           2
  0.002   0.000   0.000   0.008   0.000   0.000  -0.000  -0.000   0.000   0.000   0.000   0.000  -0.000   0.000   0.000  -0.000
  0.000   0.002  -0.000   0.000   0.009   0.000   0.000   0.000   0.000   0.000   0.000   0.000   0.000  -0.000   0.000  -0.000
  0.000  -0.000   0.002   0.000  -0.000   0.009   0.000   0.000   0.000   0.000   0.000   0.000   0.000   0.000  -0.000   0.000
  0.008   0.000   0.000  -0.003   0.000   0.000   0.000   0.000   0.000   0.000   0.000   0.000   0.000   0.000   0.000   0.000
  0.000   0.009  -0.000   0.000   0.007  -0.000   0.000   0.000  -0.000   0.000  -0.000  -0.000  -0.000   0.000   0.000  -0.000
  0.000   0.000   0.009   0.000  -0.000   0.007   0.000   0.000   0.000  -0.000  -0.000   0.000   0.000   0.000  -0.000   0.000
 -0.000   0.000   0.000   0.000   0.000   0.000  -2.122   0.000   0.000   0.000   0.000   0.900   0.000   0.000   0.000   0.000
 -0.000   0.000   0.000   0.000   0.000   0.000   0.000  -2.134  -0.000   0.000   0.000   0.000   0.705   0.000   0.000  -0.000
  0.000   0.000   0.000   0.000  -0.000   0.000   0.000  -0.000  -2.573   0.000  -0.084  -0.000   0.000   1.089   0.000   0.126
  0.000   0.000   0.000   0.000   0.000  -0.000   0.000   0.000   0.000  -2.114   0.000   0.000   0.000  -0.000   0.907  -0.000
  0.000   0.000   0.000   0.000  -0.000  -0.000   0.000   0.000  -0.084   0.000  -2.503   0.000   0.000   0.125   0.000   0.992
  0.000   0.000   0.000   0.000  -0.000   0.000   0.900   0.000  -0.000   0.000   0.000  -0.176   0.000  -0.000   0.000   0.000
 -0.000   0.000   0.000   0.000  -0.000   0.000   0.000   0.705   0.000   0.000   0.000   0.000   0.054   0.000   0.000  -0.000
  0.000  -0.000   0.000   0.000   0.000   0.000   0.000   0.000   1.089  -0.000   0.125  -0.000   0.000  -0.313  -0.000  -0.141
  0.000   0.000  -0.000   0.000   0.000  -0.000   0.000   0.000   0.000   0.907   0.000   0.000   0.000  -0.000  -0.154  -0.000
 -0.000  -0.000   0.000   0.000  -0.000   0.000   0.000  -0.000   0.126  -0.000   0.992   0.000  -0.000  -0.141  -0.000  -0.198
  0.000  -0.000   0.000   0.000  -0.000   0.000   0.000   0.000  -0.012  -0.000  -0.035   0.000   0.000   0.005   0.000   0.057
  0.000  -0.000  -0.000   0.000   0.000   0.000   0.000   0.000  -0.004   0.000   0.010   0.000   0.000   0.001  -0.000  -0.003


------------------------ aborting loop because EDIFF is reached ----------------------------------------





 total charge

# of ion       s       p       d       tot
------------------------------------------
    1        0.352   6.331   6.056  12.739
    2        0.351   6.331   6.029  12.710
    3        0.351   6.331   6.029  12.710
    4        0.356   6.338   6.018  12.712
    5        0.356   6.338   6.018  12.712
    6        0.352   6.334   6.026  12.712
    7        0.352   6.331   6.056  12.739
    8        0.351   6.331   6.029  12.710
    9        0.351   6.331   6.029  12.710
   10        0.778   0.701   8.036   9.515
   11        0.778   0.701   8.036   9.515
   12        0.763   0.719   8.033   9.515
--------------------------------------------------
tot          5.492  59.116  78.392 142.999



 magnetization (x)

# of ion       s       p       d       tot
------------------------------------------
    1       -0.005   0.009  -2.550  -2.546
    2        0.010   0.003   2.506   2.520
    3        0.010   0.003   2.507   2.520
    4       -0.015  -0.026  -2.544  -2.585
    5       -0.015  -0.026  -2.544  -2.585
    6        0.004  -0.016   2.736   2.725
    7       -0.005   0.009  -2.550  -2.546
    8        0.010   0.003   2.506   2.520
    9        0.010   0.003   2.507   2.520
   10        0.009   0.020  -0.116  -0.088
   11        0.009   0.020  -0.117  -0.088
   12       -0.037  -0.089   0.359   0.232
--------------------------------------------------
tot         -0.017  -0.087   2.700   2.596
 
    CHARGE:  cpu time      0.1489: real time      0.1498
    FORLOC:  cpu time      0.0017: real time      0.0018
    FORNL :  cpu time      0.5528: real time      0.5556
    STRESS:  cpu time      4.0960: real time      4.1313
    FORCOR:  cpu time      0.0211: real time      0.0213
    FORHAR:  cpu time      0.0026: real time      0.0026
    MIXING:  cpu time      0.0027: real time      0.0028
    OFIELD:  cpu time      0.0014: real time      0.0014

  FORCE on cell =-STRESS in cart. coord.  units (eV):
  Direction    XX          YY          ZZ          XY          YZ          ZX
  --------------------------------------------------------------------------------------
  Alpha Z  1105.13071  1105.13071  1105.13071
  Ewald   -6045.75241 -6045.75241 -6073.27367    -0.00000    -0.00000     0.00000
  Hartree  1879.39845  1879.39845  1852.67003    -0.00000    -0.00000    -0.00000
  E(xc)    -943.85826  -943.85826  -943.78435    -0.00000     0.00000     0.00000
  Local    1081.56595  1081.56595  1145.03879    -0.00000     0.00000     0.00000
  n-local  -212.21520  -226.30759  -219.30734    14.72019     0.05211     0.01906
  augment  1440.59804  1440.59804  1434.64966     0.00000     0.00000     0.00000
  Kinetic  1709.85086  1693.45699  1698.42842     2.84863     0.27389     0.57065
  Fock        0.00000     0.00000     0.00000     0.00000     0.00000     0.00000
  -------------------------------------------------------------------------------------
  Total      -0.52500    -0.52500    -0.44775     0.00000     0.00000     0.00000
  in kB      -5.46193    -5.46193    -4.65833     0.00000     0.00000     0.00000
  external pressure =       -5.19 kB  Pullay stress =        0.00 kB


 VOLUME and BASIS-vectors are now :
 -----------------------------------------------------------------------------
  energy-cutoff  :      520.00
  volume of cell :      154.00
      direct lattice vectors                 reciprocal lattice vectors
     3.698343487  0.000000000  0.000000000     0.270391326  0.000000000  0.000000000
     0.000000000  3.698343487  0.000000000     0.000000000  0.270391326  0.000000000
     0.000000000  0.000000000 11.259166265     0.000000000  0.000000000  0.088816523

  length of vectors
     3.698343487  3.698343487 11.259166265     0.270391326  0.270391326  0.088816523


 FORCES acting on ions
    electron-ion (+dipol)            ewald-force                    non-local-force                 convergence-correction
 -----------------------------------------------------------------------------------------------
   -.730E-13 0.115E-11 -.183E+00   0.184E-13 -.195E-13 0.194E+00   0.587E-21 0.922E-21 0.769E-03   -.601E-14 -.304E-13 -.112E-01
   -.661E-13 0.269E-12 -.169E+02   0.197E-13 0.106E-13 0.181E+02   -.230E-18 0.203E-18 -.120E+01   -.420E-13 -.143E-13 -.108E-01
   -.722E-13 0.273E-11 0.171E+02   0.334E-14 -.341E-13 -.183E+02   0.184E-20 0.297E-18 0.120E+01   -.114E-13 -.353E-13 0.216E-01
   0.110E-11 0.665E-11 0.884E+02   -.406E-13 0.103E-13 -.865E+02   0.985E-19 -.264E-18 -.192E+01   -.237E-12 -.396E-14 0.195E-01
   0.109E-11 -.404E-11 -.878E+02   -.755E-14 0.799E-13 0.859E+02   0.117E-18 -.124E-18 0.191E+01   -.251E-12 -.189E-14 -.282E-01
   0.109E-11 -.457E-11 -.454E+00   -.618E-14 -.376E-13 0.443E+00   0.117E-20 -.223E-20 0.513E-02   -.228E-12 -.496E-14 0.803E-02
   0.106E-11 -.619E-13 -.183E+00   0.152E-13 -.205E-13 0.194E+00   -.681E-21 -.915E-21 0.769E-03   -.189E-12 0.132E-13 -.112E-01
   0.104E-11 -.492E-12 -.169E+02   0.923E-14 0.145E-13 0.181E+02   0.145E-18 -.694E-18 -.120E+01   -.169E-12 -.316E-15 -.108E-01
   0.105E-11 0.254E-12 0.171E+02   0.118E-13 -.253E-15 -.183E+02   -.392E-18 -.370E-18 0.120E+01   -.186E-12 0.255E-13 0.216E-01
   -.416E-13 -.174E-13 0.213E+02   0.609E-13 0.111E-13 -.216E+02   -.753E-18 0.268E-18 0.213E+00   0.330E-13 0.653E-14 0.144E-01
   -.486E-13 -.555E-13 -.213E+02   -.154E-13 -.696E-13 0.216E+02   -.116E-17 -.912E-18 -.208E+00   0.370E-13 -.161E-14 -.196E-01
   -.496E-13 -.303E-13 -.470E-01   -.240E-13 0.118E-14 0.425E-01   -.266E-20 0.136E-20 -.298E-02   0.371E-13 -.213E-14 0.558E-02
 -----------------------------------------------------------------------------------------------
   0.608E-11 0.179E-11 0.208E-02   0.449E-13 -.540E-13 -.423E-12   -.217E-17 -.160E-17 -.925E-03   -.121E-11 -.496E-13 -.114E-02
 
 
 POSITION                                       TOTAL-FORCE (eV/Angst)
 -----------------------------------------------------------------------------------
      0.00000      1.84917      1.87643         0.000000      0.000000      0.000750
      0.00000      1.84917      5.62351         0.000000     -0.000000     -0.002269
      0.00000      1.84917      9.38881         0.000000      0.000000      0.000702
      1.84917      1.84917      0.06762         0.000000     -0.000000      0.016593
      1.84917      1.84917      3.68605        -0.000000     -0.000000     -0.019385
      1.84917      1.84917      7.50572        -0.000000      0.000000      0.002118
      1.84917      0.00000      1.87643         0.000000      0.000000      0.000750
      1.84917      0.00000      5.62351         0.000000      0.000000     -0.002269
      1.84917      0.00000      9.38881         0.000000      0.000000      0.000702
      0.00000      0.00000     11.23273         0.000000      0.000000     -0.024142
      0.00000      0.00000      3.77905         0.000000      0.000000      0.028345
      0.00000      0.00000      7.50634         0.000000      0.000000     -0.001895
 -----------------------------------------------------------------------------------
    total drift:                                0.000000      0.000000      0.000012


--------------------------------------------------------------------------------------------------------



  FREE ENERGIE OF THE ION-ELECTRON SYSTEM (eV)
  ---------------------------------------------------
  free  energy   TOTEN  =       -93.41073151 eV

  energy  without entropy=      -93.41073151  energy(sigma->0) =      -93.41073151
 


--------------------------------------------------------------------------------------------------------


    POTLOK:  cpu time      0.0369: real time      0.0372


--------------------------------------------------------------------------------------------------------


     LOOP+:  cpu time    164.8297: real time    166.2797
 -----------------------------------------------------------------------------
|                                                                             |
|           W    W    AA    RRRRR   N    N  II  N    N   GGGG   !!!           |
|           W    W   A  A   R    R  NN   N  II  NN   N  G    G  !!!           |
|           W    W  A    A  R    R  N N  N  II  N N  N  G       !!!           |
|           W WW W  AAAAAA  RRRRR   N  N N  II  N  N N  G  GGG   !            |
|           WW  WW  A    A  R   R   N   NN  II  N   NN  G    G                |
|           W    W  A    A  R    R  N    N  II  N    N   GGGG   !!!           |
|                                                                             |
|     Tetrahedron method does not include variations of the Fermi             |
|     occupations, so forces and stress will be inaccurate. We suggest        |
|     using a different smearing scheme ISMEAR = 1 or 2 for metals in         |
|     relaxations.                                                            |
|                                                                             |
 -----------------------------------------------------------------------------

    4ORBIT:  cpu time      0.0000: real time      0.0000



 total charge

# of ion       s       p       d       tot
------------------------------------------
    1        0.352   6.331   6.056  12.739
    2        0.351   6.331   6.029  12.710
    3        0.351   6.331   6.029  12.710
    4        0.356   6.338   6.018  12.712
    5        0.356   6.338   6.018  12.712
    6        0.352   6.334   6.026  12.712
    7        0.352   6.331   6.056  12.739
    8        0.351   6.331   6.029  12.710
    9        0.351   6.331   6.029  12.710
   10        0.778   0.701   8.036   9.515
   11        0.778   0.701   8.036   9.515
   12        0.763   0.719   8.033   9.515
--------------------------------------------------
tot          5.492  59.116  78.392 142.999



 magnetization (x)

# of ion       s       p       d       tot
------------------------------------------
    1       -0.005   0.009  -2.550  -2.546
    2        0.010   0.003   2.506   2.520
    3        0.010   0.003   2.507   2.520
    4       -0.015  -0.026  -2.544  -2.585
    5       -0.015  -0.026  -2.544  -2.585
    6        0.004  -0.016   2.736   2.725
    7       -0.005   0.009  -2.550  -2.546
    8        0.010   0.003   2.506   2.520
    9        0.010   0.003   2.507   2.520
   10        0.009   0.020  -0.116  -0.088
   11        0.009   0.020  -0.117  -0.088
   12       -0.037  -0.089   0.359   0.232
--------------------------------------------------
tot         -0.017  -0.087   2.700   2.596
 
 BZINTS: Fermi energy:   10.015819;  156.000000 electrons
         Band energy:-0.160943E+04;  BLOECHL correction:   -0.028509

 total amount of memory used by VASP MPI-rank0   175901. kBytes
=======================================================================

   base      :      30000. kBytes
   nonl-proj :     102217. kBytes
   fftplans  :        888. kBytes
   grid      :       6813. kBytes
   one-center:        373. kBytes
   wavefun   :      35610. kBytes
 
  
  
 General timing and accounting informations for this job:
 ========================================================
  
                  Total CPU time used (sec):      182.718
                            User time (sec):      173.124
                          System time (sec):        9.594
                         Elapsed time (sec):      188.507
  
                   Maximum memory used (kb):      816552.
                   Average memory used (kb):          N/A
  
                          Minor page faults:       157091
                          Major page faults:          661
                 Voluntary context switches:         9346
