       N       E                     dE             d eps       ncg     rms          rms(c)
DAV:   1     0.173635560157E+04    0.17364E+04   -0.91487E+04 32256   0.242E+03
DAV:   2     0.759211533821E+01   -0.17288E+04   -0.16978E+04 32544   0.606E+02
DAV:   3    -0.102792996479E+03   -0.11039E+03   -0.10927E+03 39072   0.160E+02
DAV:   4    -0.105142713708E+03   -0.23497E+01   -0.23464E+01 32960   0.250E+01
DAV:   5    -0.105195754175E+03   -0.53040E-01   -0.53035E-01 40928   0.369E+00    0.406E+01
DAV:   6    -0.107137944929E+03   -0.19422E+01   -0.20742E+02 36992   0.830E+01    0.568E+01
DAV:   7    -0.115620697657E+03   -0.84828E+01   -0.45489E+02 43200   0.898E+01    0.634E+01
DAV:   8    -0.951071179699E+02    0.20514E+02   -0.74027E+01 43840   0.626E+01    0.219E+01
DAV:   9    -0.102704244847E+03   -0.75971E+01   -0.12659E+02 43392   0.451E+01    0.470E+01
DAV:  10    -0.931258338198E+02    0.95784E+01   -0.50831E+01 44640   0.301E+01    0.154E+01
DAV:  11    -0.932770187581E+02   -0.15118E+00   -0.15016E+01 43616   0.155E+01    0.136E+01
DAV:  12    -0.930105272628E+02    0.26649E+00   -0.75845E+00 43776   0.936E+00    0.761E+00
DAV:  13    -0.931433717514E+02   -0.13284E+00   -0.19238E+00 45280   0.612E+00    0.811E+00
DAV:  14    -0.931643910454E+02   -0.21019E-01   -0.15972E+00 43360   0.568E+00    0.610E+00
DAV:  15    -0.935207385158E+02   -0.35635E+00   -0.30225E+00 44416   0.936E+00    0.912E+00
DAV:  16    -0.932227694397E+02    0.29797E+00   -0.29385E+00 43328   0.935E+00    0.276E+00
DAV:  17    -0.932798387389E+02   -0.57069E-01   -0.24865E-01 39840   0.242E+00    0.261E+00
DAV:  18    -0.932941790676E+02   -0.14340E-01   -0.75571E-02 41408   0.142E+00    0.162E+00
DAV:  19    -0.932921777650E+02    0.20013E-02   -0.75477E-02 43712   0.154E+00    0.642E-01
DAV:  20    -0.932948579983E+02   -0.26802E-02   -0.86513E-03 38400   0.386E-01    0.572E-01
DAV:  21    -0.932953456291E+02   -0.48763E-03   -0.34777E-03 43808   0.337E-01    0.325E-01
DAV:  22    -0.932957770118E+02   -0.43138E-03   -0.31611E-03 46016   0.280E-01    0.147E-01
DAV:  23    -0.932960408056E+02   -0.26379E-03   -0.86701E-04 40288   0.132E-01    0.932E-02
DAV:  24    -0.932961336943E+02   -0.92889E-04   -0.16385E-04 42496   0.736E-02    0.584E-02
DAV:  25    -0.932961415882E+02   -0.78939E-05   -0.83170E-05 44896   0.514E-02    0.213E-02
DAV:  26    -0.932961468918E+02   -0.53036E-05   -0.20804E-05 41280   0.178E-02    0.167E-02
DAV:  27    -0.932961537302E+02   -0.68384E-05   -0.54327E-06 33696   0.175E-02    0.109E-02
DAV:  28    -0.932961545642E+02   -0.83394E-06   -0.28154E-06 21856   0.121E-02
   1 F= -.93296155E+02 E0= -.93296155E+02  d E =0.000000E+00  mag=     2.2269
