 vasp.6.4.3 19Mar24 (build Mar 26 2024 14:05:37) complex                        
  
 executed on             LinuxIFC date 2024.12.16  14:54:57
 running  128 mpi-ranks, on    1 nodes
 distrk:  each k-point on   32 cores,    4 groups
 distr:  one band on NCORE=   1 cores,   32 groups


--------------------------------------------------------------------------------------------------------


 INCAR:
   ALGO = Normal
   EDIFF = 1e-06
   EDIFFG = -0.01
   ENCUT = 520
   GGA = Pe
   IBRION = -1
   ISIF = 4
   ISMEAR = -5
   ISPIN = 2
   KPAR = 4
   LCHARG = True
   LORBIT = 11
   LREAL = False
   LWAVE = False
   MAGMOM = 1*-2.459 1*2.381 1*2.38 1*-2.473 1*-2.474 1*2.576 1*-2.459 1*2.381 1*2.38 2*-0.092 1*0.214
   NELM = 200
   NSW = 0
   PREC = Accurate
   SIGMA = 0.2

 POTCAR:    PAW_PBE Fe_pv 02Aug2007               
 POTCAR:    PAW_PBE Pt 04Feb2005                  
 -----------------------------------------------------------------------------
|                                                                             |
|           W    W    AA    RRRRR   N    N  II  N    N   GGGG   !!!           |
|           W    W   A  A   R    R  NN   N  II  NN   N  G    G  !!!           |
|           W    W  A    A  R    R  N N  N  II  N N  N  G       !!!           |
|           W WW W  AAAAAA  RRRRR   N  N N  II  N  N N  G  GGG   !            |
|           WW  WW  A    A  R   R   N   NN  II  N   NN  G    G                |
|           W    W  A    A  R    R  N    N  II  N    N   GGGG   !!!           |
|                                                                             |
|     For optimal performance we recommend to set                             |
|       NCORE = 2 up to number-of-cores-per-socket                            |
|     NCORE specifies how many cores store one orbital (NPAR=cpu/NCORE).      |
|     This setting can greatly improve the performance of VASP for DFT.       |
|     The default, NCORE=1 might be grossly inefficient on modern             |
|     multi-core architectures or massively parallel machines. Do your        |
|     own testing! More info at https://www.vasp.at/wiki/index.php/NCORE      |
|     Unfortunately you need to use the default for GW and RPA                |
|     calculations (for HF NCORE is supported but not extensively tested      |
|     yet).                                                                   |
|                                                                             |
 -----------------------------------------------------------------------------

 POTCAR:    PAW_PBE Fe_pv 02Aug2007               
   SHA256 =  5d22e414b1f82158bf2c7ecb8b97b28fd0923e48cadc1c3bf74d524558f5dd32 Fe_pv/POTCAR          
   COPYR  = (c) Copyright 02Aug2007 Georg Kresse                                                    
   COPYR  = This file is part of the software VASP. Any use, copying, and all other rights are regul
   COPYR  = If you do not have a valid VASP license, you may not use, copy or distribute this file. 
   VRHFIN =Fe:  3pd7s1                                                                              
   LEXCH  = PE                                                                                      
   EATOM  =  2457.4239 eV,  180.6156 Ry                                                             
                                                                                                    
   TITEL  = PAW_PBE Fe_pv 02Aug2007                                                                 
   LULTRA =        F    use ultrasoft PP ?                                                          
   IUNSCR =        1    unscreen: 0-lin 1-nonlin 2-no                                               
   RPACOR =    1.750    partial core radius                                                         
   POMASS =   55.847; ZVAL   =   14.000    mass and valenz                                          
   RCORE  =    2.200    outmost cutoff radius                                                       
   RWIGS  =    2.200; RWIGS  =    1.164    wigner-seitz radius (au A)                               
   ENMAX  =  293.238; ENMIN  =  219.928 eV                                                          
   ICORE  =        3    local potential                                                             
   LCOR   =        T    correct aug charges                                                         
   LPAW   =        T    paw PP                                                                      
   EAUG   =  578.342                                                                                
   DEXC   =    0.000                                                                                
   RMAX   =    2.249    core radius for proj-oper                                                   
   RAUG   =    1.300    factor for augmentation sphere                                              
   RDEP   =    2.296    radius for radial grids                                                     
   RDEPT  =    1.766    core radius for aug-charge                                                  
                                                                                                    
   Atomic configuration                                                                             
    8 entries                                                                                       
     n  l   j            E        occ.                                                              
     1  0  0.50     -6993.8440   2.0000                                                             
     2  0  0.50      -814.6047   2.0000                                                             
     2  1  1.50      -693.3689   6.0000                                                             
     3  0  0.50       -89.4732   2.0000                                                             
     3  1  1.50       -55.6373   6.0000                                                             
     3  2  2.50        -3.8151   7.0000                                                             
     4  0  0.50        -4.2551   1.0000                                                             
     4  3  2.50        -1.3606   0.0000                                                             
   Description                                                                                      
     l       E           TYP  RCUT    TYP  RCUT                                                     
     1    -55.6372668     23  2.000                                                                 
     1     -5.4423304     23  2.000                                                                 
     2     -3.8151096     23  2.200                                                                 
     2     -5.1756922     23  2.200                                                                 
     0     -4.2550951     23  2.200                                                                 
     0     27.2116520     23  2.200                                                                 
     3     -1.3605826     23  2.200                                                                 
  local pseudopotential read in
  partial core-charges read in
  partial kinetic energy density read in
  atomic valenz-charges read in
  non local Contribution for L=           1  read in
    real space projection operators read in
  non local Contribution for L=           1  read in
    real space projection operators read in
  non local Contribution for L=           2  read in
    real space projection operators read in
  non local Contribution for L=           2  read in
    real space projection operators read in
  non local Contribution for L=           0  read in
    real space projection operators read in
  non local Contribution for L=           0  read in
    real space projection operators read in
    PAW grid and wavefunctions read in
 
   number of l-projection  operators is LMAX  =           6
   number of lm-projection operators is LMMAX =          18
 
 POTCAR:    PAW_PBE Pt 04Feb2005                  
   SHA256 =  3ed90460adef76debcff1cfb73ee1349b515b1a3db03439735b44de3a8db7dc8 Pt/POTCAR             
   COPYR  = (c) Copyright 04Feb2005 Georg Kresse                                                    
   COPYR  = This file is part of the software VASP. Any use, copying, and all other rights are regul
   COPYR  = If you do not have a valid VASP license, you may not use, copy or distribute this file. 
   VRHFIN =Pt: s1d9                                                                                 
   LEXCH  = PE                                                                                      
   EATOM  =   729.1176 eV,   53.5886 Ry                                                             
                                                                                                    
   TITEL  = PAW_PBE Pt 04Feb2005                                                                    
   LULTRA =        F    use ultrasoft PP ?                                                          
   IUNSCR =        1    unscreen: 0-lin 1-nonlin 2-no                                               
   RPACOR =    2.330    partial core radius                                                         
   POMASS =  195.080; ZVAL   =   10.000    mass and valenz                                          
   RCORE  =    2.600    outmost cutoff radius                                                       
   RWIGS  =    2.750; RWIGS  =    1.455    wigner-seitz radius (au A)                               
   ENMAX  =  230.283; ENMIN  =  172.712 eV                                                          
   ICORE  =        3    local potential                                                             
   LCOR   =        T    correct aug charges                                                         
   LPAW   =        T    paw PP                                                                      
   EAUG   =  358.966                                                                                
   DEXC   =    0.000                                                                                
   RMAX   =    2.658    core radius for proj-oper                                                   
   RAUG   =    1.300    factor for augmentation sphere                                              
   RDEP   =    2.761    radius for radial grids                                                     
   RDEPT  =    2.203    core radius for aug-charge                                                  
                                                                                                    
   Atomic configuration                                                                             
   16 entries                                                                                       
     n  l   j            E        occ.                                                              
     1  0  0.50    -78401.1885   2.0000                                                             
     2  0  0.50    -13770.7750   2.0000                                                             
     2  1  1.50    -11931.0468   6.0000                                                             
     3  0  0.50     -3234.7234   2.0000                                                             
     3  1  1.50     -2699.2216   6.0000                                                             
     3  2  2.50     -2119.5714  10.0000                                                             
     4  0  0.50      -695.1528   2.0000                                                             
     4  1  1.50      -519.6034   6.0000                                                             
     4  2  2.50      -306.6786  10.0000                                                             
     4  3  3.50       -70.1041  14.0000                                                             
     5  0  0.50      -101.7747   2.0000                                                             
     5  1  1.50       -55.9873   6.0000                                                             
     5  2  2.50        -6.1423   9.0000                                                             
     6  0  0.50        -5.6573   1.0000                                                             
     6  1  1.50        -6.8029   0.0000                                                             
     5  3  2.50        -1.3606   0.0000                                                             
   Description                                                                                      
     l       E           TYP  RCUT    TYP  RCUT                                                     
     2     -6.1423404     23  2.500                                                                 
     2     -7.5029230     23  2.500                                                                 
     0     -5.6573207     23  2.500                                                                 
     0      0.7416693     23  2.500                                                                 
     1     -2.7211652     23  2.600                                                                 
     1     20.4087390     23  2.600                                                                 
     3     -1.3605826     23  2.500                                                                 
  local pseudopotential read in
  partial core-charges read in
  partial kinetic energy density read in
  atomic valenz-charges read in
  non local Contribution for L=           2  read in
    real space projection operators read in
  non local Contribution for L=           2  read in
    real space projection operators read in
  non local Contribution for L=           0  read in
    real space projection operators read in
  non local Contribution for L=           0  read in
    real space projection operators read in
  non local Contribution for L=           1  read in
    real space projection operators read in
  non local Contribution for L=           1  read in
    real space projection operators read in
    PAW grid and wavefunctions read in
 
   number of l-projection  operators is LMAX  =           6
   number of lm-projection operators is LMMAX =          18
 
  PAW_PBE Fe_pv 02Aug2007               :
 energy of atom  1       EATOM=-2457.4239
 kinetic energy error for atom=    0.0062 (will be added to EATOM!!)
  PAW_PBE Pt 04Feb2005                  :
 energy of atom  2       EATOM= -729.1176
 kinetic energy error for atom=    0.0032 (will be added to EATOM!!)
 
 
 POSCAR: Fe9 Pt3
  positions in direct lattice
  velocities in cartesian coordinates


 exchange-correlation table for PE
   RHO(1)=    0.500       N(1)  =     2000
   RHO(2)=  100.500       N(2)  =     4000
 


--------------------------------------------------------------------------------------------------------


 ion  position               nearest neighbor table
   1  0.000  0.500  0.167-   4 2.57   4 2.57   5 2.57   5 2.57   7 2.58   7 2.58   7 2.58   7 2.58
                            10 2.62  10 2.62  11 2.62  11 2.62
   2  0.000  0.500  0.499-  11 2.58  11 2.58   8 2.58   8 2.58   8 2.58   8 2.58  12 2.60  12 2.60
                             6 2.60   6 2.60   5 2.63   5 2.63
   3  0.000  0.500  0.834-  10 2.58  10 2.58   9 2.58   9 2.58   9 2.58   9 2.58   6 2.60   6 2.60
                            12 2.60  12 2.60   4 2.62   4 2.62
   4  0.500  0.500  0.004-   1 2.57   7 2.57   7 2.57   1 2.57  10 2.58  10 2.58  10 2.58  10 2.58
                             9 2.62   3 2.62   9 2.62   3 2.62
   5  0.500  0.500  0.329-   1 2.57   7 2.57   7 2.57   1 2.57  11 2.58  11 2.58  11 2.58  11 2.58
                             8 2.63   2 2.63   8 2.63   2 2.63
   6  0.500  0.500  0.667-  12 2.58  12 2.58  12 2.58  12 2.58   9 2.60   3 2.60   3 2.60   9 2.60
                             2 2.60   8 2.60   2 2.60   8 2.60
   7  0.500  0.000  0.167-   4 2.57   4 2.57   5 2.57   5 2.57   1 2.58   1 2.58   1 2.58   1 2.58
                            10 2.62  10 2.62  11 2.62  11 2.62
   8  0.500  0.000  0.499-  11 2.58  11 2.58   2 2.58   2 2.58   2 2.58   2 2.58  12 2.60  12 2.60
                             6 2.60   6 2.60   5 2.63   5 2.63
   9  0.500  0.000  0.834-  10 2.58  10 2.58   3 2.58   3 2.58   3 2.58   3 2.58   6 2.60   6 2.60
                            12 2.60  12 2.60   4 2.62   4 2.62
  10  0.000  0.000  0.998-   3 2.58   9 2.58   3 2.58   9 2.58   4 2.58   4 2.58   4 2.58   4 2.58
                             1 2.62   7 2.62   7 2.62   1 2.62
  11  0.000  0.000  0.335-   2 2.58   8 2.58   2 2.58   8 2.58   5 2.58   5 2.58   5 2.58   5 2.58
                             1 2.62   7 2.62   7 2.62   1 2.62
  12  0.000  0.000  0.667-   6 2.58   6 2.58   6 2.58   6 2.58   3 2.60   9 2.60   9 2.60   3 2.60
                             2 2.60   8 2.60   8 2.60   2 2.60
 
  LATTYP: Found a simple tetragonal cell.
 ALAT       =     3.6543214747
 C/A-ratio  =     3.0327838952
  
  Lattice vectors:
  
 A1 = (   3.6543214747,   0.0000000000,   0.0000000000)
 A2 = (   0.0000000000,   3.6543214747,   0.0000000000)
 A3 = (   0.0000000000,   0.0000000000,  11.0827673163)


Analysis of symmetry for initial positions (statically):
=====================================================================
 Subroutine PRICEL returns:
 Original cell was already a primitive cell.
 

 Routine SETGRP: Setting up the symmetry group for a 
 simple tetragonal supercell.


 Subroutine GETGRP returns: Found  8 space group operations
 (whereof  8 operations were pure point group operations)
 out of a pool of 16 trial point group operations.


The static configuration has the point symmetry C_4v.


Analysis of symmetry for dynamics (positions and initial velocities):
=====================================================================
 Subroutine PRICEL returns:
 Original cell was already a primitive cell.
 

 Routine SETGRP: Setting up the symmetry group for a 
 simple tetragonal supercell.


 Subroutine GETGRP returns: Found  8 space group operations
 (whereof  8 operations were pure point group operations)
 out of a pool of 16 trial point group operations.


The dynamic configuration has the point symmetry C_4v.


Analysis of structural, dynamic, and magnetic symmetry:
=====================================================================
 Subroutine PRICEL returns:
 Original cell was already a primitive cell.
 

 Routine SETGRP: Setting up the symmetry group for a 
 simple tetragonal supercell.


 Subroutine GETGRP returns: Found  8 space group operations
 (whereof  8 operations were pure point group operations)
 out of a pool of 16 trial point group operations.


The overall configuration has the point symmetry C_4v.


 Subroutine INISYM returns: Found  8 space group operations
 (whereof  8 operations are pure point group operations),
 and found     1 'primitive' translations


----------------------------------------------------------------------------------------

                                     Primitive cell                                     

  volume of cell :     148.0000

  direct lattice vectors                    reciprocal lattice vectors
     3.654321475  0.000000000  0.000000000     0.273648612  0.000000000  0.000000000
     0.000000000  3.654321475  0.000000000     0.000000000  0.273648612  0.000000000
     0.000000000  0.000000000 11.082767316     0.000000000  0.000000000  0.090230172

  length of vectors
     3.654321475  3.654321475 11.082767316     0.273648612  0.273648612  0.090230172

  position of ions in fractional coordinates (direct lattice)
     0.000000000  0.500000000  0.166644130
     0.000000000  0.500000000  0.499487424
     0.000000000  0.500000000  0.833868489
     0.500000000  0.500000000  0.003919893
     0.500000000  0.500000000  0.329395596
     0.500000000  0.500000000  0.666690054
     0.500000000  0.000000000  0.166644130
     0.500000000  0.000000000  0.499487424
     0.500000000  0.000000000  0.833868489
     0.000000000  0.000000000  0.997829355
     0.000000000  0.000000000  0.335480033
     0.000000000  0.000000000  0.666684983

  ion indices of the primitive-cell ions
   primitive index   ion index
                 1           1
                 2           2
                 3           3
                 4           4
                 5           5
                 6           6
                 7           7
                 8           8
                 9           9
                10          10
                11          11
                12          12

----------------------------------------------------------------------------------------

 
 
 KPOINTS: pymatgen with grid density = 8800 / numb

Automatic generation of k-mesh.
 Grid dimensions read from file:
 generate k-points for:   13   13    4

 Generating k-lattice:

  Cartesian coordinates                     Fractional coordinates (reciprocal lattice)
     0.021049893  0.000000000  0.000000000     0.076923077  0.000000000  0.000000000
     0.000000000  0.021049893  0.000000000     0.000000000  0.076923077  0.000000000
     0.000000000  0.000000000  0.022557543     0.000000000  0.000000000  0.250000000

  Length of vectors
     0.021049893  0.021049893  0.022557543

  Shift w.r.t. Gamma in fractional coordinates (k-lattice)
     0.000000000  0.000000000  0.000000000

 TETIRR: Found   1010 inequivalent tetrahedra from     4056
 
 Subroutine IBZKPT returns following result:
 ===========================================
 
 Found     84 irreducible k-points:
 
 Following reciprocal coordinates:
            Coordinates               Weight
  0.000000  0.000000  0.000000      1.000000
  0.076923  0.000000  0.000000      4.000000
  0.153846  0.000000  0.000000      4.000000
  0.230769  0.000000  0.000000      4.000000
  0.307692  0.000000  0.000000      4.000000
  0.384615  0.000000  0.000000      4.000000
  0.461538  0.000000  0.000000      4.000000
  0.076923  0.076923  0.000000      4.000000
  0.153846  0.076923  0.000000      8.000000
  0.230769  0.076923  0.000000      8.000000
  0.307692  0.076923  0.000000      8.000000
  0.384615  0.076923  0.000000      8.000000
  0.461538  0.076923  0.000000      8.000000
  0.153846  0.153846  0.000000      4.000000
  0.230769  0.153846  0.000000      8.000000
  0.307692  0.153846  0.000000      8.000000
  0.384615  0.153846  0.000000      8.000000
  0.461538  0.153846  0.000000      8.000000
  0.230769  0.230769  0.000000      4.000000
  0.307692  0.230769  0.000000      8.000000
  0.384615  0.230769  0.000000      8.000000
  0.461538  0.230769  0.000000      8.000000
  0.307692  0.307692  0.000000      4.000000
  0.384615  0.307692  0.000000      8.000000
  0.461538  0.307692  0.000000      8.000000
  0.384615  0.384615  0.000000      4.000000
  0.461538  0.384615  0.000000      8.000000
  0.461538  0.461538  0.000000      4.000000
  0.000000  0.000000  0.250000      2.000000
  0.076923  0.000000  0.250000      8.000000
  0.153846  0.000000  0.250000      8.000000
  0.230769  0.000000  0.250000      8.000000
  0.307692  0.000000  0.250000      8.000000
  0.384615  0.000000  0.250000      8.000000
  0.461538  0.000000  0.250000      8.000000
  0.076923  0.076923  0.250000      8.000000
  0.153846  0.076923  0.250000     16.000000
  0.230769  0.076923  0.250000     16.000000
  0.307692  0.076923  0.250000     16.000000
  0.384615  0.076923  0.250000     16.000000
  0.461538  0.076923  0.250000     16.000000
  0.153846  0.153846  0.250000      8.000000
  0.230769  0.153846  0.250000     16.000000
  0.307692  0.153846  0.250000     16.000000
  0.384615  0.153846  0.250000     16.000000
  0.461538  0.153846  0.250000     16.000000
  0.230769  0.230769  0.250000      8.000000
  0.307692  0.230769  0.250000     16.000000
  0.384615  0.230769  0.250000     16.000000
  0.461538  0.230769  0.250000     16.000000
  0.307692  0.307692  0.250000      8.000000
  0.384615  0.307692  0.250000     16.000000
  0.461538  0.307692  0.250000     16.000000
  0.384615  0.384615  0.250000      8.000000
  0.461538  0.384615  0.250000     16.000000
  0.461538  0.461538  0.250000      8.000000
  0.000000  0.000000  0.500000      1.000000
  0.076923  0.000000  0.500000      4.000000
  0.153846  0.000000  0.500000      4.000000
  0.230769  0.000000  0.500000      4.000000
  0.307692  0.000000  0.500000      4.000000
  0.384615  0.000000  0.500000      4.000000
  0.461538  0.000000  0.500000      4.000000
  0.076923  0.076923  0.500000      4.000000
  0.153846  0.076923  0.500000      8.000000
  0.230769  0.076923  0.500000      8.000000
  0.307692  0.076923  0.500000      8.000000
  0.384615  0.076923  0.500000      8.000000
  0.461538  0.076923  0.500000      8.000000
  0.153846  0.153846  0.500000      4.000000
  0.230769  0.153846  0.500000      8.000000
  0.307692  0.153846  0.500000      8.000000
  0.384615  0.153846  0.500000      8.000000
  0.461538  0.153846  0.500000      8.000000
  0.230769  0.230769  0.500000      4.000000
  0.307692  0.230769  0.500000      8.000000
  0.384615  0.230769  0.500000      8.000000
  0.461538  0.230769  0.500000      8.000000
  0.307692  0.307692  0.500000      4.000000
  0.384615  0.307692  0.500000      8.000000
  0.461538  0.307692  0.500000      8.000000
  0.384615  0.384615  0.500000      4.000000
  0.461538  0.384615  0.500000      8.000000
  0.461538  0.461538  0.500000      4.000000
 
 Following cartesian coordinates:
            Coordinates               Weight
  0.000000  0.000000  0.000000      1.000000
  0.021050  0.000000  0.000000      4.000000
  0.042100  0.000000  0.000000      4.000000
  0.063150  0.000000  0.000000      4.000000
  0.084200  0.000000  0.000000      4.000000
  0.105249  0.000000  0.000000      4.000000
  0.126299  0.000000  0.000000      4.000000
  0.021050  0.021050  0.000000      4.000000
  0.042100  0.021050  0.000000      8.000000
  0.063150  0.021050  0.000000      8.000000
  0.084200  0.021050  0.000000      8.000000
  0.105249  0.021050  0.000000      8.000000
  0.126299  0.021050  0.000000      8.000000
  0.042100  0.042100  0.000000      4.000000
  0.063150  0.042100  0.000000      8.000000
  0.084200  0.042100  0.000000      8.000000
  0.105249  0.042100  0.000000      8.000000
  0.126299  0.042100  0.000000      8.000000
  0.063150  0.063150  0.000000      4.000000
  0.084200  0.063150  0.000000      8.000000
  0.105249  0.063150  0.000000      8.000000
  0.126299  0.063150  0.000000      8.000000
  0.084200  0.084200  0.000000      4.000000
  0.105249  0.084200  0.000000      8.000000
  0.126299  0.084200  0.000000      8.000000
  0.105249  0.105249  0.000000      4.000000
  0.126299  0.105249  0.000000      8.000000
  0.126299  0.126299  0.000000      4.000000
  0.000000  0.000000  0.022558      2.000000
  0.021050  0.000000  0.022558      8.000000
  0.042100  0.000000  0.022558      8.000000
  0.063150  0.000000  0.022558      8.000000
  0.084200  0.000000  0.022558      8.000000
  0.105249  0.000000  0.022558      8.000000
  0.126299  0.000000  0.022558      8.000000
  0.021050  0.021050  0.022558      8.000000
  0.042100  0.021050  0.022558     16.000000
  0.063150  0.021050  0.022558     16.000000
  0.084200  0.021050  0.022558     16.000000
  0.105249  0.021050  0.022558     16.000000
  0.126299  0.021050  0.022558     16.000000
  0.042100  0.042100  0.022558      8.000000
  0.063150  0.042100  0.022558     16.000000
  0.084200  0.042100  0.022558     16.000000
  0.105249  0.042100  0.022558     16.000000
  0.126299  0.042100  0.022558     16.000000
  0.063150  0.063150  0.022558      8.000000
  0.084200  0.063150  0.022558     16.000000
  0.105249  0.063150  0.022558     16.000000
  0.126299  0.063150  0.022558     16.000000
  0.084200  0.084200  0.022558      8.000000
  0.105249  0.084200  0.022558     16.000000
  0.126299  0.084200  0.022558     16.000000
  0.105249  0.105249  0.022558      8.000000
  0.126299  0.105249  0.022558     16.000000
  0.126299  0.126299  0.022558      8.000000
  0.000000  0.000000  0.045115      1.000000
  0.021050  0.000000  0.045115      4.000000
  0.042100  0.000000  0.045115      4.000000
  0.063150  0.000000  0.045115      4.000000
  0.084200  0.000000  0.045115      4.000000
  0.105249  0.000000  0.045115      4.000000
  0.126299  0.000000  0.045115      4.000000
  0.021050  0.021050  0.045115      4.000000
  0.042100  0.021050  0.045115      8.000000
  0.063150  0.021050  0.045115      8.000000
  0.084200  0.021050  0.045115      8.000000
  0.105249  0.021050  0.045115      8.000000
  0.126299  0.021050  0.045115      8.000000
  0.042100  0.042100  0.045115      4.000000
  0.063150  0.042100  0.045115      8.000000
  0.084200  0.042100  0.045115      8.000000
  0.105249  0.042100  0.045115      8.000000
  0.126299  0.042100  0.045115      8.000000
  0.063150  0.063150  0.045115      4.000000
  0.084200  0.063150  0.045115      8.000000
  0.105249  0.063150  0.045115      8.000000
  0.126299  0.063150  0.045115      8.000000
  0.084200  0.084200  0.045115      4.000000
  0.105249  0.084200  0.045115      8.000000
  0.126299  0.084200  0.045115      8.000000
  0.105249  0.105249  0.045115      4.000000
  0.126299  0.105249  0.045115      8.000000
  0.126299  0.126299  0.045115      4.000000
 


--------------------------------------------------------------------------------------------------------




 Dimension of arrays:
   k-points           NKPTS =     84   k-points in BZ     NKDIM =     84   number of bands    NBANDS=     96
   number of dos      NEDOS =    301   number of ions     NIONS =     12
   non local maximal  LDIM  =      6   non local SUM 2l+1 LMDIM =     18
   total plane-waves  NPLWV =  65856
   max r-space proj   IRMAX =      1   max aug-charges    IRDMAX=  27147
   dimension x,y,z NGX =    28 NGY =   28 NGZ =   84
   dimension x,y,z NGXF=    56 NGYF=   56 NGZF=  168
   support grid    NGXF=    56 NGYF=   56 NGZF=  168
   ions per type =               9   3
   NGX,Y,Z   is equivalent  to a cutoff of  12.74, 12.74, 12.60 a.u.
   NGXF,Y,Z  is equivalent  to a cutoff of  25.48, 25.48, 25.20 a.u.

 SYSTEM =  unknown system                          
 POSCAR =  Fe9 Pt3                                 

 Startparameter for this run:
   NWRITE =      2    write-flag & timer
   PREC   = accura    normal or accurate (medium, high low for compatibility)
   ISTART =      0    job   : 0-new  1-cont  2-samecut
   ICHARG =      2    charge: 1-file 2-atom 10-const
   ISPIN  =      2    spin polarized calculation?
   LNONCOLLINEAR =      F non collinear calculations
   LSORBIT =      F    spin-orbit coupling
   INIWAV =      1    electr: 0-lowe 1-rand  2-diag
   LASPH  =      F    aspherical Exc in radial PAW
 Electronic Relaxation 1
   ENCUT  =  520.0 eV  38.22 Ry    6.18 a.u.   6.79  6.79 20.61*2*pi/ulx,y,z
   ENINI  =  520.0     initial cutoff
   ENAUG  =  578.3 eV  augmentation charge cutoff
   NELM   =    200;   NELMIN=  2; NELMDL=  0     # of ELM steps 
   EDIFF  = 0.1E-05   stopping-criterion for ELM
   LREAL  =      F    real-space projection
   NLSPLINE    = F    spline interpolate recip. space projectors
   LCOMPAT=      F    compatible to vasp.4.4
   GGA_COMPAT  = T    GGA compatible to vasp.4.4-vasp.4.6
   LMAXPAW     = -100 max onsite density
   LMAXMIX     =    2 max onsite mixed and CHGCAR
   VOSKOWN=      0    Vosko Wilk Nusair interpolation
   ROPT   =    0.00000   0.00000
 Ionic relaxation
   EDIFFG = -.1E-01   stopping-criterion for IOM
   NSW    =      0    number of steps for IOM
   NBLOCK =      1;   KBLOCK =      1    inner block; outer block 
   IBRION =     -1    ionic relax: 0-MD 1-quasi-New 2-CG
   NFREE  =      0    steps in history (QN), initial steepest desc. (CG)
   ISIF   =      4    stress and relaxation
   IWAVPR =     10    prediction:  0-non 1-charg 2-wave 3-comb
   ISYM   =      2    0-nonsym 1-usesym 2-fastsym
   LCORR  =      T    Harris-Foulkes like correction to forces

   POTIM  = 0.5000    time-step for ionic-motion
   TEIN   =    0.0    initial temperature
   TEBEG  =    0.0;   TEEND  =   0.0 temperature during run
   SMASS  =  -3.00    Nose mass-parameter (am)
   estimated Nose-frequenzy (Omega)   =  0.10E-29 period in steps = 0.13E+47 mass=  -0.305E-27a.u.
   SCALEE = 1.0000    scale energy and forces
   NPACO  =    256;   APACO  = 10.0  distance and # of slots for P.C.
   PSTRESS=    0.0 pullay stress

  Mass of Ions in am
   POMASS =  55.85195.08
  Ionic Valenz
   ZVAL   =  14.00 10.00
  Atomic Wigner-Seitz radii
   RWIGS  =  -1.00 -1.00
  virtual crystal weights 
   VCA    =   1.00  1.00
   NELECT =     156.0000    total number of electrons
   NUPDOWN=      -1.0000    fix difference up-down

 DOS related values:
   EMIN   =  10.00;   EMAX   =-10.00  energy-range for DOS
   EFERMI =   0.00;   METHOD = LEGACY      
   ISMEAR =    -5;   SIGMA  =   0.20  broadening in eV -4-tet -1-fermi 0-gaus

 Electronic relaxation 2 (details)
   IALGO  =     38    algorithm
   LDIAG  =      T    sub-space diagonalisation (order eigenvalues)
   LSUBROT=      F    optimize rotation matrix (better conditioning)
   TURBO    =      0    0=normal 1=particle mesh
   IRESTART =      0    0=no restart 2=restart with 2 vectors
   NREBOOT  =      0    no. of reboots
   NMIN     =      0    reboot dimension
   EREF     =   0.00    reference energy to select bands
   IMIX   =      4    mixing-type and parameters
     AMIX     =   0.40;   BMIX     =  1.00
     AMIX_MAG =   1.60;   BMIX_MAG =  1.00
     AMIN     =   0.10
     WC   =   100.;   INIMIX=   1;  MIXPRE=   1;  MAXMIX= -45

 Intra band minimization:
   WEIMIN = 0.0000     energy-eigenvalue tresh-hold
   EBREAK =  0.26E-08  absolut break condition
   DEPER  =   0.30     relativ break condition  

   TIME   =   0.40     timestep for ELM

  volume/ion in A,a.u.               =      12.33        83.23
  Fermi-wavevector in a.u.,A,eV,Ry     =   1.666080  3.148434 37.767349  2.775822
  Thomas-Fermi vector in A             =   2.752338
 
 Write flags
   LWAVE        =      F    write WAVECAR
   LDOWNSAMPLE  =      F    k-point downsampling of WAVECAR
   LCHARG       =      T    write CHGCAR
   LVTOT        =      F    write LOCPOT, total local potential
   LVHAR        =      F    write LOCPOT, Hartree potential only
   WRT_POTENTIAL= false  ! write potential to hdf5 file
   LELF         =      F    write electronic localiz. function (ELF)
   LORBIT       =     11    0 simple, 1 ext, 2 COOP (PROOUT), +10 PAW based schemes


 Dipole corrections
   LMONO      =      F    monopole corrections only (constant potential shift)
   LDIPOL     =      F    correct potential (dipole corrections)
   IDIPOL     =      0    1-x, 2-y, 3-z, 4-all directions 
   EPSILON    =  1.0000000 bulk dielectric constant
   LVACPOTAV  =      F  vacuum potentials using an averaging scheme for the charge density
   VACPOTFLAT =  0.1000000 required flatness to determine vacuum potential
 Exchange correlation treatment:
   GGA     = PE    functional components
   XC_C    = 1    coefficients multiplying the functional components
   LIBXC   =     F    Libxc                    
   VOSKOWN =     0    Vosko Wilk Nusair interpolation
   LHFCALC =     F    Hartree Fock is set to
   LHFONE  =     F    Hartree Fock one center treatment
   AEXX    =    0.0000 exact exchange contribution

 Parameters of functionals:
   PE:
     No parameter
 
 Van der Waals corrections
   IVDW    =     0    specifies the selected vdW correction

 Linear response parameters
   LEPSILON=     F    determine dielectric tensor
   LRPA    =     F    only Hartree local field effects (RPA)
   LNABLA  =     F    use nabla operator in PAW spheres
   LVEL    =     F    velocity operator in full k-point grid
   CSHIFT  =0.1000    complex shift for real part using Kramers Kronig
   OMEGAMAX=  -1.0    maximum frequency
   DEG_THRESHOLD= 0.2000000E-02 threshold for treating states as degnerate
   RTIME   =   -0.100 relaxation time in fs
  (WPLASMAI=    0.000 imaginary part of plasma frequency in eV, 0.658/RTIME)
   DFIELD  = 0.0000000 0.0000000 0.0000000 field for delta impulse in time
 
  Optional k-point grid parameters
   LKPOINTS_OPT  =     F    use optional k-point grid
   KPOINTS_OPT_MODE=     1    mode for optional k-point grid
 
 Orbital magnetization related:
   ORBITALMAG=     F  switch on orbital magnetization
   LCHIMAG   =     F  perturbation theory with respect to B field
   DQ        =  0.001000  dq finite difference perturbation B field
   LLRAUG    =     F  two centre corrections for induced B field
   LBONE     =     F  B-component reconstruction in AE one-centre
   LVGVCALC  =     T  calculate vGv susceptibility
   LVGVAPPL  =     F  apply vGv susceptibility instead of pGv for G=0

 Random number generation:
   RANDOM_GENERATOR = DEFAULT
   PCG_SEED         = not used


--------------------------------------------------------------------------------------------------------


 Static calculation
 charge density and potential will be updated during run
 spin polarized calculation
 Variant of blocked Davidson
 Davidson routine will perform the subspace rotation
 perform sub-space diagonalisation
    after iterative eigenvector-optimisation
 modified Broyden-mixing scheme, WC =      100.0
 initial mixing is a Kerker type mixing with AMIX =  0.4000 and BMIX =      1.0000
 Hartree-type preconditioning will be used
 using additional bands           18
 reciprocal scheme for non local part
 use partial core corrections
 calculate Harris-corrections to forces 
   (improved forces if not selfconsistent)
 use gradient corrections 
 use of overlap-Matrix (Vanderbilt PP)
 Fermi weights with tetrahedron method with Bloechl corrections


--------------------------------------------------------------------------------------------------------


  energy-cutoff  :      520.00
  volume of cell :      148.00
      direct lattice vectors                 reciprocal lattice vectors
     3.654321475  0.000000000  0.000000000     0.273648612  0.000000000  0.000000000
     0.000000000  3.654321475  0.000000000     0.000000000  0.273648612  0.000000000
     0.000000000  0.000000000 11.082767316     0.000000000  0.000000000  0.090230172

  length of vectors
     3.654321475  3.654321475 11.082767316     0.273648612  0.273648612  0.090230172


 
 k-points in units of 2pi/SCALE and weight: pymatgen with grid density = 8800 / numb
   0.00000000  0.00000000  0.00000000       0.001
   0.02104989  0.00000000  0.00000000       0.006
   0.04209979  0.00000000  0.00000000       0.006
   0.06314968  0.00000000  0.00000000       0.006
   0.08419957  0.00000000  0.00000000       0.006
   0.10524947  0.00000000  0.00000000       0.006
   0.12629936  0.00000000  0.00000000       0.006
   0.02104989  0.02104989  0.00000000       0.006
   0.04209979  0.02104989  0.00000000       0.012
   0.06314968  0.02104989  0.00000000       0.012
   0.08419957  0.02104989  0.00000000       0.012
   0.10524947  0.02104989  0.00000000       0.012
   0.12629936  0.02104989  0.00000000       0.012
   0.04209979  0.04209979  0.00000000       0.006
   0.06314968  0.04209979  0.00000000       0.012
   0.08419957  0.04209979  0.00000000       0.012
   0.10524947  0.04209979  0.00000000       0.012
   0.12629936  0.04209979  0.00000000       0.012
   0.06314968  0.06314968  0.00000000       0.006
   0.08419957  0.06314968  0.00000000       0.012
   0.10524947  0.06314968  0.00000000       0.012
   0.12629936  0.06314968  0.00000000       0.012
   0.08419957  0.08419957  0.00000000       0.006
   0.10524947  0.08419957  0.00000000       0.012
   0.12629936  0.08419957  0.00000000       0.012
   0.10524947  0.10524947  0.00000000       0.006
   0.12629936  0.10524947  0.00000000       0.012
   0.12629936  0.12629936  0.00000000       0.006
   0.00000000  0.00000000  0.02255754       0.003
   0.02104989  0.00000000  0.02255754       0.012
   0.04209979  0.00000000  0.02255754       0.012
   0.06314968  0.00000000  0.02255754       0.012
   0.08419957  0.00000000  0.02255754       0.012
   0.10524947  0.00000000  0.02255754       0.012
   0.12629936  0.00000000  0.02255754       0.012
   0.02104989  0.02104989  0.02255754       0.012
   0.04209979  0.02104989  0.02255754       0.024
   0.06314968  0.02104989  0.02255754       0.024
   0.08419957  0.02104989  0.02255754       0.024
   0.10524947  0.02104989  0.02255754       0.024
   0.12629936  0.02104989  0.02255754       0.024
   0.04209979  0.04209979  0.02255754       0.012
   0.06314968  0.04209979  0.02255754       0.024
   0.08419957  0.04209979  0.02255754       0.024
   0.10524947  0.04209979  0.02255754       0.024
   0.12629936  0.04209979  0.02255754       0.024
   0.06314968  0.06314968  0.02255754       0.012
   0.08419957  0.06314968  0.02255754       0.024
   0.10524947  0.06314968  0.02255754       0.024
   0.12629936  0.06314968  0.02255754       0.024
   0.08419957  0.08419957  0.02255754       0.012
   0.10524947  0.08419957  0.02255754       0.024
   0.12629936  0.08419957  0.02255754       0.024
   0.10524947  0.10524947  0.02255754       0.012
   0.12629936  0.10524947  0.02255754       0.024
   0.12629936  0.12629936  0.02255754       0.012
   0.00000000  0.00000000  0.04511509       0.001
   0.02104989  0.00000000  0.04511509       0.006
   0.04209979  0.00000000  0.04511509       0.006
   0.06314968  0.00000000  0.04511509       0.006
   0.08419957  0.00000000  0.04511509       0.006
   0.10524947  0.00000000  0.04511509       0.006
   0.12629936  0.00000000  0.04511509       0.006
   0.02104989  0.02104989  0.04511509       0.006
   0.04209979  0.02104989  0.04511509       0.012
   0.06314968  0.02104989  0.04511509       0.012
   0.08419957  0.02104989  0.04511509       0.012
   0.10524947  0.02104989  0.04511509       0.012
   0.12629936  0.02104989  0.04511509       0.012
   0.04209979  0.04209979  0.04511509       0.006
   0.06314968  0.04209979  0.04511509       0.012
   0.08419957  0.04209979  0.04511509       0.012
   0.10524947  0.04209979  0.04511509       0.012
   0.12629936  0.04209979  0.04511509       0.012
   0.06314968  0.06314968  0.04511509       0.006
   0.08419957  0.06314968  0.04511509       0.012
   0.10524947  0.06314968  0.04511509       0.012
   0.12629936  0.06314968  0.04511509       0.012
   0.08419957  0.08419957  0.04511509       0.006
   0.10524947  0.08419957  0.04511509       0.012
   0.12629936  0.08419957  0.04511509       0.012
   0.10524947  0.10524947  0.04511509       0.006
   0.12629936  0.10524947  0.04511509       0.012
   0.12629936  0.12629936  0.04511509       0.006
 
 k-points in reciprocal lattice and weights: pymatgen with grid density = 8800 / numb
   0.00000000  0.00000000  0.00000000       0.001
   0.07692308  0.00000000  0.00000000       0.006
   0.15384615  0.00000000  0.00000000       0.006
   0.23076923  0.00000000  0.00000000       0.006
   0.30769231  0.00000000  0.00000000       0.006
   0.38461538  0.00000000  0.00000000       0.006
   0.46153846  0.00000000  0.00000000       0.006
   0.07692308  0.07692308  0.00000000       0.006
   0.15384615  0.07692308  0.00000000       0.012
   0.23076923  0.07692308  0.00000000       0.012
   0.30769231  0.07692308  0.00000000       0.012
   0.38461538  0.07692308  0.00000000       0.012
   0.46153846  0.07692308  0.00000000       0.012
   0.15384615  0.15384615  0.00000000       0.006
   0.23076923  0.15384615  0.00000000       0.012
   0.30769231  0.15384615  0.00000000       0.012
   0.38461538  0.15384615  0.00000000       0.012
   0.46153846  0.15384615  0.00000000       0.012
   0.23076923  0.23076923  0.00000000       0.006
   0.30769231  0.23076923  0.00000000       0.012
   0.38461538  0.23076923  0.00000000       0.012
   0.46153846  0.23076923  0.00000000       0.012
   0.30769231  0.30769231  0.00000000       0.006
   0.38461538  0.30769231  0.00000000       0.012
   0.46153846  0.30769231  0.00000000       0.012
   0.38461538  0.38461538  0.00000000       0.006
   0.46153846  0.38461538  0.00000000       0.012
   0.46153846  0.46153846  0.00000000       0.006
   0.00000000  0.00000000  0.25000000       0.003
   0.07692308  0.00000000  0.25000000       0.012
   0.15384615  0.00000000  0.25000000       0.012
   0.23076923  0.00000000  0.25000000       0.012
   0.30769231  0.00000000  0.25000000       0.012
   0.38461538  0.00000000  0.25000000       0.012
   0.46153846  0.00000000  0.25000000       0.012
   0.07692308  0.07692308  0.25000000       0.012
   0.15384615  0.07692308  0.25000000       0.024
   0.23076923  0.07692308  0.25000000       0.024
   0.30769231  0.07692308  0.25000000       0.024
   0.38461538  0.07692308  0.25000000       0.024
   0.46153846  0.07692308  0.25000000       0.024
   0.15384615  0.15384615  0.25000000       0.012
   0.23076923  0.15384615  0.25000000       0.024
   0.30769231  0.15384615  0.25000000       0.024
   0.38461538  0.15384615  0.25000000       0.024
   0.46153846  0.15384615  0.25000000       0.024
   0.23076923  0.23076923  0.25000000       0.012
   0.30769231  0.23076923  0.25000000       0.024
   0.38461538  0.23076923  0.25000000       0.024
   0.46153846  0.23076923  0.25000000       0.024
   0.30769231  0.30769231  0.25000000       0.012
   0.38461538  0.30769231  0.25000000       0.024
   0.46153846  0.30769231  0.25000000       0.024
   0.38461538  0.38461538  0.25000000       0.012
   0.46153846  0.38461538  0.25000000       0.024
   0.46153846  0.46153846  0.25000000       0.012
   0.00000000  0.00000000  0.50000000       0.001
   0.07692308  0.00000000  0.50000000       0.006
   0.15384615  0.00000000  0.50000000       0.006
   0.23076923  0.00000000  0.50000000       0.006
   0.30769231  0.00000000  0.50000000       0.006
   0.38461538  0.00000000  0.50000000       0.006
   0.46153846  0.00000000  0.50000000       0.006
   0.07692308  0.07692308  0.50000000       0.006
   0.15384615  0.07692308  0.50000000       0.012
   0.23076923  0.07692308  0.50000000       0.012
   0.30769231  0.07692308  0.50000000       0.012
   0.38461538  0.07692308  0.50000000       0.012
   0.46153846  0.07692308  0.50000000       0.012
   0.15384615  0.15384615  0.50000000       0.006
   0.23076923  0.15384615  0.50000000       0.012
   0.30769231  0.15384615  0.50000000       0.012
   0.38461538  0.15384615  0.50000000       0.012
   0.46153846  0.15384615  0.50000000       0.012
   0.23076923  0.23076923  0.50000000       0.006
   0.30769231  0.23076923  0.50000000       0.012
   0.38461538  0.23076923  0.50000000       0.012
   0.46153846  0.23076923  0.50000000       0.012
   0.30769231  0.30769231  0.50000000       0.006
   0.38461538  0.30769231  0.50000000       0.012
   0.46153846  0.30769231  0.50000000       0.012
   0.38461538  0.38461538  0.50000000       0.006
   0.46153846  0.38461538  0.50000000       0.012
   0.46153846  0.46153846  0.50000000       0.006
 
 position of ions in fractional coordinates (direct lattice) 
   0.00000000  0.50000000  0.16664413
   0.00000000  0.50000000  0.49948742
   0.00000000  0.50000000  0.83386849
   0.50000000  0.50000000  0.00391989
   0.50000000  0.50000000  0.32939560
   0.50000000  0.50000000  0.66669005
   0.50000000  0.00000000  0.16664413
   0.50000000  0.00000000  0.49948742
   0.50000000  0.00000000  0.83386849
   0.00000000  0.00000000  0.99782935
   0.00000000  0.00000000  0.33548003
   0.00000000  0.00000000  0.66668498
 
 position of ions in cartesian coordinates  (Angst):
   0.00000000  1.82716074  1.84687812
   0.00000000  1.82716074  5.53570290
   0.00000000  1.82716074  9.24157043
   1.82716074  1.82716074  0.04344326
   1.82716074  1.82716074  3.65061474
   1.82716074  1.82716074  7.38877074
   1.82716074  0.00000000  1.84687812
   1.82716074  0.00000000  5.53570290
   1.82716074  0.00000000  9.24157043
   0.00000000  0.00000000 11.05871056
   0.00000000  0.00000000  3.71804715
   0.00000000  0.00000000  7.38871454
 


--------------------------------------------------------------------------------------------------------


 k-point     1 :   0.0000 0.0000 0.0000  plane waves:    3993
 k-point     2 :   0.0769 0.0000 0.0000  plane waves:    3997
 k-point     3 :   0.1538 0.0000 0.0000  plane waves:    3985
 k-point     4 :   0.2308 0.0000 0.0000  plane waves:    3980
 k-point     5 :   0.3077 0.0000 0.0000  plane waves:    3982
 k-point     6 :   0.3846 0.0000 0.0000  plane waves:    3996
 k-point     7 :   0.4615 0.0000 0.0000  plane waves:    3970
 k-point     8 :   0.0769 0.0769 0.0000  plane waves:    3983
 k-point     9 :   0.1538 0.0769 0.0000  plane waves:    3998
 k-point    10 :   0.2308 0.0769 0.0000  plane waves:    3981
 k-point    11 :   0.3077 0.0769 0.0000  plane waves:    3975
 k-point    12 :   0.3846 0.0769 0.0000  plane waves:    3991
 k-point    13 :   0.4615 0.0769 0.0000  plane waves:    3973
 k-point    14 :   0.1538 0.1538 0.0000  plane waves:    3987
 k-point    15 :   0.2308 0.1538 0.0000  plane waves:    3969
 k-point    16 :   0.3077 0.1538 0.0000  plane waves:    3978
 k-point    17 :   0.3846 0.1538 0.0000  plane waves:    3989
 k-point    18 :   0.4615 0.1538 0.0000  plane waves:    3981
 k-point    19 :   0.2308 0.2308 0.0000  plane waves:    3976
 k-point    20 :   0.3077 0.2308 0.0000  plane waves:    3974
 k-point    21 :   0.3846 0.2308 0.0000  plane waves:    4000
 k-point    22 :   0.4615 0.2308 0.0000  plane waves:    3990
 k-point    23 :   0.3077 0.3077 0.0000  plane waves:    3984
 k-point    24 :   0.3846 0.3077 0.0000  plane waves:    3981
 k-point    25 :   0.4615 0.3077 0.0000  plane waves:    3997
 k-point    26 :   0.3846 0.3846 0.0000  plane waves:    3990
 k-point    27 :   0.4615 0.3846 0.0000  plane waves:    4000
 k-point    28 :   0.4615 0.4615 0.0000  plane waves:    4028
 k-point    29 :   0.0000 0.0000 0.2500  plane waves:    3989
 k-point    30 :   0.0769 0.0000 0.2500  plane waves:    3992
 k-point    31 :   0.1538 0.0000 0.2500  plane waves:    3983
 k-point    32 :   0.2308 0.0000 0.2500  plane waves:    3979
 k-point    33 :   0.3077 0.0000 0.2500  plane waves:    3983
 k-point    34 :   0.3846 0.0000 0.2500  plane waves:    3982
 k-point    35 :   0.4615 0.0000 0.2500  plane waves:    3977
 k-point    36 :   0.0769 0.0769 0.2500  plane waves:    3987
 k-point    37 :   0.1538 0.0769 0.2500  plane waves:    3979
 k-point    38 :   0.2308 0.0769 0.2500  plane waves:    3987
 k-point    39 :   0.3077 0.0769 0.2500  plane waves:    3982
 k-point    40 :   0.3846 0.0769 0.2500  plane waves:    3983
 k-point    41 :   0.4615 0.0769 0.2500  plane waves:    3977
 k-point    42 :   0.1538 0.1538 0.2500  plane waves:    3979
 k-point    43 :   0.2308 0.1538 0.2500  plane waves:    3980
 k-point    44 :   0.3077 0.1538 0.2500  plane waves:    3986
 k-point    45 :   0.3846 0.1538 0.2500  plane waves:    3978
 k-point    46 :   0.4615 0.1538 0.2500  plane waves:    3975
 k-point    47 :   0.2308 0.2308 0.2500  plane waves:    3975
 k-point    48 :   0.3077 0.2308 0.2500  plane waves:    3973
 k-point    49 :   0.3846 0.2308 0.2500  plane waves:    3982
 k-point    50 :   0.4615 0.2308 0.2500  plane waves:    3991
 k-point    51 :   0.3077 0.3077 0.2500  plane waves:    3988
 k-point    52 :   0.3846 0.3077 0.2500  plane waves:    3992
 k-point    53 :   0.4615 0.3077 0.2500  plane waves:    3996
 k-point    54 :   0.3846 0.3846 0.2500  plane waves:    3997
 k-point    55 :   0.4615 0.3846 0.2500  plane waves:    3997
 k-point    56 :   0.4615 0.4615 0.2500  plane waves:    4002
 k-point    57 :   0.0000 0.0000 0.5000  plane waves:    4002
 k-point    58 :   0.0769 0.0000 0.5000  plane waves:    3980
 k-point    59 :   0.1538 0.0000 0.5000  plane waves:    3980
 k-point    60 :   0.2308 0.0000 0.5000  plane waves:    3970
 k-point    61 :   0.3077 0.0000 0.5000  plane waves:    3994
 k-point    62 :   0.3846 0.0000 0.5000  plane waves:    3986
 k-point    63 :   0.4615 0.0000 0.5000  plane waves:    3990
 k-point    64 :   0.0769 0.0769 0.5000  plane waves:    3988
 k-point    65 :   0.1538 0.0769 0.5000  plane waves:    3970
 k-point    66 :   0.2308 0.0769 0.5000  plane waves:    3978
 k-point    67 :   0.3077 0.0769 0.5000  plane waves:    3990
 k-point    68 :   0.3846 0.0769 0.5000  plane waves:    3984
 k-point    69 :   0.4615 0.0769 0.5000  plane waves:    3978
 k-point    70 :   0.1538 0.1538 0.5000  plane waves:    3978
 k-point    71 :   0.2308 0.1538 0.5000  plane waves:    3978
 k-point    72 :   0.3077 0.1538 0.5000  plane waves:    3984
 k-point    73 :   0.3846 0.1538 0.5000  plane waves:    3994
 k-point    74 :   0.4615 0.1538 0.5000  plane waves:    3962
 k-point    75 :   0.2308 0.2308 0.5000  plane waves:    3982
 k-point    76 :   0.3077 0.2308 0.5000  plane waves:    3982
 k-point    77 :   0.3846 0.2308 0.5000  plane waves:    3978
 k-point    78 :   0.4615 0.2308 0.5000  plane waves:    3986
 k-point    79 :   0.3077 0.3077 0.5000  plane waves:    3980
 k-point    80 :   0.3846 0.3077 0.5000  plane waves:    3992
 k-point    81 :   0.4615 0.3077 0.5000  plane waves:    3986
 k-point    82 :   0.3846 0.3846 0.5000  plane waves:    3996
 k-point    83 :   0.4615 0.3846 0.5000  plane waves:    4002
 k-point    84 :   0.4615 0.4615 0.5000  plane waves:    4010

 maximum and minimum number of plane-waves per node :      4028     3962

 maximum number of plane-waves:      4028
 maximum index in each direction: 
   IXMAX=    6   IYMAX=    6   IZMAX=   20
   IXMIN=   -7   IYMIN=   -7   IZMIN=  -21


 serial   3D FFT for wavefunctions
 parallel 3D FFT for charge:
    minimum data exchange during FFTs selected (reduces bandwidth)


 total amount of memory used by VASP MPI-rank0   170710. kBytes
=======================================================================

   base      :      30000. kBytes
   nonl-proj :      98316. kBytes
   fftplans  :        888. kBytes
   grid      :       6813. kBytes
   one-center:        373. kBytes
   wavefun   :      34320. kBytes
 
     INWAV:  cpu time      0.0000: real time      0.0000
 Broyden mixing: mesh for mixing (old mesh)
   NGX = 13   NGY = 13   NGZ = 41
  (NGX  = 56   NGY  = 56   NGZ  =168)
  gives a total of   6929 points

 initial charge density was supplied:
 charge density of overlapping atoms calculated
 number of electron     156.0000000 magnetization       2.2630000
 keeping initial charge density in first step


--------------------------------------------------------------------------------------------------------


 Maximum index for augmentation-charges         1062 (set IRDMAX)


--------------------------------------------------------------------------------------------------------


 First call to EWALD:  gamma=   0.335
 Maximum number of real-space cells 4x 4x 2
 Maximum number of reciprocal cells 2x 2x 5

    FEWALD:  cpu time      0.0026: real time      0.0027


--------------------------------------- Ionic step        1  -------------------------------------------




--------------------------------------- Iteration      1(   1)  ---------------------------------------


    POTLOK:  cpu time      0.0266: real time      0.0808
    SETDIJ:  cpu time      0.0076: real time      0.0079
     EDDAV:  cpu time      4.4246: real time      4.4649
 BZINTS: Fermi energy:   25.170075;  156.000000 electrons
         Band energy: 0.591243E+03;  BLOECHL correction:   -0.110245
       DOS:  cpu time      0.1029: real time      0.1038
    --------------------------------------------
      LOOP:  cpu time      4.5617: real time      4.6574

 eigenvalue-minimisations  : 32256
 total energy-change (2. order) : 0.1736356E+04  (-0.9148677E+04)
 number of electron     156.0000000 magnetization       2.2630000
 augmentation part      156.0000000 magnetization       2.2630000

 Free energy of the ion-electron system (eV)
  ---------------------------------------------------
  alpha Z        PSCENC =      1149.93330786
  Ewald energy   TEWEN  =    -18410.22876264
  -Hartree energ DENC   =     -5833.07500646
  -exchange      EXHF   =         0.00000000
  -V(xc)+E(xc)   XCENC  =       658.40864293
  PAW double counting   =     20095.05994459   -20819.08882006
  entropy T*S    EENTRO =         0.00000000
  eigenvalues    EBANDS =       591.24335102
  atomic energy  EATOM  =     24304.10294433
  Solvation  Ediel_sol  =         0.00000000
  ---------------------------------------------------
  free energy    TOTEN  =      1736.35560157 eV

  energy without entropy =     1736.35560157  energy(sigma->0) =     1736.35560157


--------------------------------------------------------------------------------------------------------




--------------------------------------- Iteration      1(   2)  ---------------------------------------


     EDDAV:  cpu time      4.3068: real time      4.3445
 BZINTS: Fermi energy:   13.320363;  156.000000 electrons
         Band energy:-0.113752E+04;  BLOECHL correction:   -0.054488
       DOS:  cpu time      0.1006: real time      0.1014
    --------------------------------------------
      LOOP:  cpu time      4.4074: real time      4.4458

 eigenvalue-minimisations  : 32544
 total energy-change (2. order) :-0.1728763E+04  (-0.1697816E+04)
 number of electron     156.0000000 magnetization       2.2630000
 augmentation part      156.0000000 magnetization       2.2630000

 Free energy of the ion-electron system (eV)
  ---------------------------------------------------
  alpha Z        PSCENC =      1149.93330786
  Ewald energy   TEWEN  =    -18410.22876264
  -Hartree energ DENC   =     -5833.07500646
  -exchange      EXHF   =         0.00000000
  -V(xc)+E(xc)   XCENC  =       658.40864293
  PAW double counting   =     20095.05994459   -20819.08882006
  entropy T*S    EENTRO =         0.00000000
  eigenvalues    EBANDS =     -1137.52013521
  atomic energy  EATOM  =     24304.10294433
  Solvation  Ediel_sol  =         0.00000000
  ---------------------------------------------------
  free energy    TOTEN  =         7.59211534 eV

  energy without entropy =        7.59211534  energy(sigma->0) =        7.59211534


--------------------------------------------------------------------------------------------------------




--------------------------------------- Iteration      1(   3)  ---------------------------------------


     EDDAV:  cpu time      5.2182: real time      5.2626
 BZINTS: Fermi energy:   12.434392;  156.000000 electrons
         Band energy:-0.124791E+04;  BLOECHL correction:   -0.030835
       DOS:  cpu time      0.1004: real time      0.1012
    --------------------------------------------
      LOOP:  cpu time      5.3186: real time      5.3639

 eigenvalue-minimisations  : 39072
 total energy-change (2. order) :-0.1103851E+03  (-0.1092653E+03)
 number of electron     156.0000000 magnetization       2.2630000
 augmentation part      156.0000000 magnetization       2.2630000

 Free energy of the ion-electron system (eV)
  ---------------------------------------------------
  alpha Z        PSCENC =      1149.93330786
  Ewald energy   TEWEN  =    -18410.22876264
  -Hartree energ DENC   =     -5833.07500646
  -exchange      EXHF   =         0.00000000
  -V(xc)+E(xc)   XCENC  =       658.40864293
  PAW double counting   =     20095.05994459   -20819.08882006
  entropy T*S    EENTRO =         0.00000000
  eigenvalues    EBANDS =     -1247.90524703
  atomic energy  EATOM  =     24304.10294433
  Solvation  Ediel_sol  =         0.00000000
  ---------------------------------------------------
  free energy    TOTEN  =      -102.79299648 eV

  energy without entropy =     -102.79299648  energy(sigma->0) =     -102.79299648


--------------------------------------------------------------------------------------------------------




--------------------------------------- Iteration      1(   4)  ---------------------------------------


     EDDAV:  cpu time      5.4603: real time      5.5112
 BZINTS: Fermi energy:   12.421074;  156.000000 electrons
         Band energy:-0.125025E+04;  BLOECHL correction:   -0.028273
       DOS:  cpu time      0.1526: real time      0.1556
    --------------------------------------------
      LOOP:  cpu time      5.6129: real time      5.6667

 eigenvalue-minimisations  : 32960
 total energy-change (2. order) :-0.2349717E+01  (-0.2346391E+01)
 number of electron     156.0000000 magnetization       2.2630000
 augmentation part      156.0000000 magnetization       2.2630000

 Free energy of the ion-electron system (eV)
  ---------------------------------------------------
  alpha Z        PSCENC =      1149.93330786
  Ewald energy   TEWEN  =    -18410.22876264
  -Hartree energ DENC   =     -5833.07500646
  -exchange      EXHF   =         0.00000000
  -V(xc)+E(xc)   XCENC  =       658.40864293
  PAW double counting   =     20095.05994459   -20819.08882006
  entropy T*S    EENTRO =         0.00000000
  eigenvalues    EBANDS =     -1250.25496426
  atomic energy  EATOM  =     24304.10294433
  Solvation  Ediel_sol  =         0.00000000
  ---------------------------------------------------
  free energy    TOTEN  =      -105.14271371 eV

  energy without entropy =     -105.14271371  energy(sigma->0) =     -105.14271371


--------------------------------------------------------------------------------------------------------




--------------------------------------- Iteration      1(   5)  ---------------------------------------


     EDDAV:  cpu time     10.7927: real time     10.8544
 BZINTS: Fermi energy:   12.420853;  156.000000 electrons
         Band energy:-0.125031E+04;  BLOECHL correction:   -0.028261
       DOS:  cpu time      0.8498: real time      0.8719
    CHARGE:  cpu time      1.0775: real time      1.0817
    MIXING:  cpu time      0.0050: real time      0.0050
    --------------------------------------------
      LOOP:  cpu time     12.7249: real time     12.8130

 eigenvalue-minimisations  : 40928
 total energy-change (2. order) :-0.5304047E-01  (-0.5303543E-01)
 number of electron     155.9999977 magnetization       2.1031978
 augmentation part       79.2484957 magnetization       1.5946533

 Broyden mixing:
  rms(total) = 0.40604E+01    rms(broyden)= 0.40598E+01
  rms(prec ) = 0.45352E+01
  weight for this iteration     100.00

 Free energy of the ion-electron system (eV)
  ---------------------------------------------------
  alpha Z        PSCENC =      1149.93330786
  Ewald energy   TEWEN  =    -18410.22876264
  -Hartree energ DENC   =     -5833.07500646
  -exchange      EXHF   =         0.00000000
  -V(xc)+E(xc)   XCENC  =       658.40864293
  PAW double counting   =     20095.05994459   -20819.08882006
  entropy T*S    EENTRO =         0.00000000
  eigenvalues    EBANDS =     -1250.30800473
  atomic energy  EATOM  =     24304.10294433
  Solvation  Ediel_sol  =         0.00000000
  ---------------------------------------------------
  free energy    TOTEN  =      -105.19575418 eV

  energy without entropy =     -105.19575418  energy(sigma->0) =     -105.19575418


--------------------------------------------------------------------------------------------------------




--------------------------------------- Iteration      1(   6)  ---------------------------------------


    POTLOK:  cpu time      0.0384: real time      0.0478
    SETDIJ:  cpu time      0.0667: real time      0.0671
     EDDAV:  cpu time      6.4520: real time      6.5029
 BZINTS: Fermi energy:    9.740457;  156.000000 electrons
         Band energy:-0.166270E+04;  BLOECHL correction:   -0.028416
       DOS:  cpu time      0.1345: real time      0.1353
    CHARGE:  cpu time      0.1657: real time      0.1680
    MIXING:  cpu time      0.0175: real time      0.0176
    --------------------------------------------
      LOOP:  cpu time      6.8748: real time      6.9386

 eigenvalue-minimisations  : 36992
 total energy-change (2. order) :-0.1942191E+01  (-0.2074167E+02)
 number of electron     155.9999967 magnetization       2.1464667
 augmentation part       88.0437126 magnetization       1.7302458

 Broyden mixing:
  rms(total) = 0.56815E+01    rms(broyden)= 0.56813E+01
  rms(prec ) = 0.74631E+01
  weight for this iteration     100.00

 eigenvalues of (default mixing * dielectric matrix)
  average eigenvalue GAMMA=   0.2977
  0.2977

 Free energy of the ion-electron system (eV)
  ---------------------------------------------------
  alpha Z        PSCENC =      1149.93330786
  Ewald energy   TEWEN  =    -18410.22876264
  -Hartree energ DENC   =     -5427.25334976
  -exchange      EXHF   =         0.00000000
  -V(xc)+E(xc)   XCENC  =       640.75876780
  PAW double counting   =     20607.67920899   -21309.42594385
  entropy T*S    EENTRO =         0.00000000
  eigenvalues    EBANDS =     -1662.70411766
  atomic energy  EATOM  =     24304.10294433
  Solvation  Ediel_sol  =         0.00000000
  ---------------------------------------------------
  free energy    TOTEN  =      -107.13794493 eV

  energy without entropy =     -107.13794493  energy(sigma->0) =     -107.13794493


--------------------------------------------------------------------------------------------------------




--------------------------------------- Iteration      1(   7)  ---------------------------------------


    POTLOK:  cpu time      0.0568: real time      0.0577
    SETDIJ:  cpu time      0.0368: real time      0.0370
     EDDAV:  cpu time     14.2602: real time     14.6084
 BZINTS: Fermi energy:   10.760296;  156.000000 electrons
         Band energy:-0.155984E+04;  BLOECHL correction:   -0.038353
       DOS:  cpu time      0.1661: real time      0.1671
    CHARGE:  cpu time      0.2458: real time      0.2616
    MIXING:  cpu time      0.0037: real time      0.0037
    --------------------------------------------
      LOOP:  cpu time     14.7694: real time     15.1356

 eigenvalue-minimisations  : 43200
 total energy-change (2. order) :-0.8482753E+01  (-0.4548857E+02)
 number of electron     155.9999981 magnetization       2.4173503
 augmentation part       85.2357831 magnetization       1.4762498

 Broyden mixing:
  rms(total) = 0.63443E+01    rms(broyden)= 0.63440E+01
  rms(prec ) = 0.84700E+01
  weight for this iteration     100.00

 eigenvalues of (default mixing * dielectric matrix)
  average eigenvalue GAMMA=   0.3830
  0.6183  0.1477

 Free energy of the ion-electron system (eV)
  ---------------------------------------------------
  alpha Z        PSCENC =      1149.93330786
  Ewald energy   TEWEN  =    -18410.22876264
  -Hartree energ DENC   =     -5521.35937663
  -exchange      EXHF   =         0.00000000
  -V(xc)+E(xc)   XCENC  =       643.53844580
  PAW double counting   =     21014.63005229   -21736.39308320
  entropy T*S    EENTRO =         0.00000000
  eigenvalues    EBANDS =     -1559.84422548
  atomic energy  EATOM  =     24304.10294433
  Solvation  Ediel_sol  =         0.00000000
  ---------------------------------------------------
  free energy    TOTEN  =      -115.62069766 eV

  energy without entropy =     -115.62069766  energy(sigma->0) =     -115.62069766


--------------------------------------------------------------------------------------------------------




--------------------------------------- Iteration      1(   8)  ---------------------------------------


    POTLOK:  cpu time      0.0614: real time      0.0623
    SETDIJ:  cpu time      0.0070: real time      0.0071
     EDDAV:  cpu time      6.2866: real time      6.3335
 BZINTS: Fermi energy:   11.042826;  156.000000 electrons
         Band energy:-0.146222E+04;  BLOECHL correction:   -0.022654
       DOS:  cpu time      0.1078: real time      0.1085
    CHARGE:  cpu time      0.1478: real time      0.1485
    MIXING:  cpu time      0.0018: real time      0.0018
    --------------------------------------------
      LOOP:  cpu time      6.6123: real time      6.6616

 eigenvalue-minimisations  : 43840
 total energy-change (2. order) : 0.2051358E+02  (-0.7402651E+01)
 number of electron     155.9999977 magnetization       2.5165634
 augmentation part       83.4389756 magnetization       2.2191679

 Broyden mixing:
  rms(total) = 0.21926E+01    rms(broyden)= 0.21920E+01
  rms(prec ) = 0.27591E+01
  weight for this iteration     100.00

 eigenvalues of (default mixing * dielectric matrix)
  average eigenvalue GAMMA=   0.5475
  1.1511  0.3482  0.1432

 Free energy of the ion-electron system (eV)
  ---------------------------------------------------
  alpha Z        PSCENC =      1149.93330786
  Ewald energy   TEWEN  =    -18410.22876264
  -Hartree energ DENC   =     -5580.39424992
  -exchange      EXHF   =         0.00000000
  -V(xc)+E(xc)   XCENC  =       645.24383362
  PAW double counting   =     21511.54619122   -22253.09149638
  entropy T*S    EENTRO =         0.00000000
  eigenvalues    EBANDS =     -1462.21888606
  atomic energy  EATOM  =     24304.10294433
  Solvation  Ediel_sol  =         0.00000000
  ---------------------------------------------------
  free energy    TOTEN  =       -95.10711797 eV

  energy without entropy =      -95.10711797  energy(sigma->0) =      -95.10711797


--------------------------------------------------------------------------------------------------------




--------------------------------------- Iteration      1(   9)  ---------------------------------------


    POTLOK:  cpu time      0.0449: real time      0.0457
    SETDIJ:  cpu time      0.0074: real time      0.0075
     EDDAV:  cpu time      5.7793: real time      5.8164
 BZINTS: Fermi energy:   10.825542;  156.000000 electrons
         Band energy:-0.150939E+04;  BLOECHL correction:   -0.027935
       DOS:  cpu time      0.1081: real time      0.1088
    CHARGE:  cpu time      0.1494: real time      0.1502
    MIXING:  cpu time      0.0018: real time      0.0018
    --------------------------------------------
      LOOP:  cpu time      6.0909: real time      6.1304

 eigenvalue-minimisations  : 43392
 total energy-change (2. order) :-0.7597127E+01  (-0.1265914E+02)
 number of electron     155.9999970 magnetization       2.5584113
 augmentation part       84.3688940 magnetization       1.5418929

 Broyden mixing:
  rms(total) = 0.47031E+01    rms(broyden)= 0.47028E+01
  rms(prec ) = 0.64809E+01
  weight for this iteration     100.00

 eigenvalues of (default mixing * dielectric matrix)
  average eigenvalue GAMMA=   0.4819
  1.2922  0.3715  0.1481  0.1160

 Free energy of the ion-electron system (eV)
  ---------------------------------------------------
  alpha Z        PSCENC =      1149.93330786
  Ewald energy   TEWEN  =    -18410.22876264
  -Hartree energ DENC   =     -5533.94077632
  -exchange      EXHF   =         0.00000000
  -V(xc)+E(xc)   XCENC  =       643.71139630
  PAW double counting   =     21823.10415966   -22569.99778478
  entropy T*S    EENTRO =         0.00000000
  eigenvalues    EBANDS =     -1509.38872926
  atomic energy  EATOM  =     24304.10294433
  Solvation  Ediel_sol  =         0.00000000
  ---------------------------------------------------
  free energy    TOTEN  =      -102.70424485 eV

  energy without entropy =     -102.70424485  energy(sigma->0) =     -102.70424485


--------------------------------------------------------------------------------------------------------




--------------------------------------- Iteration      1(  10)  ---------------------------------------


    POTLOK:  cpu time      0.0354: real time      0.0446
    SETDIJ:  cpu time      0.0087: real time      0.0087
     EDDAV:  cpu time      6.1428: real time      6.1823
 BZINTS: Fermi energy:   10.539026;  156.000000 electrons
         Band energy:-0.151864E+04;  BLOECHL correction:   -0.032322
       DOS:  cpu time      0.1082: real time      0.1089
    CHARGE:  cpu time      0.1484: real time      0.1492
    MIXING:  cpu time      0.0019: real time      0.0019
    --------------------------------------------
      LOOP:  cpu time      6.4454: real time      6.4955

 eigenvalue-minimisations  : 44640
 total energy-change (2. order) : 0.9578411E+01  (-0.5083116E+01)
 number of electron     155.9999976 magnetization       2.5442535
 augmentation part       84.5529380 magnetization       2.2150507

 Broyden mixing:
  rms(total) = 0.15353E+01    rms(broyden)= 0.15348E+01
  rms(prec ) = 0.20976E+01
  weight for this iteration     100.00

 eigenvalues of (default mixing * dielectric matrix)
  average eigenvalue GAMMA=   0.4208
  1.2660  0.2933  0.2933  0.1170  0.1343

 Free energy of the ion-electron system (eV)
  ---------------------------------------------------
  alpha Z        PSCENC =      1149.93330786
  Ewald energy   TEWEN  =    -18410.22876264
  -Hartree energ DENC   =     -5512.68880477
  -exchange      EXHF   =         0.00000000
  -V(xc)+E(xc)   XCENC  =       642.88066735
  PAW double counting   =     21933.75019784   -22682.23478486
  entropy T*S    EENTRO =         0.00000000
  eigenvalues    EBANDS =     -1518.64059892
  atomic energy  EATOM  =     24304.10294433
  Solvation  Ediel_sol  =         0.00000000
  ---------------------------------------------------
  free energy    TOTEN  =       -93.12583382 eV

  energy without entropy =      -93.12583382  energy(sigma->0) =      -93.12583382


--------------------------------------------------------------------------------------------------------




--------------------------------------- Iteration      1(  11)  ---------------------------------------


    POTLOK:  cpu time      0.0375: real time      0.0437
    SETDIJ:  cpu time      0.0081: real time      0.0082
     EDDAV:  cpu time      5.8800: real time      5.9177
 BZINTS: Fermi energy:   10.538665;  156.000000 electrons
         Band energy:-0.151985E+04;  BLOECHL correction:   -0.028450
       DOS:  cpu time      0.1080: real time      0.1094
    CHARGE:  cpu time      0.1469: real time      0.1476
    MIXING:  cpu time      0.0018: real time      0.0019
    --------------------------------------------
      LOOP:  cpu time      6.1823: real time      6.2285

 eigenvalue-minimisations  : 43616
 total energy-change (2. order) :-0.1511849E+00  (-0.1501627E+01)
 number of electron     155.9999975 magnetization       2.5448403
 augmentation part       84.5532920 magnetization       1.8189551

 Broyden mixing:
  rms(total) = 0.13587E+01    rms(broyden)= 0.13583E+01
  rms(prec ) = 0.22160E+01
  weight for this iteration     100.00

 eigenvalues of (default mixing * dielectric matrix)
  average eigenvalue GAMMA=   0.3933
  1.2330  0.3779  0.3779  0.1320  0.1196  0.1196

 Free energy of the ion-electron system (eV)
  ---------------------------------------------------
  alpha Z        PSCENC =      1149.93330786
  Ewald energy   TEWEN  =    -18410.22876264
  -Hartree energ DENC   =     -5510.65300801
  -exchange      EXHF   =         0.00000000
  -V(xc)+E(xc)   XCENC  =       642.99319238
  PAW double counting   =     21967.58774632   -22717.15923041
  entropy T*S    EENTRO =         0.00000000
  eigenvalues    EBANDS =     -1519.85320860
  atomic energy  EATOM  =     24304.10294433
  Solvation  Ediel_sol  =         0.00000000
  ---------------------------------------------------
  free energy    TOTEN  =       -93.27701876 eV

  energy without entropy =      -93.27701876  energy(sigma->0) =      -93.27701876


--------------------------------------------------------------------------------------------------------




--------------------------------------- Iteration      1(  12)  ---------------------------------------


    POTLOK:  cpu time      0.0427: real time      0.0434
    SETDIJ:  cpu time      0.0082: real time      0.0083
     EDDAV:  cpu time      6.0410: real time      6.0793
 BZINTS: Fermi energy:   10.531898;  156.000000 electrons
         Band energy:-0.152041E+04;  BLOECHL correction:   -0.029184
       DOS:  cpu time      0.1080: real time      0.1087
    CHARGE:  cpu time      0.1467: real time      0.1476
    MIXING:  cpu time      0.0019: real time      0.0019
    --------------------------------------------
      LOOP:  cpu time      6.3486: real time      6.3892

 eigenvalue-minimisations  : 43776
 total energy-change (2. order) : 0.2664915E+00  (-0.7584475E+00)
 number of electron     155.9999977 magnetization       2.5445698
 augmentation part       84.5669165 magnetization       2.0510049

 Broyden mixing:
  rms(total) = 0.76126E+00    rms(broyden)= 0.76113E+00
  rms(prec ) = 0.90658E+00
  weight for this iteration     100.00

 eigenvalues of (default mixing * dielectric matrix)
  average eigenvalue GAMMA=   0.4273
  1.2269  0.5303  0.5303  0.3451  0.1463  0.1253  0.0868

 Free energy of the ion-electron system (eV)
  ---------------------------------------------------
  alpha Z        PSCENC =      1149.93330786
  Ewald energy   TEWEN  =    -18410.22876264
  -Hartree energ DENC   =     -5508.31554737
  -exchange      EXHF   =         0.00000000
  -V(xc)+E(xc)   XCENC  =       643.38576032
  PAW double counting   =     22020.50890624   -22771.98214455
  entropy T*S    EENTRO =         0.00000000
  eigenvalues    EBANDS =     -1520.41499146
  atomic energy  EATOM  =     24304.10294433
  Solvation  Ediel_sol  =         0.00000000
  ---------------------------------------------------
  free energy    TOTEN  =       -93.01052726 eV

  energy without entropy =      -93.01052726  energy(sigma->0) =      -93.01052726


--------------------------------------------------------------------------------------------------------




--------------------------------------- Iteration      1(  13)  ---------------------------------------


    POTLOK:  cpu time      0.0373: real time      0.0446
    SETDIJ:  cpu time      0.0076: real time      0.0076
     EDDAV:  cpu time      6.1599: real time      6.1991
 BZINTS: Fermi energy:   10.528913;  156.000000 electrons
         Band energy:-0.152188E+04;  BLOECHL correction:   -0.029168
       DOS:  cpu time      0.1072: real time      0.1084
    CHARGE:  cpu time      0.1469: real time      0.1483
    MIXING:  cpu time      0.0019: real time      0.0019
    --------------------------------------------
      LOOP:  cpu time      6.4608: real time      6.5099

 eigenvalue-minimisations  : 45280
 total energy-change (2. order) :-0.1328445E+00  (-0.1923842E+00)
 number of electron     155.9999977 magnetization       2.5340497
 augmentation part       84.6032707 magnetization       2.0934957

 Broyden mixing:
  rms(total) = 0.81143E+00    rms(broyden)= 0.81139E+00
  rms(prec ) = 0.10555E+01
  weight for this iteration     100.00

 eigenvalues of (default mixing * dielectric matrix)
  average eigenvalue GAMMA=   0.4497
  1.2339  0.7608  0.7608  0.3661  0.1482  0.1327  0.0924  0.1026

 Free energy of the ion-electron system (eV)
  ---------------------------------------------------
  alpha Z        PSCENC =      1149.93330786
  Ewald energy   TEWEN  =    -18410.22876264
  -Hartree energ DENC   =     -5506.44188553
  -exchange      EXHF   =         0.00000000
  -V(xc)+E(xc)   XCENC  =       643.53221782
  PAW double counting   =     22046.29038240   -22798.44708459
  entropy T*S    EENTRO =         0.00000000
  eigenvalues    EBANDS =     -1521.88449141
  atomic energy  EATOM  =     24304.10294433
  Solvation  Ediel_sol  =         0.00000000
  ---------------------------------------------------
  free energy    TOTEN  =       -93.14337175 eV

  energy without entropy =      -93.14337175  energy(sigma->0) =      -93.14337175


--------------------------------------------------------------------------------------------------------




--------------------------------------- Iteration      1(  14)  ---------------------------------------


    POTLOK:  cpu time      0.0432: real time      0.0440
    SETDIJ:  cpu time      0.0079: real time      0.0079
     EDDAV:  cpu time      5.8576: real time      5.8960
[...]
     81      10.8955      0.00000
     82      10.9595      0.00000
     83      11.1040      0.00000
     84      11.2282      0.00000
     85      11.3277      0.00000
     86      11.4825      0.00000
     87      11.5205      0.00000
     88      11.7466      0.00000
     89      11.9694      0.00000
     90      12.0941      0.00000
     91      12.1433      0.00000
     92      12.2131      0.00000
     93      12.3415      0.00000
     94      12.7714      0.00000
     95      12.8813      0.00000
     96      13.0592      0.00000


--------------------------------------------------------------------------------------------------------


 soft charge-density along one line, spin component           1
         0         1         2         3         4         5         6         7         8         9
 total charge-density along one line
 
 soft charge-density along one line, spin component           2
         0         1         2         3         4         5         6         7         8         9
 total charge-density along one line
 
 pseudopotential strength for first ion, spin component:           1
-42.280   0.000  -0.000   6.484  -0.000   0.000  -0.000   0.000
  0.000 -42.274   0.000  -0.000   6.481  -0.000   0.000   0.000
 -0.000   0.000 -42.217   0.000  -0.000   6.457   0.000   0.000
  6.484  -0.000   0.000   5.936  -0.000   0.000   0.000  -0.000
 -0.000   6.481  -0.000  -0.000   5.936  -0.000  -0.000  -0.000
  0.000  -0.000   6.457   0.000  -0.000   5.942  -0.000  -0.000
 -0.000   0.000   0.000   0.000  -0.000  -0.000   0.084   0.000
  0.000   0.000   0.000  -0.000  -0.000  -0.000   0.000   0.108
 -0.000   0.000   0.000   0.000  -0.000  -0.000   0.000   0.000
  0.000  -0.000   0.000  -0.000   0.000  -0.000   0.000  -0.000
 -0.000   0.000  -0.000   0.000  -0.000   0.000   0.000  -0.000
 -0.000   0.000   0.000   0.000  -0.000  -0.000  -0.465   0.000
  0.000   0.000   0.000  -0.000  -0.000  -0.000   0.000  -0.441
 -0.000   0.000   0.000   0.000  -0.000  -0.000   0.000   0.000
  0.000  -0.000   0.000  -0.000   0.000  -0.000   0.000  -0.000
 -0.000   0.000  -0.000   0.000  -0.000   0.000   0.000  -0.000
 -0.000  -0.000   0.000  -0.000  -0.000   0.000   0.000  -0.000
 -0.000  -0.000   0.000  -0.000  -0.000   0.000   0.000  -0.000
 pseudopotential strength for first ion, spin component:           2
-44.409   0.000  -0.000   7.380  -0.000   0.000  -0.000   0.000
  0.000 -44.392   0.000  -0.000   7.373  -0.000  -0.000   0.000
 -0.000   0.000 -44.254   0.000  -0.000   7.318   0.000  -0.000
  7.380  -0.000   0.000   5.687  -0.000   0.000   0.000  -0.000
 -0.000   7.373  -0.000  -0.000   5.689  -0.000   0.000  -0.000
  0.000  -0.000   7.318   0.000  -0.000   5.699  -0.000   0.000
 -0.000  -0.000   0.000   0.000   0.000  -0.000  -1.553   0.000
  0.000   0.000  -0.000  -0.000  -0.000   0.000   0.000  -1.715
 -0.000   0.000   0.000   0.000  -0.000  -0.000   0.000   0.000
 -0.000  -0.000   0.000   0.000   0.000  -0.000  -0.000  -0.000
 -0.000   0.000  -0.000   0.000  -0.000   0.000   0.000  -0.000
 -0.000  -0.000   0.000   0.000   0.000  -0.000  -2.075   0.000
  0.000   0.000  -0.000  -0.000  -0.000   0.000   0.000  -2.235
 -0.000   0.000   0.000   0.000  -0.000  -0.000   0.000   0.000
 -0.000  -0.000   0.000   0.000   0.000  -0.000  -0.000  -0.000
 -0.000   0.000  -0.000   0.000  -0.000   0.000   0.000  -0.000
 -0.000  -0.000   0.000  -0.000   0.000   0.000   0.000  -0.000
 -0.000  -0.000   0.000  -0.000  -0.000   0.000   0.000  -0.000
 total augmentation occupancy for first ion, spin component:           1
  1.992   0.000   0.000  -0.025   0.000   0.000   0.000   0.000   0.000  -0.000   0.000   0.000  -0.000  -0.000   0.000   0.000
  0.000   1.992   0.000   0.000  -0.025   0.000   0.000   0.000  -0.000   0.000  -0.000   0.000   0.000   0.000   0.000   0.000
  0.000   0.000   1.992   0.000   0.000  -0.024   0.000  -0.000   0.000   0.000   0.000  -0.000   0.000   0.000  -0.000   0.000
 -0.025   0.000   0.000   0.190   0.000   0.000  -0.000   0.000   0.000   0.000   0.000   0.000  -0.000   0.000   0.000   0.000
  0.000  -0.025   0.000   0.000   0.192   0.000  -0.000   0.000   0.000   0.000  -0.000   0.000   0.000  -0.000   0.000   0.000
  0.000   0.000  -0.024   0.000   0.000   0.183   0.000   0.000   0.000   0.000   0.000   0.000   0.000   0.000  -0.000   0.000
  0.000   0.000   0.000  -0.000  -0.000   0.000   2.672  -0.000   0.000   0.000   0.000  -1.550  -0.000  -0.000   0.000   0.000
  0.000   0.000  -0.000   0.000   0.000   0.000  -0.000   3.101   0.000   0.000   0.000   0.000  -2.232   0.000   0.000   0.000
  0.000  -0.000   0.000   0.000   0.000   0.000   0.000   0.000   3.311  -0.000   0.186   0.000   0.000  -1.989  -0.000  -0.059
 -0.000   0.000   0.000   0.000   0.000   0.000   0.000   0.000  -0.000   2.780   0.000   0.000   0.000   0.000  -1.622   0.000
  0.000  -0.000   0.000   0.000  -0.000   0.000   0.000   0.000   0.186   0.000   3.203   0.000   0.000  -0.061  -0.000  -1.951
  0.000   0.000  -0.000   0.000   0.000   0.000  -1.550   0.000   0.000   0.000   0.000   1.830  -0.000   0.000   0.000   0.000
 -0.000   0.000   0.000  -0.000   0.000   0.000  -0.000  -2.232   0.000   0.000   0.000  -0.000   2.588   0.000   0.000   0.000
 -0.000   0.000   0.000   0.000  -0.000   0.000  -0.000   0.000  -1.989   0.000  -0.061   0.000   0.000   1.974   0.000  -0.018
  0.000   0.000  -0.000   0.000   0.000  -0.000   0.000   0.000  -0.000  -1.622  -0.000   0.000   0.000   0.000   1.919  -0.000
  0.000   0.000   0.000   0.000   0.000   0.000   0.000   0.000  -0.059   0.000  -1.951   0.000   0.000  -0.018  -0.000   1.986
  0.000  -0.000   0.000  -0.000  -0.000   0.000   0.000   0.000  -0.086   0.000   0.147   0.000   0.000   0.069   0.000  -0.083
  0.000   0.000   0.000   0.000   0.000   0.000   0.000   0.000   0.009   0.000  -0.016   0.000   0.000  -0.007   0.000   0.008
 total augmentation occupancy for first ion, spin component:           2
  0.002   0.000   0.000   0.008   0.000   0.000  -0.000   0.000   0.000   0.000  -0.000  -0.000  -0.000   0.000   0.000   0.000
  0.000   0.002   0.000   0.000   0.008  -0.000   0.000   0.000  -0.000  -0.000  -0.000   0.000   0.000   0.000   0.000   0.000
  0.000   0.000   0.002   0.000   0.000   0.009   0.000   0.000  -0.000   0.000   0.000  -0.000   0.000   0.000  -0.000   0.000
  0.008   0.000   0.000  -0.002   0.000   0.000  -0.000  -0.000  -0.000   0.000   0.000   0.000   0.000   0.000   0.000   0.000
  0.000   0.008   0.000   0.000   0.008  -0.000   0.000   0.000  -0.000   0.000  -0.000   0.000   0.000   0.000   0.000   0.000
  0.000  -0.000   0.009   0.000  -0.000   0.006  -0.000   0.000   0.000  -0.000   0.000   0.000   0.000   0.000   0.000   0.000
 -0.000   0.000   0.000  -0.000   0.000  -0.000  -2.019  -0.000   0.000   0.000  -0.000   0.849  -0.000  -0.000   0.000   0.000
  0.000   0.000   0.000  -0.000   0.000   0.000  -0.000  -2.048  -0.000   0.000   0.000   0.000   0.660   0.000   0.000   0.000
  0.000  -0.000  -0.000  -0.000  -0.000   0.000   0.000  -0.000  -2.492   0.000  -0.089   0.000   0.000   1.046   0.000   0.128
  0.000  -0.000   0.000   0.000   0.000  -0.000   0.000   0.000   0.000  -2.062   0.000   0.000   0.000  -0.000   0.882   0.000
 -0.000  -0.000   0.000   0.000  -0.000   0.000  -0.000   0.000  -0.089   0.000  -2.455   0.000  -0.000   0.127   0.000   0.969
 -0.000   0.000  -0.000   0.000   0.000   0.000   0.849   0.000   0.000   0.000   0.000  -0.150   0.000   0.000   0.000   0.000
 -0.000   0.000   0.000   0.000   0.000   0.000  -0.000   0.660   0.000   0.000  -0.000   0.000   0.087   0.000   0.000  -0.000
  0.000   0.000   0.000   0.000   0.000   0.000  -0.000   0.000   1.046  -0.000   0.127   0.000   0.000  -0.285   0.000  -0.142
  0.000   0.000  -0.000   0.000   0.000   0.000   0.000   0.000   0.000   0.882   0.000   0.000   0.000   0.000  -0.142   0.000
  0.000   0.000   0.000   0.000   0.000   0.000   0.000   0.000   0.128   0.000   0.969   0.000  -0.000  -0.142   0.000  -0.183
  0.000  -0.000   0.000   0.000  -0.000   0.000   0.000   0.000  -0.015  -0.000  -0.032   0.000   0.000   0.008   0.000   0.052
  0.000   0.000   0.000   0.000   0.000   0.000   0.000   0.000  -0.004   0.000   0.009   0.000   0.000   0.001   0.000  -0.003


------------------------ aborting loop because EDIFF is reached ----------------------------------------





 total charge

# of ion       s       p       d       tot
------------------------------------------
    1        0.362   6.352   6.080  12.795
    2        0.363   6.356   6.058  12.777
    3        0.363   6.356   6.059  12.778
    4        0.367   6.362   6.044  12.773
    5        0.367   6.362   6.044  12.773
    6        0.363   6.357   6.057  12.777
    7        0.362   6.352   6.080  12.795
    8        0.363   6.356   6.058  12.777
    9        0.363   6.356   6.059  12.778
   10        0.799   0.752   8.051   9.602
   11        0.799   0.752   8.051   9.602
   12        0.785   0.768   8.049   9.602
--------------------------------------------------
tot          5.654  59.482  78.692 143.828



 magnetization (x)

# of ion       s       p       d       tot
------------------------------------------
    1       -0.005   0.010  -2.455  -2.450
    2        0.009   0.004   2.364   2.377
    3        0.009   0.004   2.363   2.376
    4       -0.015  -0.026  -2.441  -2.482
    5       -0.015  -0.026  -2.442  -2.482
    6        0.003  -0.015   2.607   2.595
    7       -0.005   0.010  -2.455  -2.450
    8        0.009   0.004   2.364   2.377
    9        0.009   0.004   2.363   2.376
   10        0.009   0.020  -0.123  -0.094
   11        0.009   0.020  -0.123  -0.094
   12       -0.036  -0.087   0.338   0.215
--------------------------------------------------
tot         -0.018  -0.081   2.362   2.263
 
    CHARGE:  cpu time      0.1493: real time      0.1501
    FORLOC:  cpu time      0.0021: real time      0.0022
    FORNL :  cpu time      0.5335: real time      0.5369
    STRESS:  cpu time      4.0130: real time      4.0450
    FORCOR:  cpu time      0.0200: real time      0.0201
    FORHAR:  cpu time      0.0026: real time      0.0026
    MIXING:  cpu time      0.0026: real time      0.0027
    OFIELD:  cpu time      0.0012: real time      0.0012

  FORCE on cell =-STRESS in cart. coord.  units (eV):
  Direction    XX          YY          ZZ          XY          YZ          ZX
  --------------------------------------------------------------------------------------
  Alpha Z  1149.93331  1149.93331  1149.93331
  Ewald   -6131.22420 -6131.22420 -6147.80278     0.00000     0.00000    -0.00000
  Hartree  1835.58165  1835.58165  1818.24164    -0.00000    -0.00000    -0.00000
  E(xc)    -944.89562  -944.89562  -944.82183    -0.00000     0.00000     0.00000
  Local    1161.57359  1161.57359  1203.75094     0.00000    -0.00000     0.00000
  n-local  -204.86801  -218.40150  -211.35614    15.25706     0.08337     0.06162
  augment  1439.17946  1439.17946  1433.61753     0.00000     0.00000     0.00000
  Kinetic  1717.06579  1698.01028  1704.48432     3.56240     0.29353     0.70340
  Fock        0.00000     0.00000     0.00000     0.00000     0.00000     0.00000
  -------------------------------------------------------------------------------------
  Total       6.05148     6.05148     6.04699     0.00000     0.00000     0.00000
  in kB      65.51046    65.51046    65.46186     0.00000     0.00000     0.00000
  external pressure =       65.49 kB  Pullay stress =        0.00 kB


 VOLUME and BASIS-vectors are now :
 -----------------------------------------------------------------------------
  energy-cutoff  :      520.00
  volume of cell :      148.00
      direct lattice vectors                 reciprocal lattice vectors
     3.654321475  0.000000000  0.000000000     0.273648612  0.000000000  0.000000000
     0.000000000  3.654321475  0.000000000     0.000000000  0.273648612  0.000000000
     0.000000000  0.000000000 11.082767316     0.000000000  0.000000000  0.090230172

  length of vectors
     3.654321475  3.654321475 11.082767316     0.273648612  0.273648612  0.090230172


 FORCES acting on ions
    electron-ion (+dipol)            ewald-force                    non-local-force                 convergence-correction
 -----------------------------------------------------------------------------------------------
   -.866E-13 0.690E-12 -.610E+00   -.167E-13 -.362E-13 0.619E+00   0.533E-21 0.361E-21 0.260E-03   -.626E-13 0.536E-14 -.739E-02
   -.873E-13 0.119E-11 -.146E+02   0.138E-13 -.226E-13 0.158E+02   0.561E-18 -.130E-17 -.117E+01   -.550E-13 0.376E-14 0.449E-03
   -.797E-13 0.243E-11 0.152E+02   0.663E-15 -.281E-13 -.164E+02   -.171E-18 -.285E-18 0.117E+01   -.639E-13 0.130E-13 0.771E-02
   0.113E-11 0.745E-11 0.551E+02   0.325E-13 -.276E-14 -.534E+02   -.279E-17 0.124E-18 -.167E+01   -.236E-12 -.246E-13 0.144E-01
   0.112E-11 -.455E-11 -.557E+02   0.385E-13 -.156E-13 0.540E+02   -.319E-17 0.552E-18 0.167E+01   -.241E-12 -.237E-13 -.118E-01
   0.113E-11 -.464E-11 0.597E+00   0.215E-13 0.101E-13 -.594E+00   0.227E-21 -.366E-21 -.289E-03   -.216E-12 -.176E-13 -.419E-02
   0.113E-11 -.714E-13 -.610E+00   -.242E-13 0.991E-15 0.619E+00   0.338E-21 -.971E-21 0.260E-03   -.292E-12 0.137E-13 -.739E-02
   0.111E-11 -.293E-12 -.146E+02   0.213E-13 0.323E-13 0.158E+02   0.476E-18 0.438E-18 -.117E+01   -.282E-12 0.710E-14 0.449E-03
   0.112E-11 0.274E-12 0.152E+02   -.406E-14 -.284E-14 -.164E+02   0.615E-18 -.534E-18 0.117E+01   -.290E-12 0.176E-13 0.771E-02
   -.486E-13 -.972E-15 0.806E+01   -.954E-14 0.276E-13 -.822E+01   0.976E-18 0.992E-18 0.124E+00   0.190E-13 -.295E-14 0.108E-01
   -.503E-13 -.608E-14 -.848E+01   -.495E-13 0.215E-13 0.863E+01   -.240E-18 0.262E-18 -.123E+00   0.252E-13 0.285E-14 -.811E-02
   -.480E-13 -.402E-13 0.401E+00   -.321E-13 0.150E-13 -.398E+00   0.120E-22 -.176E-21 -.132E-02   0.194E-13 -.167E-14 -.272E-02
 -----------------------------------------------------------------------------------------------
   0.634E-11 0.242E-11 0.437E-03   -.779E-14 -.630E-15 -.291E-12   -.375E-17 0.248E-18 -.189E-03   -.167E-11 -.721E-14 -.164E-03
 
 
 POSITION                                       TOTAL-FORCE (eV/Angst)
 -----------------------------------------------------------------------------------
      0.00000      1.82716      1.84688         0.000000     -0.000000      0.002003
      0.00000      1.82716      5.53570         0.000000     -0.000000     -0.010740
      0.00000      1.82716      9.24157         0.000000     -0.000000      0.008601
      1.82716      1.82716      0.04344        -0.000000      0.000000      0.027820
      1.82716      1.82716      3.65061        -0.000000      0.000000     -0.027657
      1.82716      1.82716      7.38877         0.000000     -0.000000     -0.000627
      1.82716      0.00000      1.84688         0.000000      0.000000      0.002003
      1.82716      0.00000      5.53570        -0.000000      0.000000     -0.010740
      1.82716      0.00000      9.24157         0.000000      0.000000      0.008601
      0.00000      0.00000     11.05871         0.000000      0.000000     -0.024063
      0.00000      0.00000      3.71805         0.000000      0.000000      0.026063
      0.00000      0.00000      7.38871         0.000000      0.000000     -0.001265
 -----------------------------------------------------------------------------------
    total drift:                                0.000000      0.000000      0.000083


--------------------------------------------------------------------------------------------------------



  FREE ENERGIE OF THE ION-ELECTRON SYSTEM (eV)
  ---------------------------------------------------
  free  energy   TOTEN  =       -93.29615456 eV

  energy  without entropy=      -93.29615456  energy(sigma->0) =      -93.29615456
 


--------------------------------------------------------------------------------------------------------


    POTLOK:  cpu time      0.0368: real time      0.0370


--------------------------------------------------------------------------------------------------------


     LOOP+:  cpu time    185.8351: real time    187.6829
 -----------------------------------------------------------------------------
|                                                                             |
|           W    W    AA    RRRRR   N    N  II  N    N   GGGG   !!!           |
|           W    W   A  A   R    R  NN   N  II  NN   N  G    G  !!!           |
|           W    W  A    A  R    R  N N  N  II  N N  N  G       !!!           |
|           W WW W  AAAAAA  RRRRR   N  N N  II  N  N N  G  GGG   !            |
|           WW  WW  A    A  R   R   N   NN  II  N   NN  G    G                |
|           W    W  A    A  R    R  N    N  II  N    N   GGGG   !!!           |
|                                                                             |
|     Tetrahedron method does not include variations of the Fermi             |
|     occupations, so forces and stress will be inaccurate. We suggest        |
|     using a different smearing scheme ISMEAR = 1 or 2 for metals in         |
|     relaxations.                                                            |
|                                                                             |
 -----------------------------------------------------------------------------

    4ORBIT:  cpu time      0.0000: real time      0.0000



 total charge

# of ion       s       p       d       tot
------------------------------------------
    1        0.362   6.352   6.080  12.795
    2        0.363   6.356   6.058  12.777
    3        0.363   6.356   6.059  12.778
    4        0.367   6.362   6.044  12.773
    5        0.367   6.362   6.044  12.773
    6        0.363   6.357   6.057  12.777
    7        0.362   6.352   6.080  12.795
    8        0.363   6.356   6.058  12.777
    9        0.363   6.356   6.059  12.778
   10        0.799   0.752   8.051   9.602
   11        0.799   0.752   8.051   9.602
   12        0.785   0.768   8.049   9.602
--------------------------------------------------
tot          5.654  59.482  78.692 143.828



 magnetization (x)

# of ion       s       p       d       tot
------------------------------------------
    1       -0.005   0.010  -2.455  -2.450
    2        0.009   0.004   2.364   2.377
    3        0.009   0.004   2.363   2.376
    4       -0.015  -0.026  -2.441  -2.482
    5       -0.015  -0.026  -2.442  -2.482
    6        0.003  -0.015   2.607   2.595
    7       -0.005   0.010  -2.455  -2.450
    8        0.009   0.004   2.364   2.377
    9        0.009   0.004   2.363   2.376
   10        0.009   0.020  -0.123  -0.094
   11        0.009   0.020  -0.123  -0.094
   12       -0.036  -0.087   0.338   0.215
--------------------------------------------------
tot         -0.018  -0.081   2.362   2.263
 
 BZINTS: Fermi energy:   10.568572;  156.000000 electrons
         Band energy:-0.153055E+04;  BLOECHL correction:   -0.030447

 total amount of memory used by VASP MPI-rank0   170710. kBytes
=======================================================================

   base      :      30000. kBytes
   nonl-proj :      98316. kBytes
   fftplans  :        888. kBytes
   grid      :       6813. kBytes
   one-center:        373. kBytes
   wavefun   :      34320. kBytes
 
  
  
 General timing and accounting informations for this job:
 ========================================================
  
                  Total CPU time used (sec):      202.375
                            User time (sec):      194.803
                          System time (sec):        7.573
                         Elapsed time (sec):      210.140
  
                   Maximum memory used (kb):      840652.
                   Average memory used (kb):          N/A
  
                          Minor page faults:       198525
                          Major page faults:          120
                 Voluntary context switches:         7807
